 Entering Gaussian System, Link 0=/home/timn/tmp/g03.e01/g03
 Input=Ca2PO3_11.mol2_plusQcc.out.z51531.zip.xyz.gjf
 Output=Ca2PO3_11.mol2_plusQcc.out.z51531.zip.xyz.out
 Initial command:
 /home/timn/tmp/g03.e01/l1.exe /home/timn/tmp/g03.e01/Gau-18586.inp -scrdir=/home/timn/tmp/g03.e01/
 Default is to use a total of   2 processors:
                                2 via shared-memory
                                1 via Linda
 Entering Link 1 = /home/timn/tmp/g03.e01/l1.exe PID=     18588.
  
 Copyright (c) 1988,1990,1992,1993,1995,1998,2003,2004,2007, Gaussian, Inc.
                  All Rights Reserved.
  
 This is the Gaussian(R) 03 program.  It is based on the
 the Gaussian(R) 98 system (copyright 1998, Gaussian, Inc.),
 the Gaussian(R) 94 system (copyright 1995, Gaussian, Inc.),
 the Gaussian 92(TM) system (copyright 1992, Gaussian, Inc.),
 the Gaussian 90(TM) system (copyright 1990, Gaussian, Inc.),
 the Gaussian 88(TM) system (copyright 1988, Gaussian, Inc.),
 the Gaussian 86(TM) system (copyright 1986, Carnegie Mellon
 University), and the Gaussian 82(TM) system (copyright 1983,
 Carnegie Mellon University). Gaussian is a federally registered
 trademark of Gaussian, Inc.
  
 This software contains proprietary and confidential information,
 including trade secrets, belonging to Gaussian, Inc.
  
 This software is provided under written license and may be
 used, copied, transmitted, or stored only in accord with that
 written license.
  
 The following legend is applicable only to US Government
 contracts under FAR:
  
                    RESTRICTED RIGHTS LEGEND
  
 Use, reproduction and disclosure by the US Government is
 subject to restrictions as set forth in subparagraphs (a)
 and (c) of the Commercial Computer Software - Restricted
 Rights clause in FAR 52.227-19.
  
 Gaussian, Inc.
 340 Quinnipiac St., Bldg. 40, Wallingford CT 06492
  
  
 ---------------------------------------------------------------
 Warning -- This program may not be used in any manner that
 competes with the business of Gaussian, Inc. or will provide
 assistance to any competitor of Gaussian, Inc.  The licensee
 of this program is prohibited from giving any competitor of
 Gaussian, Inc. access to this program.  By using this program,
 the user acknowledges that Gaussian, Inc. is engaged in the
 business of creating and licensing software in the field of
 computational chemistry and represents and warrants to the
 licensee that it is not a competitor of Gaussian, Inc. and that
 it will not use this program in any manner prohibited above.
 ---------------------------------------------------------------
  

 Cite this work as:
 Gaussian 03, Revision E.01,
 M. J. Frisch, G. W. Trucks, H. B. Schlegel, G. E. Scuseria, 
 M. A. Robb, J. R. Cheeseman, J. A. Montgomery, Jr., T. Vreven, 
 K. N. Kudin, J. C. Burant, J. M. Millam, S. S. Iyengar, J. Tomasi, 
 V. Barone, B. Mennucci, M. Cossi, G. Scalmani, N. Rega, 
 G. A. Petersson, H. Nakatsuji, M. Hada, M. Ehara, K. Toyota, 
 R. Fukuda, J. Hasegawa, M. Ishida, T. Nakajima, Y. Honda, O. Kitao, 
 H. Nakai, M. Klene, X. Li, J. E. Knox, H. P. Hratchian, J. B. Cross, 
 V. Bakken, C. Adamo, J. Jaramillo, R. Gomperts, R. E. Stratmann, 
 O. Yazyev, A. J. Austin, R. Cammi, C. Pomelli, J. W. Ochterski, 
 P. Y. Ayala, K. Morokuma, G. A. Voth, P. Salvador, J. J. Dannenberg, 
 V. G. Zakrzewski, S. Dapprich, A. D. Daniels, M. C. Strain, 
 O. Farkas, D. K. Malick, A. D. Rabuck, K. Raghavachari, 
 J. B. Foresman, J. V. Ortiz, Q. Cui, A. G. Baboul, S. Clifford, 
 J. Cioslowski, B. B. Stefanov, G. Liu, A. Liashenko, P. Piskorz, 
 I. Komaromi, R. L. Martin, D. J. Fox, T. Keith, M. A. Al-Laham, 
 C. Y. Peng, A. Nanayakkara, M. Challacombe, P. M. W. Gill, 
 B. Johnson, W. Chen, M. W. Wong, C. Gonzalez, and J. A. Pople, 
 Gaussian, Inc., Wallingford CT, 2004.
 
 ******************************************
 Gaussian 03:  EM64T-G03RevE.01 11-Sep-2007
                12-Jun-2015 
 ******************************************
 %nproc=2
 Will use up to    2 processors via shared memory.
 Default route:  MP2=Direct MaxDisk=2000MB
 ----------------------------------------------------
 # b3lyp/6-31+G(d,p) int=ultrafine pop=(ReadRadii,MK)
 ----------------------------------------------------

 Warning!  SCF SP cutoffs with diffuse functions may be unreliable.
 Consider SCF=Tight

 1/38=1/1;
 2/17=6,18=5,40=1/2;
 3/5=1,6=6,7=111,11=2,16=1,25=1,30=1,74=-5,75=5/1,2,3;
 4//1;
 5/5=2,32=1,38=5/2;
 6/7=2,8=2,9=2,10=2,15=8,20=101,28=1/1,2;
 99/5=1,9=1/99;
 -----------------------------------------
 Ca2PO3_11.mol2_plusQcc.out.z51531.zip.xyz
 -----------------------------------------
 Symbolic Z-matrix:
 Charge =  1 Multiplicity = 1
 O                     1.2535    1.29811  -0.0135 
 O                    -1.30027   1.25334  -0.00386 
 O                     0.03338  -1.91912   0.01572 
 P                    -0.03869   2.14797  -0.0153 
 Ca                    1.8875   -0.90302   0.00104 
 Ca                   -1.85542  -0.96897   0.01537 
 
                          Input orientation:                          
 ---------------------------------------------------------------------
 Center     Atomic     Atomic              Coordinates (Angstroms)
 Number     Number      Type              X           Y           Z
 ---------------------------------------------------------------------
    1          8             0        1.253500    1.298110   -0.013500
    2          8             0       -1.300270    1.253340   -0.003860
    3          8             0        0.033380   -1.919120    0.015720
    4         15             0       -0.038690    2.147970   -0.015300
    5         20             0        1.887500   -0.903020    0.001040
    6         20             0       -1.855420   -0.968970    0.015370
 ---------------------------------------------------------------------
                    Distance matrix (angstroms):
                    1          2          3          4          5
     1  O    0.000000
     2  O    2.554181   0.000000
     3  O    3.440947   3.441440   0.000000
     4  P    1.546616   1.546634   4.067847   0.000000
     5  Ca   2.290664   3.848609   2.114340   3.608187   0.000000
     6  Ca   3.847839   2.290682   2.114320   3.607875   3.743528
                    6
     6  Ca   0.000000
 Stoichiometry    Ca2O3P(1+)
 Framework group  C1[X(Ca2O3P)]
 Deg. of freedom    12
 Full point group                 C1
 Largest Abelian subgroup         C1      NOp   1
 Largest concise Abelian subgroup C1      NOp   1
                         Standard orientation:                         
 ---------------------------------------------------------------------
 Center     Atomic     Atomic              Coordinates (Angstroms)
 Number     Number      Type              X           Y           Z
 ---------------------------------------------------------------------
    1          8             0       -1.272886    1.281834   -0.000039
    2          8             0        1.281283    1.274175    0.000075
    3          8             0       -0.006046   -1.917421   -0.000014
    4         15             0        0.006804    2.150405   -0.000016
    5         20             0       -1.874777   -0.928340    0.000017
    6         20             0        1.868734   -0.939899   -0.000014
 ---------------------------------------------------------------------
 Rotational constants (GHZ):      1.5598157      1.5213448      0.7701700
 Standard basis: 6-31+G(d,p) (6D, 7F)
 There are   134 symmetry adapted basis functions of A   symmetry.
 Integral buffers will be    131072 words long.
 Raffenetti 2 integral format.
 Two-electron integral symmetry is turned on.
   134 basis functions,   312 primitive gaussians,   134 cartesian basis functions
    39 alpha electrons       39 beta electrons
       nuclear repulsion energy       473.2308311617 Hartrees.
 NAtoms=    6 NActive=    6 NUniq=    6 SFac= 7.50D-01 NAtFMM=   80 NAOKFM=F Big=F
 One-electron integrals computed using PRISM.
 NBasis=   134 RedAO= T  NBF=   134
 NBsUse=   134 1.00D-06 NBFU=   134
 Harris functional with IExCor=  402 diagonalized for initial guess.
 ExpMin= 7.10D-03 ExpMax= 3.53D+04 ExpMxC= 5.30D+03 IAcc=3 IRadAn=         5 AccDes= 0.00D+00
 HarFok:  IExCor= 402 AccDes= 0.00D+00 IRadAn=         5 IDoV=1
 ScaDFX=  1.000000  1.000000  1.000000  1.000000
 Initial guess orbital symmetries:
       Occupied  (A) (A) (A) (A) (A) (A) (A) (A) (A) (A) (A) (A)
                 (A) (A) (A) (A) (A) (A) (A) (A) (A) (A) (A) (A)
                 (A) (A) (A) (A) (A) (A) (A) (A) (A) (A) (A) (A)
                 (A) (A) (A)
       Virtual   (A) (A) (A) (A) (A) (A) (A) (A) (A) (A) (A) (A)
                 (A) (A) (A) (A) (A) (A) (A) (A) (A) (A) (A) (A)
                 (A) (A) (A) (A) (A) (A) (A) (A) (A) (A) (A) (A)
                 (A) (A) (A) (A) (A) (A) (A) (A) (A) (A) (A) (A)
                 (A) (A) (A) (A) (A) (A) (A) (A) (A) (A) (A) (A)
                 (A) (A) (A) (A) (A) (A) (A) (A) (A) (A) (A) (A)
                 (A) (A) (A) (A) (A) (A) (A) (A) (A) (A) (A) (A)
                 (A) (A) (A) (A) (A) (A) (A) (A) (A) (A) (A)
 The electronic state of the initial guess is 1-A.
 Requested convergence on RMS density matrix=1.00D-04 within 128 cycles.
 Requested convergence on MAX density matrix=1.00D-02.
 Requested convergence on             energy=1.00D-02.
 No special actions if energy rises.
 Keep R1 integrals in memory in canonical form, NReq=    43203134.
 EnCoef did     4 forward-backward iterations
 SCF Done:  E(RB+HF-LYP) =  -1922.13413625     A.U. after    7 cycles
             Convg  =    0.4815D-04             -V/T =  2.0029
             S**2   =   0.0000

 **********************************************************************

            Population analysis using the SCF density.

 **********************************************************************

 Orbital symmetries:
       Occupied  (A) (A) (A) (A) (A) (A) (A) (A) (A) (A) (A) (A)
                 (A) (A) (A) (A) (A) (A) (A) (A) (A) (A) (A) (A)
                 (A) (A) (A) (A) (A) (A) (A) (A) (A) (A) (A) (A)
                 (A) (A) (A)
       Virtual   (A) (A) (A) (A) (A) (A) (A) (A) (A) (A) (A) (A)
                 (A) (A) (A) (A) (A) (A) (A) (A) (A) (A) (A) (A)
                 (A) (A) (A) (A) (A) (A) (A) (A) (A) (A) (A) (A)
                 (A) (A) (A) (A) (A) (A) (A) (A) (A) (A) (A) (A)
                 (A) (A) (A) (A) (A) (A) (A) (A) (A) (A) (A) (A)
                 (A) (A) (A) (A) (A) (A) (A) (A) (A) (A) (A) (A)
                 (A) (A) (A) (A) (A) (A) (A) (A) (A) (A) (A) (A)
                 (A) (A) (A) (A) (A) (A) (A) (A) (A) (A) (A)
 The electronic state is 1-A.
 Alpha  occ. eigenvalues -- -145.52214-145.52213 -77.29923 -19.27734 -19.27722
 Alpha  occ. eigenvalues --  -19.15033 -15.59101 -15.59101 -12.72351 -12.72351
 Alpha  occ. eigenvalues --  -12.72276 -12.72276 -12.72178 -12.72176  -6.75405
 Alpha  occ. eigenvalues --   -4.91848  -4.91627  -4.91187  -1.96271  -1.96251
 Alpha  occ. eigenvalues --   -1.24081  -1.24060  -1.23941  -1.23741  -1.23414
 Alpha  occ. eigenvalues --   -1.22888  -1.13629  -1.08320  -0.89400  -0.67424
 Alpha  occ. eigenvalues --   -0.56976  -0.52454  -0.52384  -0.45559  -0.43663
 Alpha  occ. eigenvalues --   -0.40560  -0.35632  -0.33617  -0.33420
 Alpha virt. eigenvalues --   -0.20920  -0.19677  -0.19651  -0.12836  -0.11779
 Alpha virt. eigenvalues --   -0.11636  -0.10826  -0.10187  -0.07820  -0.07313
 Alpha virt. eigenvalues --   -0.06401  -0.05944  -0.05384  -0.04881  -0.04593
 Alpha virt. eigenvalues --   -0.04467  -0.04404  -0.04222  -0.04053  -0.03404
 Alpha virt. eigenvalues --   -0.02371   0.00300   0.01352   0.02135   0.03099
 Alpha virt. eigenvalues --    0.03997   0.04043   0.04412   0.05016   0.05444
 Alpha virt. eigenvalues --    0.05774   0.06864   0.07328   0.07502   0.07938
 Alpha virt. eigenvalues --    0.08482   0.09744   0.10526   0.14242   0.15054
 Alpha virt. eigenvalues --    0.17275   0.18361   0.19369   0.21142   0.22045
 Alpha virt. eigenvalues --    0.23439   0.25026   0.27306   0.30126   0.31652
 Alpha virt. eigenvalues --    0.31766   0.36714   0.37709   0.44098   0.45632
 Alpha virt. eigenvalues --    0.47692   0.56683   0.57494   0.62249   0.63255
 Alpha virt. eigenvalues --    0.64976   0.82593   0.90723   0.94486   1.05956
 Alpha virt. eigenvalues --    1.06293   1.07844   1.12511   1.15948   1.16932
 Alpha virt. eigenvalues --    1.22248   1.22558   1.24774   1.37409   1.39839
 Alpha virt. eigenvalues --    1.43141   1.66272   1.66506   1.71131   1.71639
 Alpha virt. eigenvalues --    1.80317   1.81393   1.82301   1.85279   1.85689
 Alpha virt. eigenvalues --    1.86394   1.93722   1.97761   2.08916   2.53571
 Alpha virt. eigenvalues --    2.67733   3.38670   3.82233   3.89923   3.93563
          Condensed to atoms (all electrons):
              1          2          3          4          5          6
     1  O    8.836788  -0.080753   0.000943  -0.109633   0.068048   0.000823
     2  O   -0.080753   8.836926   0.000959  -0.109613   0.000832   0.068054
     3  O    0.000943   0.000959   8.751313  -0.013043   0.229786   0.229798
     4  P   -0.109633  -0.109613  -0.013043  14.595008  -0.018717  -0.018730
     5  Ca   0.068048   0.000832   0.229786  -0.018717  18.247930  -0.006707
     6  Ca   0.000823   0.068054   0.229798  -0.018730  -0.006707  18.247943
 Mulliken atomic charges:
              1
     1  O   -0.716216
     2  O   -0.716406
     3  O   -1.199754
     4  P    0.674728
     5  Ca   1.478829
     6  Ca   1.478819
 Sum of Mulliken charges=   1.00000
 Atomic charges with hydrogens summed into heavy atoms:
              1
     1  O   -0.716216
     2  O   -0.716406
     3  O   -1.199754
     4  P    0.674728
     5  Ca   1.478829
     6  Ca   1.478819
 Sum of Mulliken charges=   1.00000
 Electronic spatial extent (au):  <R**2>=  1251.4513
 Charge=     1.0000 electrons
 Dipole moment (field-independent basis, Debye):
    X=    -0.0154    Y=    -3.9088    Z=     0.0000  Tot=     3.9088
 Quadrupole moment (field-independent basis, Debye-Ang):
   XX=    -5.5355   YY=   -61.9097   ZZ=   -49.7214
   XY=    -0.1770   XZ=    -0.0010   YZ=    -0.0003
 Traceless Quadrupole moment (field-independent basis, Debye-Ang):
   XX=    33.5200   YY=   -22.8541   ZZ=   -10.6659
   XY=    -0.1770   XZ=    -0.0010   YZ=    -0.0003
 Octapole moment (field-independent basis, Debye-Ang**2):
  XXX=    -0.7576  YYY=    16.7440  ZZZ=     0.0002  XYY=     0.5287
  XXY=   -77.7700  XXZ=    -0.0001  XZZ=    -0.0152  YZZ=    -4.6391
  YYZ=     0.0006  XYZ=    -0.0002
 Hexadecapole moment (field-independent basis, Debye-Ang**3):
 XXXX=  -358.8646 YYYY=  -875.2871 ZZZZ=   -56.5363 XXXY=    -0.6452
 XXXZ=    -0.0039 YYYX=    -1.0355 YYYZ=     0.0003 ZZZX=    -0.0015
 ZZZY=    -0.0002 XXYY=  -185.4857 XXZZ=   -96.5895 YYZZ=  -139.1250
 XXYZ=    -0.0005 YYXZ=    -0.0016 ZZXY=    -0.1449
 N-N= 4.732308311617D+02 E-N=-5.489469623631D+03  KE= 1.916553003291D+03
 Merz-Kollman atomic radii used.
 Read replacement radii for each type of atom:
 Rad(20) =   1.188000000000D+00
 Atom Element Radius
    1     8    1.40
    2     8    1.40
    3     8    1.40
    4    15    1.80
    5    20    1.19
    6    20    1.19

 **********************************************************************

            Electrostatic Properties Using The SCF Density

 **********************************************************************

       Atomic Center    1 is at  -1.272886  1.281834 -0.000039
       Atomic Center    2 is at   1.281283  1.274175  0.000075
       Atomic Center    3 is at  -0.006046 -1.917421 -0.000014
       Atomic Center    4 is at   0.006804  2.150405 -0.000016
       Atomic Center    5 is at  -1.874777 -0.928340  0.000017
       Atomic Center    6 is at   1.868734 -0.939899 -0.000014
     667 points will be used for fitting atomic charges
 Fitting point charges to eletrostatic potential
 Charges from ESP fit, RMS=   0.00501 RRMS=   0.03146:
 Charge=   1.00000 Dipole=    -0.0190    -3.9195     0.0000 Tot=     3.9195
              1
     1  O   -0.735694
     2  O   -0.739783
     3  O   -1.528902
     4  P    0.609064
     5  Ca   1.696502
     6  Ca   1.698814
 -----------------------------------------------------------------

              Electrostatic Properties (Atomic Units)

 -----------------------------------------------------------------
    Center     Electric         -------- Electric Field --------
               Potential          X             Y             Z
 -----------------------------------------------------------------
    1 Atom    -22.186239
    2 Atom    -22.186596
    3 Atom    -22.310647
    4 Atom    -53.918226
    5 Atom    -80.019150
    6 Atom    -80.019183
 -----------------------------------------------------------------
 1\1\GINC-N022\SP\RB3LYP\6-31+G(d,p)\Ca2O3P1(1+)\TIMN\12-Jun-2015\0\\# 
 b3lyp/6-31+G(d,p) int=ultrafine pop=(ReadRadii,MK)\\Ca2PO3_11.mol2_plu
 sQcc.out.z51531.zip.xyz\\1,1\O,0,1.2535,1.29811,-0.0135\O,0,-1.30027,1
 .25334,-0.00386\O,0,0.03338,-1.91912,0.01572\P,0,-0.03869,2.14797,-0.0
 153\Ca,0,1.8875,-0.90302,0.00104\Ca,0,-1.85542,-0.96897,0.01537\\Versi
 on=EM64T-G03RevE.01\State=1-A\HF=-1922.1341362\RMSD=4.815e-05\Thermal=
 0.\Dipole=0.0284652,-1.5375399,0.011719\PG=C01 [X(Ca2O3P1)]\\@


 You don't have to suffer to be a poet.
 Adolescence is enough suffering for anyone.
                             -- John Ciardi
 Job cpu time:  0 days  0 hours  0 minutes 30.0 seconds.
 File lengths (MBytes):  RWF=     22 Int=      0 D2E=      0 Chk=     10 Scr=      1
 Normal termination of Gaussian 03 at Fri Jun 12 17:34:36 2015.
