 Entering Gaussian System, Link 0=/home/timn/tmp/g03.e01/g03
 Input=Ca2PO3_16.mol2c_plusQ.out.z51535.zip.xyz.gjf
 Output=Ca2PO3_16.mol2c_plusQ.out.z51535.zip.xyz.out
 Initial command:
 /home/timn/tmp/g03.e01/l1.exe /home/timn/tmp/g03.e01/Gau-18258.inp -scrdir=/home/timn/tmp/g03.e01/
 Default is to use a total of   2 processors:
                                2 via shared-memory
                                1 via Linda
 Entering Link 1 = /home/timn/tmp/g03.e01/l1.exe PID=     18259.
  
 Copyright (c) 1988,1990,1992,1993,1995,1998,2003,2004,2007, Gaussian, Inc.
                  All Rights Reserved.
  
 This is the Gaussian(R) 03 program.  It is based on the
 the Gaussian(R) 98 system (copyright 1998, Gaussian, Inc.),
 the Gaussian(R) 94 system (copyright 1995, Gaussian, Inc.),
 the Gaussian 92(TM) system (copyright 1992, Gaussian, Inc.),
 the Gaussian 90(TM) system (copyright 1990, Gaussian, Inc.),
 the Gaussian 88(TM) system (copyright 1988, Gaussian, Inc.),
 the Gaussian 86(TM) system (copyright 1986, Carnegie Mellon
 University), and the Gaussian 82(TM) system (copyright 1983,
 Carnegie Mellon University). Gaussian is a federally registered
 trademark of Gaussian, Inc.
  
 This software contains proprietary and confidential information,
 including trade secrets, belonging to Gaussian, Inc.
  
 This software is provided under written license and may be
 used, copied, transmitted, or stored only in accord with that
 written license.
  
 The following legend is applicable only to US Government
 contracts under FAR:
  
                    RESTRICTED RIGHTS LEGEND
  
 Use, reproduction and disclosure by the US Government is
 subject to restrictions as set forth in subparagraphs (a)
 and (c) of the Commercial Computer Software - Restricted
 Rights clause in FAR 52.227-19.
  
 Gaussian, Inc.
 340 Quinnipiac St., Bldg. 40, Wallingford CT 06492
  
  
 ---------------------------------------------------------------
 Warning -- This program may not be used in any manner that
 competes with the business of Gaussian, Inc. or will provide
 assistance to any competitor of Gaussian, Inc.  The licensee
 of this program is prohibited from giving any competitor of
 Gaussian, Inc. access to this program.  By using this program,
 the user acknowledges that Gaussian, Inc. is engaged in the
 business of creating and licensing software in the field of
 computational chemistry and represents and warrants to the
 licensee that it is not a competitor of Gaussian, Inc. and that
 it will not use this program in any manner prohibited above.
 ---------------------------------------------------------------
  

 Cite this work as:
 Gaussian 03, Revision E.01,
 M. J. Frisch, G. W. Trucks, H. B. Schlegel, G. E. Scuseria, 
 M. A. Robb, J. R. Cheeseman, J. A. Montgomery, Jr., T. Vreven, 
 K. N. Kudin, J. C. Burant, J. M. Millam, S. S. Iyengar, J. Tomasi, 
 V. Barone, B. Mennucci, M. Cossi, G. Scalmani, N. Rega, 
 G. A. Petersson, H. Nakatsuji, M. Hada, M. Ehara, K. Toyota, 
 R. Fukuda, J. Hasegawa, M. Ishida, T. Nakajima, Y. Honda, O. Kitao, 
 H. Nakai, M. Klene, X. Li, J. E. Knox, H. P. Hratchian, J. B. Cross, 
 V. Bakken, C. Adamo, J. Jaramillo, R. Gomperts, R. E. Stratmann, 
 O. Yazyev, A. J. Austin, R. Cammi, C. Pomelli, J. W. Ochterski, 
 P. Y. Ayala, K. Morokuma, G. A. Voth, P. Salvador, J. J. Dannenberg, 
 V. G. Zakrzewski, S. Dapprich, A. D. Daniels, M. C. Strain, 
 O. Farkas, D. K. Malick, A. D. Rabuck, K. Raghavachari, 
 J. B. Foresman, J. V. Ortiz, Q. Cui, A. G. Baboul, S. Clifford, 
 J. Cioslowski, B. B. Stefanov, G. Liu, A. Liashenko, P. Piskorz, 
 I. Komaromi, R. L. Martin, D. J. Fox, T. Keith, M. A. Al-Laham, 
 C. Y. Peng, A. Nanayakkara, M. Challacombe, P. M. W. Gill, 
 B. Johnson, W. Chen, M. W. Wong, C. Gonzalez, and J. A. Pople, 
 Gaussian, Inc., Wallingford CT, 2004.
 
 ******************************************
 Gaussian 03:  EM64T-G03RevE.01 11-Sep-2007
                12-Jun-2015 
 ******************************************
 %nproc=2
 Will use up to    2 processors via shared memory.
 Default route:  MP2=Direct MaxDisk=2000MB
 ----------------------------------------------------
 # b3lyp/6-31+G(d,p) int=ultrafine pop=(ReadRadii,MK)
 ----------------------------------------------------

 Warning!  SCF SP cutoffs with diffuse functions may be unreliable.
 Consider SCF=Tight

 1/38=1/1;
 2/17=6,18=5,40=1/2;
 3/5=1,6=6,7=111,11=2,16=1,25=1,30=1,74=-5,75=5/1,2,3;
 4//1;
 5/5=2,32=1,38=5/2;
 6/7=2,8=2,9=2,10=2,15=8,20=101,28=1/1,2;
 99/5=1,9=1/99;
 ----------------------------------------
 Ca2PO3_16.mol2c_plusQ.out.z51535.zip.xyz
 ----------------------------------------
 Symbolic Z-matrix:
 Charge =  1 Multiplicity = 1
 O                     1.41148   0.86231  -0.78429 
 O                    -0.78346  -1.10185  -0.00004 
 O                     1.41127   0.86213   0.78454 
 P                    -2.34304  -0.80193   0.00003 
 Ca                   -0.57182   1.56406  -0.00006 
 Ca                    1.51339  -1.21165  -0.00005 
 
                          Input orientation:                          
 ---------------------------------------------------------------------
 Center     Atomic     Atomic              Coordinates (Angstroms)
 Number     Number      Type              X           Y           Z
 ---------------------------------------------------------------------
    1          8             0        1.411480    0.862310   -0.784290
    2          8             0       -0.783460   -1.101850   -0.000040
    3          8             0        1.411270    0.862130    0.784540
    4         15             0       -2.343040   -0.801930    0.000030
    5         20             0       -0.571820    1.564060   -0.000060
    6         20             0        1.513390   -1.211650   -0.000050
 ---------------------------------------------------------------------
                    Distance matrix (angstroms):
                    1          2          3          4          5
     1  O    0.000000
     2  O    3.048071   0.000000
     3  O    1.568830   3.047888   0.000000
     4  P    4.181061   1.588157   4.180837   0.000000
     5  Ca   2.245206   2.674298   2.245206   2.955525   0.000000
     6  Ca   2.219623   2.299473   2.219589   3.878134   3.471695
                    6
     6  Ca   0.000000
 Stoichiometry    Ca2O3P(1+)
 Framework group  C1[X(Ca2O3P)]
 Deg. of freedom    12
 Full point group                 C1
 Largest Abelian subgroup         C1      NOp   1
 Largest concise Abelian subgroup C1      NOp   1
                         Standard orientation:                         
 ---------------------------------------------------------------------
 Center     Atomic     Atomic              Coordinates (Angstroms)
 Number     Number      Type              X           Y           Z
 ---------------------------------------------------------------------
    1          8             0        1.411476    0.862315   -0.784289
    2          8             0       -0.783458   -1.101852   -0.000039
    3          8             0        1.411266    0.862135    0.784541
    4         15             0       -2.343039   -0.801937    0.000031
    5         20             0       -0.571826    1.564059   -0.000059
    6         20             0        1.513392   -1.211645   -0.000049
 ---------------------------------------------------------------------
 Rotational constants (GHZ):      2.1127875      1.3738552      0.8902414
 Standard basis: 6-31+G(d,p) (6D, 7F)
 There are   134 symmetry adapted basis functions of A   symmetry.
 Integral buffers will be    131072 words long.
 Raffenetti 2 integral format.
 Two-electron integral symmetry is turned on.
   134 basis functions,   312 primitive gaussians,   134 cartesian basis functions
    39 alpha electrons       39 beta electrons
       nuclear repulsion energy       489.9847483626 Hartrees.
 NAtoms=    6 NActive=    6 NUniq=    6 SFac= 7.50D-01 NAtFMM=   80 NAOKFM=F Big=F
 One-electron integrals computed using PRISM.
 NBasis=   134 RedAO= T  NBF=   134
 NBsUse=   134 1.00D-06 NBFU=   134
 Harris functional with IExCor=  402 diagonalized for initial guess.
 ExpMin= 7.10D-03 ExpMax= 3.53D+04 ExpMxC= 5.30D+03 IAcc=3 IRadAn=         5 AccDes= 0.00D+00
 HarFok:  IExCor= 402 AccDes= 0.00D+00 IRadAn=         5 IDoV=1
 ScaDFX=  1.000000  1.000000  1.000000  1.000000
 Initial guess orbital symmetries:
       Occupied  (A) (A) (A) (A) (A) (A) (A) (A) (A) (A) (A) (A)
                 (A) (A) (A) (A) (A) (A) (A) (A) (A) (A) (A) (A)
                 (A) (A) (A) (A) (A) (A) (A) (A) (A) (A) (A) (A)
                 (A) (A) (A)
       Virtual   (A) (A) (A) (A) (A) (A) (A) (A) (A) (A) (A) (A)
                 (A) (A) (A) (A) (A) (A) (A) (A) (A) (A) (A) (A)
                 (A) (A) (A) (A) (A) (A) (A) (A) (A) (A) (A) (A)
                 (A) (A) (A) (A) (A) (A) (A) (A) (A) (A) (A) (A)
                 (A) (A) (A) (A) (A) (A) (A) (A) (A) (A) (A) (A)
                 (A) (A) (A) (A) (A) (A) (A) (A) (A) (A) (A) (A)
                 (A) (A) (A) (A) (A) (A) (A) (A) (A) (A) (A) (A)
                 (A) (A) (A) (A) (A) (A) (A) (A) (A) (A) (A)
 The electronic state of the initial guess is 1-A.
 Requested convergence on RMS density matrix=1.00D-04 within 128 cycles.
 Requested convergence on MAX density matrix=1.00D-02.
 Requested convergence on             energy=1.00D-02.
 No special actions if energy rises.
 Keep R1 integrals in memory in canonical form, NReq=    43203120.
 EnCoef did    12 forward-backward iterations
 EnCoef did    18 forward-backward iterations
 EnCoef did    19 forward-backward iterations
 EnCoef did     2 forward-backward iterations
 SCF Done:  E(RB+HF-LYP) =  -1921.96553616     A.U. after   11 cycles
             Convg  =    0.2427D-04             -V/T =  2.0028
             S**2   =   0.0000

 **********************************************************************

            Population analysis using the SCF density.

 **********************************************************************

 Orbital symmetries:
       Occupied  (A) (A) (A) (A) (A) (A) (A) (A) (A) (A) (A) (A)
                 (A) (A) (A) (A) (A) (A) (A) (A) (A) (A) (A) (A)
                 (A) (A) (A) (A) (A) (A) (A) (A) (A) (A) (A) (A)
                 (A) (A) (A)
       Virtual   (A) (A) (A) (A) (A) (A) (A) (A) (A) (A) (A) (A)
                 (A) (A) (A) (A) (A) (A) (A) (A) (A) (A) (A) (A)
                 (A) (A) (A) (A) (A) (A) (A) (A) (A) (A) (A) (A)
                 (A) (A) (A) (A) (A) (A) (A) (A) (A) (A) (A) (A)
                 (A) (A) (A) (A) (A) (A) (A) (A) (A) (A) (A) (A)
                 (A) (A) (A) (A) (A) (A) (A) (A) (A) (A) (A) (A)
                 (A) (A) (A) (A) (A) (A) (A) (A) (A) (A) (A) (A)
                 (A) (A) (A) (A) (A) (A) (A) (A) (A) (A) (A)
 The electronic state is 1-A.
 Alpha  occ. eigenvalues -- -145.54744-145.52687 -77.26758 -19.30982 -19.25319
 Alpha  occ. eigenvalues --  -19.25226 -15.61535 -15.59591 -12.74746 -12.74724
 Alpha  occ. eigenvalues --  -12.74669 -12.72812 -12.72804 -12.72668  -6.73047
 Alpha  occ. eigenvalues --   -4.89765  -4.89256  -4.88381  -1.98607  -1.96739
 Alpha  occ. eigenvalues --   -1.26673  -1.26094  -1.26084  -1.24418  -1.24318
 Alpha  occ. eigenvalues --   -1.23958  -1.12536  -1.08065  -0.89153  -0.69198
 Alpha  occ. eigenvalues --   -0.52589  -0.51460  -0.51365  -0.48689  -0.47476
 Alpha  occ. eigenvalues --   -0.45499  -0.36418  -0.34059  -0.31406
 Alpha virt. eigenvalues --   -0.25626  -0.21655  -0.19467  -0.14855  -0.13247
 Alpha virt. eigenvalues --   -0.11989  -0.11078  -0.10309  -0.09024  -0.08430
 Alpha virt. eigenvalues --   -0.07495  -0.06698  -0.05876  -0.05587  -0.05460
 Alpha virt. eigenvalues --   -0.04637  -0.04453  -0.04278  -0.04042  -0.03379
 Alpha virt. eigenvalues --   -0.03006  -0.00376  -0.00064   0.01698   0.01931
 Alpha virt. eigenvalues --    0.02662   0.02786   0.03100   0.04414   0.05321
 Alpha virt. eigenvalues --    0.05329   0.05694   0.06371   0.07000   0.07684
 Alpha virt. eigenvalues --    0.08849   0.11788   0.13103   0.13166   0.14332
 Alpha virt. eigenvalues --    0.15152   0.15382   0.16782   0.19687   0.19874
 Alpha virt. eigenvalues --    0.25031   0.26186   0.29084   0.30368   0.31671
 Alpha virt. eigenvalues --    0.32054   0.34567   0.35426   0.38032   0.44898
 Alpha virt. eigenvalues --    0.46907   0.52072   0.54509   0.57713   0.58278
 Alpha virt. eigenvalues --    0.62819   0.71513   0.87304   1.00824   1.04226
 Alpha virt. eigenvalues --    1.09383   1.10481   1.12940   1.13575   1.14337
 Alpha virt. eigenvalues --    1.16361   1.24094   1.27973   1.36217   1.47993
 Alpha virt. eigenvalues --    1.49768   1.53968   1.62448   1.67303   1.71353
 Alpha virt. eigenvalues --    1.73818   1.79014   1.79441   1.81276   1.86005
 Alpha virt. eigenvalues --    1.87323   1.92294   2.16613   2.18227   2.49462
 Alpha virt. eigenvalues --    3.01238   3.36213   3.83664   4.00681   4.08246
          Condensed to atoms (all electrons):
              1          2          3          4          5          6
     1  O    8.478228   0.000847  -0.034687  -0.007919   0.101401   0.104113
     2  O    0.000847   9.031198   0.000875  -0.433157  -0.047480   0.038257
     3  O   -0.034687   0.000875   8.480604  -0.007916   0.101183   0.103924
     4  P   -0.007919  -0.433157  -0.007916  15.159720   0.231940   0.017718
     5  Ca   0.101401  -0.047480   0.101183   0.231940  18.308037  -0.017859
     6  Ca   0.104113   0.038257   0.103924   0.017718  -0.017859  18.239735
 Mulliken atomic charges:
              1
     1  O   -0.641982
     2  O   -0.590539
     3  O   -0.643982
     4  P    0.039614
     5  Ca   1.322777
     6  Ca   1.514112
 Sum of Mulliken charges=   1.00000
 Atomic charges with hydrogens summed into heavy atoms:
              1
     1  O   -0.641982
     2  O   -0.590539
     3  O   -0.643982
     4  P    0.039614
     5  Ca   1.322777
     6  Ca   1.514112
 Sum of Mulliken charges=   1.00000
 Electronic spatial extent (au):  <R**2>=  1135.5843
 Charge=     1.0000 electrons
 Dipole moment (field-independent basis, Debye):
    X=     1.0349    Y=    -1.9092    Z=    -0.0091  Tot=     2.1717
 Quadrupole moment (field-independent basis, Debye-Ang):
   XX=   -46.4862   YY=   -30.0493   ZZ=   -53.7923
   XY=   -29.3190   XZ=    -0.0111   YZ=    -0.0070
 Traceless Quadrupole moment (field-independent basis, Debye-Ang):
   XX=    -3.0436   YY=    13.3933   ZZ=   -10.3497
   XY=   -29.3190   XZ=    -0.0111   YZ=    -0.0070
 Octapole moment (field-independent basis, Debye-Ang**2):
  XXX=    43.2936  YYY=    24.3273  ZZZ=    -0.0095  XYY=    20.9291
  XXY=   -34.1446  XXZ=    -0.0155  XZZ=    -0.4961  YZZ=    -4.9274
  YYZ=    -0.0061  XYZ=    -0.0085
 Hexadecapole moment (field-independent basis, Debye-Ang**3):
 XXXX=  -803.4635 YYYY=  -368.0196 ZZZZ=  -103.4049 XXXY=  -120.2798
 XXXZ=    -0.0051 YYYX=  -126.3927 YYYZ=     0.0031 ZZZX=    -0.0105
 ZZZY=    -0.0075 XXYY=  -206.0690 XXZZ=  -153.1833 YYZZ=   -89.7939
 XXYZ=    -0.0085 YYXZ=    -0.0028 ZZXY=   -22.7556
 N-N= 4.899847483626D+02 E-N=-5.522097403552D+03  KE= 1.916516707549D+03
 Merz-Kollman atomic radii used.
 Read replacement radii for each type of atom:
 Rad(20) =   1.188000000000D+00
 Atom Element Radius
    1     8    1.40
    2     8    1.40
    3     8    1.40
    4    15    1.80
    5    20    1.19
    6    20    1.19

 **********************************************************************

            Electrostatic Properties Using The SCF Density

 **********************************************************************

       Atomic Center    1 is at   1.411476  0.862315 -0.784289
       Atomic Center    2 is at  -0.783458 -1.101852 -0.000039
       Atomic Center    3 is at   1.411266  0.862135  0.784541
       Atomic Center    4 is at  -2.343039 -0.801937  0.000031
       Atomic Center    5 is at  -0.571826  1.564059 -0.000059
       Atomic Center    6 is at   1.513392 -1.211645 -0.000049
     707 points will be used for fitting atomic charges
 Fitting point charges to eletrostatic potential
 Charges from ESP fit, RMS=   0.00971 RRMS=   0.06141:
 Charge=   1.00000 Dipole=     0.9575    -1.5304    -0.0091 Tot=     1.8053
              1
     1  O   -0.709398
     2  O   -0.618738
     3  O   -0.711393
     4  P   -0.015585
     5  Ca   1.410046
     6  Ca   1.645068
 -----------------------------------------------------------------

              Electrostatic Properties (Atomic Units)

 -----------------------------------------------------------------
    Center     Electric         -------- Electric Field --------
               Potential          X             Y             Z
 -----------------------------------------------------------------
    1 Atom    -22.216146
    2 Atom    -22.153311
    3 Atom    -22.218968
    4 Atom    -53.951946
    5 Atom    -80.014388
    6 Atom    -79.992677
 -----------------------------------------------------------------
 1\1\GINC-N026\SP\RB3LYP\6-31+G(d,p)\Ca2O3P1(1+)\TIMN\12-Jun-2015\0\\# 
 b3lyp/6-31+G(d,p) int=ultrafine pop=(ReadRadii,MK)\\Ca2PO3_16.mol2c_pl
 usQ.out.z51535.zip.xyz\\1,1\O,0,1.41148,0.86231,-0.78429\O,0,-0.78346,
 -1.10185,-0.00004\O,0,1.41127,0.86213,0.78454\P,0,-2.34304,-0.80193,0.
 00003\Ca,0,-0.57182,1.56406,-0.00006\Ca,0,1.51339,-1.21165,-0.00005\\V
 ersion=EM64T-G03RevE.01\State=1-A\HF=-1921.9655362\RMSD=2.427e-05\Ther
 mal=0.\Dipole=0.4071494,-0.7511489,-0.0035948\PG=C01 [X(Ca2O3P1)]\\@


 YOU KNOW YOU'VE SPOKEN TOO LONG WHEN THE AUDIENCE STOPS LOOKING AT
 THEIR WATCHES AND STARTS SHAKING THEM.
 Job cpu time:  0 days  0 hours  0 minutes 41.1 seconds.
 File lengths (MBytes):  RWF=     22 Int=      0 D2E=      0 Chk=     10 Scr=      1
 Normal termination of Gaussian 03 at Fri Jun 12 17:34:46 2015.
