 Entering Gaussian System, Link 0=/home/timn/tmp/g03.e01/g03
 Input=Ca2PO3_27.mol2cc_plusQc.out.z51547.zip.xyz.gjf
 Output=Ca2PO3_27.mol2cc_plusQc.out.z51547.zip.xyz.out
 Initial command:
 /home/timn/tmp/g03.e01/l1.exe /home/timn/tmp/g03.e01/Gau-12904.inp -scrdir=/home/timn/tmp/g03.e01/
 Default is to use a total of   2 processors:
                                2 via shared-memory
                                1 via Linda
 Entering Link 1 = /home/timn/tmp/g03.e01/l1.exe PID=     12906.
  
 Copyright (c) 1988,1990,1992,1993,1995,1998,2003,2004,2007, Gaussian, Inc.
                  All Rights Reserved.
  
 This is the Gaussian(R) 03 program.  It is based on the
 the Gaussian(R) 98 system (copyright 1998, Gaussian, Inc.),
 the Gaussian(R) 94 system (copyright 1995, Gaussian, Inc.),
 the Gaussian 92(TM) system (copyright 1992, Gaussian, Inc.),
 the Gaussian 90(TM) system (copyright 1990, Gaussian, Inc.),
 the Gaussian 88(TM) system (copyright 1988, Gaussian, Inc.),
 the Gaussian 86(TM) system (copyright 1986, Carnegie Mellon
 University), and the Gaussian 82(TM) system (copyright 1983,
 Carnegie Mellon University). Gaussian is a federally registered
 trademark of Gaussian, Inc.
  
 This software contains proprietary and confidential information,
 including trade secrets, belonging to Gaussian, Inc.
  
 This software is provided under written license and may be
 used, copied, transmitted, or stored only in accord with that
 written license.
  
 The following legend is applicable only to US Government
 contracts under FAR:
  
                    RESTRICTED RIGHTS LEGEND
  
 Use, reproduction and disclosure by the US Government is
 subject to restrictions as set forth in subparagraphs (a)
 and (c) of the Commercial Computer Software - Restricted
 Rights clause in FAR 52.227-19.
  
 Gaussian, Inc.
 340 Quinnipiac St., Bldg. 40, Wallingford CT 06492
  
  
 ---------------------------------------------------------------
 Warning -- This program may not be used in any manner that
 competes with the business of Gaussian, Inc. or will provide
 assistance to any competitor of Gaussian, Inc.  The licensee
 of this program is prohibited from giving any competitor of
 Gaussian, Inc. access to this program.  By using this program,
 the user acknowledges that Gaussian, Inc. is engaged in the
 business of creating and licensing software in the field of
 computational chemistry and represents and warrants to the
 licensee that it is not a competitor of Gaussian, Inc. and that
 it will not use this program in any manner prohibited above.
 ---------------------------------------------------------------
  

 Cite this work as:
 Gaussian 03, Revision E.01,
 M. J. Frisch, G. W. Trucks, H. B. Schlegel, G. E. Scuseria, 
 M. A. Robb, J. R. Cheeseman, J. A. Montgomery, Jr., T. Vreven, 
 K. N. Kudin, J. C. Burant, J. M. Millam, S. S. Iyengar, J. Tomasi, 
 V. Barone, B. Mennucci, M. Cossi, G. Scalmani, N. Rega, 
 G. A. Petersson, H. Nakatsuji, M. Hada, M. Ehara, K. Toyota, 
 R. Fukuda, J. Hasegawa, M. Ishida, T. Nakajima, Y. Honda, O. Kitao, 
 H. Nakai, M. Klene, X. Li, J. E. Knox, H. P. Hratchian, J. B. Cross, 
 V. Bakken, C. Adamo, J. Jaramillo, R. Gomperts, R. E. Stratmann, 
 O. Yazyev, A. J. Austin, R. Cammi, C. Pomelli, J. W. Ochterski, 
 P. Y. Ayala, K. Morokuma, G. A. Voth, P. Salvador, J. J. Dannenberg, 
 V. G. Zakrzewski, S. Dapprich, A. D. Daniels, M. C. Strain, 
 O. Farkas, D. K. Malick, A. D. Rabuck, K. Raghavachari, 
 J. B. Foresman, J. V. Ortiz, Q. Cui, A. G. Baboul, S. Clifford, 
 J. Cioslowski, B. B. Stefanov, G. Liu, A. Liashenko, P. Piskorz, 
 I. Komaromi, R. L. Martin, D. J. Fox, T. Keith, M. A. Al-Laham, 
 C. Y. Peng, A. Nanayakkara, M. Challacombe, P. M. W. Gill, 
 B. Johnson, W. Chen, M. W. Wong, C. Gonzalez, and J. A. Pople, 
 Gaussian, Inc., Wallingford CT, 2004.
 
 ******************************************
 Gaussian 03:  EM64T-G03RevE.01 11-Sep-2007
                12-Jun-2015 
 ******************************************
 %nproc=2
 Will use up to    2 processors via shared memory.
 Default route:  MP2=Direct MaxDisk=2000MB
 ----------------------------------------------------
 # b3lyp/6-31+G(d,p) int=ultrafine pop=(ReadRadii,MK)
 ----------------------------------------------------

 Warning!  SCF SP cutoffs with diffuse functions may be unreliable.
 Consider SCF=Tight

 1/38=1/1;
 2/17=6,18=5,40=1/2;
 3/5=1,6=6,7=111,11=2,16=1,25=1,30=1,74=-5,75=5/1,2,3;
 4//1;
 5/5=2,32=1,38=5/2;
 6/7=2,8=2,9=2,10=2,15=8,20=101,28=1/1,2;
 99/5=1,9=1/99;
 ------------------------------------------
 Ca2PO3_27.mol2cc_plusQc.out.z51547.zip.xyz
 ------------------------------------------
 Symbolic Z-matrix:
 Charge =  1 Multiplicity = 1
 O                     1.28705   1.26866  -0.00034 
 O                    -1.26699   1.2871    0.00133 
 O                    -0.0145   -1.91696  -0.00041 
 P                     0.01632   2.15024  -0.00045 
 Ca                    1.86467  -0.94793   0.00028 
 Ca                   -1.87913  -0.92027  -0.00017 
 
                          Input orientation:                          
 ---------------------------------------------------------------------
 Center     Atomic     Atomic              Coordinates (Angstroms)
 Number     Number      Type              X           Y           Z
 ---------------------------------------------------------------------
    1          8             0        1.287050    1.268660   -0.000340
    2          8             0       -1.266990    1.287100    0.001330
    3          8             0       -0.014500   -1.916960   -0.000410
    4         15             0        0.016320    2.150240   -0.000450
    5         20             0        1.864670   -0.947930    0.000280
    6         20             0       -1.879130   -0.920270   -0.000170
 ---------------------------------------------------------------------
                    Distance matrix (angstroms):
                    1          2          3          4          5
     1  O    0.000000
     2  O    2.554107   0.000000
     3  O    3.441251   3.440165   0.000000
     4  P    1.546589   1.546576   4.067317   0.000000
     5  Ca   2.290615   3.847422   2.114308   3.607639   0.000000
     6  Ca   3.849170   2.290677   2.114293   3.608429   3.743902
                    6
     6  Ca   0.000000
 Stoichiometry    Ca2O3P(1+)
 Framework group  C1[X(Ca2O3P)]
 Deg. of freedom    12
 Full point group                 C1
 Largest Abelian subgroup         C1      NOp   1
 Largest concise Abelian subgroup C1      NOp   1
                         Standard orientation:                         
 ---------------------------------------------------------------------
 Center     Atomic     Atomic              Coordinates (Angstroms)
 Number     Number      Type              X           Y           Z
 ---------------------------------------------------------------------
    1          8             0        1.287057    1.268652   -0.000341
    2          8             0       -1.266983    1.287108    0.001329
    3          8             0       -0.014513   -1.916960   -0.000411
    4         15             0        0.016333    2.150240   -0.000451
    5         20             0        1.864663   -0.947942    0.000279
    6         20             0       -1.879137   -0.920258   -0.000171
 ---------------------------------------------------------------------
 Rotational constants (GHZ):      1.5600496      1.5210980      0.7701639
 Standard basis: 6-31+G(d,p) (6D, 7F)
 There are   134 symmetry adapted basis functions of A   symmetry.
 Integral buffers will be    131072 words long.
 Raffenetti 2 integral format.
 Two-electron integral symmetry is turned on.
   134 basis functions,   312 primitive gaussians,   134 cartesian basis functions
    39 alpha electrons       39 beta electrons
       nuclear repulsion energy       473.2337340726 Hartrees.
 NAtoms=    6 NActive=    6 NUniq=    6 SFac= 7.50D-01 NAtFMM=   80 NAOKFM=F Big=F
 One-electron integrals computed using PRISM.
 NBasis=   134 RedAO= T  NBF=   134
 NBsUse=   134 1.00D-06 NBFU=   134
 Harris functional with IExCor=  402 diagonalized for initial guess.
 ExpMin= 7.10D-03 ExpMax= 3.53D+04 ExpMxC= 5.30D+03 IAcc=3 IRadAn=         5 AccDes= 0.00D+00
 HarFok:  IExCor= 402 AccDes= 0.00D+00 IRadAn=         5 IDoV=1
 ScaDFX=  1.000000  1.000000  1.000000  1.000000
 Initial guess orbital symmetries:
       Occupied  (A) (A) (A) (A) (A) (A) (A) (A) (A) (A) (A) (A)
                 (A) (A) (A) (A) (A) (A) (A) (A) (A) (A) (A) (A)
                 (A) (A) (A) (A) (A) (A) (A) (A) (A) (A) (A) (A)
                 (A) (A) (A)
       Virtual   (A) (A) (A) (A) (A) (A) (A) (A) (A) (A) (A) (A)
                 (A) (A) (A) (A) (A) (A) (A) (A) (A) (A) (A) (A)
                 (A) (A) (A) (A) (A) (A) (A) (A) (A) (A) (A) (A)
                 (A) (A) (A) (A) (A) (A) (A) (A) (A) (A) (A) (A)
                 (A) (A) (A) (A) (A) (A) (A) (A) (A) (A) (A) (A)
                 (A) (A) (A) (A) (A) (A) (A) (A) (A) (A) (A) (A)
                 (A) (A) (A) (A) (A) (A) (A) (A) (A) (A) (A) (A)
                 (A) (A) (A) (A) (A) (A) (A) (A) (A) (A) (A)
 The electronic state of the initial guess is 1-A.
 Requested convergence on RMS density matrix=1.00D-04 within 128 cycles.
 Requested convergence on MAX density matrix=1.00D-02.
 Requested convergence on             energy=1.00D-02.
 No special actions if energy rises.
 Keep R1 integrals in memory in canonical form, NReq=    43203134.
 EnCoef did     4 forward-backward iterations
 SCF Done:  E(RB+HF-LYP) =  -1922.13413613     A.U. after    7 cycles
             Convg  =    0.4822D-04             -V/T =  2.0029
             S**2   =   0.0000

 **********************************************************************

            Population analysis using the SCF density.

 **********************************************************************

 Orbital symmetries:
       Occupied  (A) (A) (A) (A) (A) (A) (A) (A) (A) (A) (A) (A)
                 (A) (A) (A) (A) (A) (A) (A) (A) (A) (A) (A) (A)
                 (A) (A) (A) (A) (A) (A) (A) (A) (A) (A) (A) (A)
                 (A) (A) (A)
       Virtual   (A) (A) (A) (A) (A) (A) (A) (A) (A) (A) (A) (A)
                 (A) (A) (A) (A) (A) (A) (A) (A) (A) (A) (A) (A)
                 (A) (A) (A) (A) (A) (A) (A) (A) (A) (A) (A) (A)
                 (A) (A) (A) (A) (A) (A) (A) (A) (A) (A) (A) (A)
                 (A) (A) (A) (A) (A) (A) (A) (A) (A) (A) (A) (A)
                 (A) (A) (A) (A) (A) (A) (A) (A) (A) (A) (A) (A)
                 (A) (A) (A) (A) (A) (A) (A) (A) (A) (A) (A) (A)
                 (A) (A) (A) (A) (A) (A) (A) (A) (A) (A) (A)
 The electronic state is 1-A.
 Alpha  occ. eigenvalues -- -145.52213-145.52211 -77.29920 -19.27736 -19.27714
 Alpha  occ. eigenvalues --  -19.15030 -15.59101 -15.59099 -12.72351 -12.72349
 Alpha  occ. eigenvalues --  -12.72276 -12.72274 -12.72177 -12.72174  -6.75402
 Alpha  occ. eigenvalues --   -4.91845  -4.91625  -4.91184  -1.96270  -1.96250
 Alpha  occ. eigenvalues --   -1.24080  -1.24059  -1.23940  -1.23740  -1.23413
 Alpha  occ. eigenvalues --   -1.22887  -1.13628  -1.08318  -0.89398  -0.67422
 Alpha  occ. eigenvalues --   -0.56975  -0.52452  -0.52383  -0.45557  -0.43661
 Alpha  occ. eigenvalues --   -0.40557  -0.35631  -0.33616  -0.33418
 Alpha virt. eigenvalues --   -0.20920  -0.19674  -0.19651  -0.12835  -0.11778
 Alpha virt. eigenvalues --   -0.11634  -0.10826  -0.10187  -0.07820  -0.07312
 Alpha virt. eigenvalues --   -0.06400  -0.05943  -0.05384  -0.04881  -0.04592
 Alpha virt. eigenvalues --   -0.04467  -0.04403  -0.04221  -0.04053  -0.03404
 Alpha virt. eigenvalues --   -0.02370   0.00300   0.01354   0.02135   0.03099
 Alpha virt. eigenvalues --    0.03998   0.04045   0.04414   0.05017   0.05444
 Alpha virt. eigenvalues --    0.05778   0.06865   0.07330   0.07502   0.07940
 Alpha virt. eigenvalues --    0.08481   0.09747   0.10525   0.14242   0.15056
 Alpha virt. eigenvalues --    0.17275   0.18362   0.19371   0.21143   0.22047
 Alpha virt. eigenvalues --    0.23445   0.25028   0.27306   0.30127   0.31654
 Alpha virt. eigenvalues --    0.31768   0.36717   0.37710   0.44098   0.45636
 Alpha virt. eigenvalues --    0.47697   0.56686   0.57498   0.62267   0.63257
 Alpha virt. eigenvalues --    0.64977   0.82605   0.90728   0.94492   1.05958
 Alpha virt. eigenvalues --    1.06293   1.07846   1.12513   1.15952   1.16928
 Alpha virt. eigenvalues --    1.22250   1.22563   1.24777   1.37413   1.39835
 Alpha virt. eigenvalues --    1.43148   1.66274   1.66508   1.71136   1.71642
 Alpha virt. eigenvalues --    1.80320   1.81394   1.82304   1.85281   1.85694
 Alpha virt. eigenvalues --    1.86399   1.93728   1.97758   2.08923   2.53580
 Alpha virt. eigenvalues --    2.67741   3.38671   3.82235   3.89927   3.93565
          Condensed to atoms (all electrons):
              1          2          3          4          5          6
     1  O    8.837036  -0.080785   0.000970  -0.109702   0.068063   0.000838
     2  O   -0.080785   8.836861   0.000933  -0.109746   0.000817   0.068041
     3  O    0.000970   0.000933   8.751366  -0.013054   0.229801   0.229783
     4  P   -0.109702  -0.109746  -0.013054  14.595335  -0.018743  -0.018706
     5  Ca   0.068063   0.000817   0.229801  -0.018743  18.247917  -0.006713
     6  Ca   0.000838   0.068041   0.229783  -0.018706  -0.006713  18.247889
 Mulliken atomic charges:
              1
     1  O   -0.716420
     2  O   -0.716121
     3  O   -1.199799
     4  P    0.674615
     5  Ca   1.478857
     6  Ca   1.478868
 Sum of Mulliken charges=   1.00000
 Atomic charges with hydrogens summed into heavy atoms:
              1
     1  O   -0.716420
     2  O   -0.716121
     3  O   -1.199799
     4  P    0.674615
     5  Ca   1.478857
     6  Ca   1.478868
 Sum of Mulliken charges=   1.00000
 Electronic spatial extent (au):  <R**2>=  1251.4486
 Charge=     1.0000 electrons
 Dipole moment (field-independent basis, Debye):
    X=    -0.0358    Y=    -3.9112    Z=     0.0004  Tot=     3.9113
 Quadrupole moment (field-independent basis, Debye-Ang):
   XX=    -5.5273   YY=   -61.9004   ZZ=   -49.7214
   XY=    -0.4225   XZ=     0.0147   YZ=    -0.0075
 Traceless Quadrupole moment (field-independent basis, Debye-Ang):
   XX=    33.5224   YY=   -22.8507   ZZ=   -10.6717
   XY=    -0.4225   XZ=     0.0147   YZ=    -0.0075
 Octapole moment (field-independent basis, Debye-Ang**2):
  XXX=    -1.8122  YYY=    16.7006  ZZZ=     0.0064  XYY=     1.2695
  XXY=   -77.7665  XXZ=    -0.0014  XZZ=    -0.0364  YZZ=    -4.6401
  YYZ=     0.0181  XYZ=     0.0038
 Hexadecapole moment (field-independent basis, Debye-Ang**3):
 XXXX=  -358.8777 YYYY=  -875.0959 ZZZZ=   -56.5369 XXXY=    -1.5425
 XXXZ=     0.0561 YYYX=    -2.4780 YYYZ=     0.0073 ZZZX=     0.0225
 ZZZY=    -0.0053 XXYY=  -185.4707 XXZZ=   -96.6021 YYZZ=  -139.1034
 XXYZ=    -0.0133 YYXZ=     0.0237 ZZXY=    -0.3474
 N-N= 4.732337340726D+02 E-N=-5.489476656290D+03  KE= 1.916553121886D+03
 Merz-Kollman atomic radii used.
 Read replacement radii for each type of atom:
 Rad(20) =   1.188000000000D+00
 Atom Element Radius
    1     8    1.40
    2     8    1.40
    3     8    1.40
    4    15    1.80
    5    20    1.19
    6    20    1.19

 **********************************************************************

            Electrostatic Properties Using The SCF Density

 **********************************************************************

       Atomic Center    1 is at   1.287057  1.268652 -0.000341
       Atomic Center    2 is at  -1.266983  1.287108  0.001329
       Atomic Center    3 is at  -0.014513 -1.916960 -0.000411
       Atomic Center    4 is at   0.016333  2.150240 -0.000451
       Atomic Center    5 is at   1.864663 -0.947942  0.000279
       Atomic Center    6 is at  -1.879137 -0.920258 -0.000171
     666 points will be used for fitting atomic charges
 Fitting point charges to eletrostatic potential
 Charges from ESP fit, RMS=   0.00501 RRMS=   0.03145:
 Charge=   1.00000 Dipole=    -0.0463    -3.9192    -0.0009 Tot=     3.9194
              1
     1  O   -0.740157
     2  O   -0.735632
     3  O   -1.528711
     4  P    0.609546
     5  Ca   1.698381
     6  Ca   1.696574
 -----------------------------------------------------------------

              Electrostatic Properties (Atomic Units)

 -----------------------------------------------------------------
    Center     Electric         -------- Electric Field --------
               Potential          X             Y             Z
 -----------------------------------------------------------------
    1 Atom    -22.186755
    2 Atom    -22.186132
    3 Atom    -22.310642
    4 Atom    -53.918258
    5 Atom    -80.019207
    6 Atom    -80.019145
 -----------------------------------------------------------------
 1\1\GINC-N032\SP\RB3LYP\6-31+G(d,p)\Ca2O3P1(1+)\TIMN\12-Jun-2015\0\\# 
 b3lyp/6-31+G(d,p) int=ultrafine pop=(ReadRadii,MK)\\Ca2PO3_27.mol2cc_p
 lusQc.out.z51547.zip.xyz\\1,1\O,0,1.28705,1.26866,-0.00034\O,0,-1.2669
 9,1.2871,0.00133\O,0,-0.0145,-1.91696,-0.00041\P,0,0.01632,2.15024,-0.
 00045\Ca,0,1.86467,-0.94793,0.00028\Ca,0,-1.87913,-0.92027,-0.00017\\V
 ersion=EM64T-G03RevE.01\State=1-A\HF=-1922.1341361\RMSD=4.822e-05\Ther
 mal=0.\Dipole=-0.0140556,-1.5387658,0.0001743\PG=C01 [X(Ca2O3P1)]\\@


 You don't have to suffer to be a poet.
 Adolescence is enough suffering for anyone.
                             -- John Ciardi
 Job cpu time:  0 days  0 hours  0 minutes 29.4 seconds.
 File lengths (MBytes):  RWF=     22 Int=      0 D2E=      0 Chk=     10 Scr=      1
 Normal termination of Gaussian 03 at Fri Jun 12 17:34:36 2015.
