 Entering Gaussian System, Link 0=/home/timn/tmp/g03.e01/g03
 Input=Ca2PO3_6.mol2c_plusQc.out.z51557.zip.xyz.gjf
 Output=Ca2PO3_6.mol2c_plusQc.out.z51557.zip.xyz.out
 Initial command:
 /home/timn/tmp/g03.e01/l1.exe /home/timn/tmp/g03.e01/Gau-11473.inp -scrdir=/home/timn/tmp/g03.e01/
 Default is to use a total of   2 processors:
                                2 via shared-memory
                                1 via Linda
 Entering Link 1 = /home/timn/tmp/g03.e01/l1.exe PID=     11474.
  
 Copyright (c) 1988,1990,1992,1993,1995,1998,2003,2004,2007, Gaussian, Inc.
                  All Rights Reserved.
  
 This is the Gaussian(R) 03 program.  It is based on the
 the Gaussian(R) 98 system (copyright 1998, Gaussian, Inc.),
 the Gaussian(R) 94 system (copyright 1995, Gaussian, Inc.),
 the Gaussian 92(TM) system (copyright 1992, Gaussian, Inc.),
 the Gaussian 90(TM) system (copyright 1990, Gaussian, Inc.),
 the Gaussian 88(TM) system (copyright 1988, Gaussian, Inc.),
 the Gaussian 86(TM) system (copyright 1986, Carnegie Mellon
 University), and the Gaussian 82(TM) system (copyright 1983,
 Carnegie Mellon University). Gaussian is a federally registered
 trademark of Gaussian, Inc.
  
 This software contains proprietary and confidential information,
 including trade secrets, belonging to Gaussian, Inc.
  
 This software is provided under written license and may be
 used, copied, transmitted, or stored only in accord with that
 written license.
  
 The following legend is applicable only to US Government
 contracts under FAR:
  
                    RESTRICTED RIGHTS LEGEND
  
 Use, reproduction and disclosure by the US Government is
 subject to restrictions as set forth in subparagraphs (a)
 and (c) of the Commercial Computer Software - Restricted
 Rights clause in FAR 52.227-19.
  
 Gaussian, Inc.
 340 Quinnipiac St., Bldg. 40, Wallingford CT 06492
  
  
 ---------------------------------------------------------------
 Warning -- This program may not be used in any manner that
 competes with the business of Gaussian, Inc. or will provide
 assistance to any competitor of Gaussian, Inc.  The licensee
 of this program is prohibited from giving any competitor of
 Gaussian, Inc. access to this program.  By using this program,
 the user acknowledges that Gaussian, Inc. is engaged in the
 business of creating and licensing software in the field of
 computational chemistry and represents and warrants to the
 licensee that it is not a competitor of Gaussian, Inc. and that
 it will not use this program in any manner prohibited above.
 ---------------------------------------------------------------
  

 Cite this work as:
 Gaussian 03, Revision E.01,
 M. J. Frisch, G. W. Trucks, H. B. Schlegel, G. E. Scuseria, 
 M. A. Robb, J. R. Cheeseman, J. A. Montgomery, Jr., T. Vreven, 
 K. N. Kudin, J. C. Burant, J. M. Millam, S. S. Iyengar, J. Tomasi, 
 V. Barone, B. Mennucci, M. Cossi, G. Scalmani, N. Rega, 
 G. A. Petersson, H. Nakatsuji, M. Hada, M. Ehara, K. Toyota, 
 R. Fukuda, J. Hasegawa, M. Ishida, T. Nakajima, Y. Honda, O. Kitao, 
 H. Nakai, M. Klene, X. Li, J. E. Knox, H. P. Hratchian, J. B. Cross, 
 V. Bakken, C. Adamo, J. Jaramillo, R. Gomperts, R. E. Stratmann, 
 O. Yazyev, A. J. Austin, R. Cammi, C. Pomelli, J. W. Ochterski, 
 P. Y. Ayala, K. Morokuma, G. A. Voth, P. Salvador, J. J. Dannenberg, 
 V. G. Zakrzewski, S. Dapprich, A. D. Daniels, M. C. Strain, 
 O. Farkas, D. K. Malick, A. D. Rabuck, K. Raghavachari, 
 J. B. Foresman, J. V. Ortiz, Q. Cui, A. G. Baboul, S. Clifford, 
 J. Cioslowski, B. B. Stefanov, G. Liu, A. Liashenko, P. Piskorz, 
 I. Komaromi, R. L. Martin, D. J. Fox, T. Keith, M. A. Al-Laham, 
 C. Y. Peng, A. Nanayakkara, M. Challacombe, P. M. W. Gill, 
 B. Johnson, W. Chen, M. W. Wong, C. Gonzalez, and J. A. Pople, 
 Gaussian, Inc., Wallingford CT, 2004.
 
 ******************************************
 Gaussian 03:  EM64T-G03RevE.01 11-Sep-2007
                12-Jun-2015 
 ******************************************
 %nproc=2
 Will use up to    2 processors via shared memory.
 Default route:  MP2=Direct MaxDisk=2000MB
 ----------------------------------------------------
 # b3lyp/6-31+G(d,p) int=ultrafine pop=(ReadRadii,MK)
 ----------------------------------------------------

 Warning!  SCF SP cutoffs with diffuse functions may be unreliable.
 Consider SCF=Tight

 1/38=1/1;
 2/17=6,18=5,40=1/2;
 3/5=1,6=6,7=111,11=2,16=1,25=1,30=1,74=-5,75=5/1,2,3;
 4//1;
 5/5=2,32=1,38=5/2;
 6/7=2,8=2,9=2,10=2,15=8,20=101,28=1/1,2;
 99/5=1,9=1/99;
 ----------------------------------------
 Ca2PO3_6.mol2c_plusQc.out.z51557.zip.xyz
 ----------------------------------------
 Symbolic Z-matrix:
 Charge =  1 Multiplicity = 1
 O                     1.31794   1.23948   0.00162 
 O                    -1.23521   1.31546  -0.00123 
 O                    -0.05983  -1.91677  -0.00006 
 P                     0.06731   2.14944  -0.00016 
 Ca                    1.84088  -0.99075  -0.0004 
 Ca                   -1.90052  -0.8766    0.00038 
 
                          Input orientation:                          
 ---------------------------------------------------------------------
 Center     Atomic     Atomic              Coordinates (Angstroms)
 Number     Number      Type              X           Y           Z
 ---------------------------------------------------------------------
    1          8             0        1.317940    1.239480    0.001620
    2          8             0       -1.235210    1.315460   -0.001230
    3          8             0       -0.059830   -1.916770   -0.000060
    4         15             0        0.067310    2.149440   -0.000160
    5         20             0        1.840880   -0.990750   -0.000400
    6         20             0       -1.900520   -0.876600    0.000380
 ---------------------------------------------------------------------
                    Distance matrix (angstroms):
                    1          2          3          4          5
     1  O    0.000000
     2  O    2.554282   0.000000
     3  O    3.443859   3.439307   0.000000
     4  P    1.546643   1.546636   4.068197   0.000000
     5  Ca   2.290720   3.844598   2.114288   3.606431   0.000000
     6  Ca   3.851789   2.290801   2.114260   3.609608   3.743141
                    6
     6  Ca   0.000000
 Stoichiometry    Ca2O3P(1+)
 Framework group  C1[X(Ca2O3P)]
 Deg. of freedom    12
 Full point group                 C1
 Largest Abelian subgroup         C1      NOp   1
 Largest concise Abelian subgroup C1      NOp   1
                         Standard orientation:                         
 ---------------------------------------------------------------------
 Center     Atomic     Atomic              Coordinates (Angstroms)
 Number     Number      Type              X           Y           Z
 ---------------------------------------------------------------------
    1          8             0        1.317946    1.239474    0.001622
    2          8             0       -1.235204    1.315467   -0.001228
    3          8             0       -0.059840   -1.916769   -0.000058
    4         15             0        0.067320    2.149440   -0.000158
    5         20             0        1.840874   -0.990759   -0.000398
    6         20             0       -1.900525   -0.876590    0.000382
 ---------------------------------------------------------------------
 Rotational constants (GHZ):      1.5597078      1.5215031      0.7701845
 Standard basis: 6-31+G(d,p) (6D, 7F)
 There are   134 symmetry adapted basis functions of A   symmetry.
 Integral buffers will be    131072 words long.
 Raffenetti 2 integral format.
 Two-electron integral symmetry is turned on.
   134 basis functions,   312 primitive gaussians,   134 cartesian basis functions
    39 alpha electrons       39 beta electrons
       nuclear repulsion energy       473.2318445356 Hartrees.
 NAtoms=    6 NActive=    6 NUniq=    6 SFac= 7.50D-01 NAtFMM=   80 NAOKFM=F Big=F
 One-electron integrals computed using PRISM.
 NBasis=   134 RedAO= T  NBF=   134
 NBsUse=   134 1.00D-06 NBFU=   134
 Harris functional with IExCor=  402 diagonalized for initial guess.
 ExpMin= 7.10D-03 ExpMax= 3.53D+04 ExpMxC= 5.30D+03 IAcc=3 IRadAn=         5 AccDes= 0.00D+00
 HarFok:  IExCor= 402 AccDes= 0.00D+00 IRadAn=         5 IDoV=1
 ScaDFX=  1.000000  1.000000  1.000000  1.000000
 Initial guess orbital symmetries:
       Occupied  (A) (A) (A) (A) (A) (A) (A) (A) (A) (A) (A) (A)
                 (A) (A) (A) (A) (A) (A) (A) (A) (A) (A) (A) (A)
                 (A) (A) (A) (A) (A) (A) (A) (A) (A) (A) (A) (A)
                 (A) (A) (A)
       Virtual   (A) (A) (A) (A) (A) (A) (A) (A) (A) (A) (A) (A)
                 (A) (A) (A) (A) (A) (A) (A) (A) (A) (A) (A) (A)
                 (A) (A) (A) (A) (A) (A) (A) (A) (A) (A) (A) (A)
                 (A) (A) (A) (A) (A) (A) (A) (A) (A) (A) (A) (A)
                 (A) (A) (A) (A) (A) (A) (A) (A) (A) (A) (A) (A)
                 (A) (A) (A) (A) (A) (A) (A) (A) (A) (A) (A) (A)
                 (A) (A) (A) (A) (A) (A) (A) (A) (A) (A) (A) (A)
                 (A) (A) (A) (A) (A) (A) (A) (A) (A) (A) (A)
 The electronic state of the initial guess is 1-A.
 Requested convergence on RMS density matrix=1.00D-04 within 128 cycles.
 Requested convergence on MAX density matrix=1.00D-02.
 Requested convergence on             energy=1.00D-02.
 No special actions if energy rises.
 Keep R1 integrals in memory in canonical form, NReq=    43203134.
 EnCoef did     4 forward-backward iterations
 SCF Done:  E(RB+HF-LYP) =  -1922.13413453     A.U. after    7 cycles
             Convg  =    0.4973D-04             -V/T =  2.0029
             S**2   =   0.0000

 **********************************************************************

            Population analysis using the SCF density.

 **********************************************************************

 Orbital symmetries:
       Occupied  (A) (A) (A) (A) (A) (A) (A) (A) (A) (A) (A) (A)
                 (A) (A) (A) (A) (A) (A) (A) (A) (A) (A) (A) (A)
                 (A) (A) (A) (A) (A) (A) (A) (A) (A) (A) (A) (A)
                 (A) (A) (A)
       Virtual   (A) (A) (A) (A) (A) (A) (A) (A) (A) (A) (A) (A)
                 (A) (A) (A) (A) (A) (A) (A) (A) (A) (A) (A) (A)
                 (A) (A) (A) (A) (A) (A) (A) (A) (A) (A) (A) (A)
                 (A) (A) (A) (A) (A) (A) (A) (A) (A) (A) (A) (A)
                 (A) (A) (A) (A) (A) (A) (A) (A) (A) (A) (A) (A)
                 (A) (A) (A) (A) (A) (A) (A) (A) (A) (A) (A) (A)
                 (A) (A) (A) (A) (A) (A) (A) (A) (A) (A) (A) (A)
                 (A) (A) (A) (A) (A) (A) (A) (A) (A) (A) (A)
 The electronic state is 1-A.
 Alpha  occ. eigenvalues -- -145.52216-145.52210 -77.29926 -19.27775 -19.27684
 Alpha  occ. eigenvalues --  -19.15024 -15.59104 -15.59099 -12.72354 -12.72349
 Alpha  occ. eigenvalues --  -12.72279 -12.72274 -12.72180 -12.72174  -6.75408
 Alpha  occ. eigenvalues --   -4.91850  -4.91630  -4.91189  -1.96271  -1.96251
 Alpha  occ. eigenvalues --   -1.24081  -1.24060  -1.23942  -1.23741  -1.23414
 Alpha  occ. eigenvalues --   -1.22887  -1.13630  -1.08321  -0.89395  -0.67425
 Alpha  occ. eigenvalues --   -0.56977  -0.52455  -0.52385  -0.45560  -0.43664
 Alpha  occ. eigenvalues --   -0.40561  -0.35627  -0.33613  -0.33417
 Alpha virt. eigenvalues --   -0.20919  -0.19678  -0.19650  -0.12836  -0.11778
 Alpha virt. eigenvalues --   -0.11636  -0.10825  -0.10186  -0.07820  -0.07313
 Alpha virt. eigenvalues --   -0.06401  -0.05944  -0.05384  -0.04881  -0.04594
 Alpha virt. eigenvalues --   -0.04467  -0.04404  -0.04223  -0.04053  -0.03403
 Alpha virt. eigenvalues --   -0.02371   0.00301   0.01351   0.02135   0.03099
 Alpha virt. eigenvalues --    0.03997   0.04042   0.04412   0.05017   0.05444
 Alpha virt. eigenvalues --    0.05772   0.06863   0.07329   0.07502   0.07938
 Alpha virt. eigenvalues --    0.08484   0.09743   0.10528   0.14243   0.15053
 Alpha virt. eigenvalues --    0.17275   0.18360   0.19369   0.21141   0.22046
 Alpha virt. eigenvalues --    0.23437   0.25026   0.27307   0.30129   0.31651
 Alpha virt. eigenvalues --    0.31765   0.36711   0.37709   0.44099   0.45629
 Alpha virt. eigenvalues --    0.47688   0.56680   0.57491   0.62242   0.63256
 Alpha virt. eigenvalues --    0.64973   0.82585   0.90721   0.94482   1.05954
 Alpha virt. eigenvalues --    1.06295   1.07844   1.12516   1.15945   1.16937
 Alpha virt. eigenvalues --    1.22246   1.22560   1.24775   1.37405   1.39845
 Alpha virt. eigenvalues --    1.43141   1.66271   1.66505   1.71129   1.71637
 Alpha virt. eigenvalues --    1.80317   1.81399   1.82306   1.85284   1.85686
 Alpha virt. eigenvalues --    1.86394   1.93724   1.97769   2.08913   2.53569
 Alpha virt. eigenvalues --    2.67728   3.38668   3.82233   3.89921   3.93568
          Condensed to atoms (all electrons):
              1          2          3          4          5          6
     1  O    8.837163  -0.080729   0.001016  -0.109514   0.068082   0.000871
     2  O   -0.080729   8.836524   0.000870  -0.109728   0.000782   0.068003
     3  O    0.001016   0.000870   8.750930  -0.013036   0.229892   0.229804
     4  P   -0.109514  -0.109728  -0.013036  14.595014  -0.018793  -0.018654
     5  Ca   0.068082   0.000782   0.229892  -0.018793  18.248075  -0.006700
     6  Ca   0.000871   0.068003   0.229804  -0.018654  -0.006700  18.247966
 Mulliken atomic charges:
              1
     1  O   -0.716888
     2  O   -0.715721
     3  O   -1.199476
     4  P    0.674711
     5  Ca   1.478663
     6  Ca   1.478711
 Sum of Mulliken charges=   1.00000
 Atomic charges with hydrogens summed into heavy atoms:
              1
     1  O   -0.716888
     2  O   -0.715721
     3  O   -1.199476
     4  P    0.674711
     5  Ca   1.478663
     6  Ca   1.478711
 Sum of Mulliken charges=   1.00000
 Electronic spatial extent (au):  <R**2>=  1251.4457
 Charge=     1.0000 electrons
 Dipole moment (field-independent basis, Debye):
    X=    -0.1468    Y=    -3.9065    Z=    -0.0008  Tot=     3.9093
 Quadrupole moment (field-independent basis, Debye-Ang):
   XX=    -5.6048   YY=   -61.8615   ZZ=   -49.7233
   XY=    -1.7414   XZ=    -0.0254   YZ=    -0.0005
 Traceless Quadrupole moment (field-independent basis, Debye-Ang):
   XX=    33.4584   YY=   -22.7983   ZZ=   -10.6601
   XY=    -1.7414   XZ=    -0.0254   YZ=    -0.0005
 Octapole moment (field-independent basis, Debye-Ang**2):
  XXX=    -7.4589  YYY=    16.5221  ZZZ=     0.0008  XYY=     5.2284
  XXY=   -77.4824  XXZ=    -0.0029  XZZ=    -0.1499  YZZ=    -4.6343
  YYZ=     0.0046  XYZ=    -0.0058
 Hexadecapole moment (field-independent basis, Debye-Ang**3):
 XXXX=  -359.3219 YYYY=  -874.7935 ZZZZ=   -56.5430 XXXY=    -6.3617
 XXXZ=    -0.0966 YYYX=   -10.2104 YYYZ=     0.0123 ZZZX=    -0.0379
 ZZZY=     0.0013 XXYY=  -185.6331 XXZZ=   -96.6314 YYZZ=  -139.1006
 XXYZ=    -0.0026 YYXZ=    -0.0394 ZZXY=    -1.4316
 N-N= 4.732318445356D+02 E-N=-5.489467757331D+03  KE= 1.916552025035D+03
 Merz-Kollman atomic radii used.
 Read replacement radii for each type of atom:
 Rad(20) =   1.188000000000D+00
 Atom Element Radius
    1     8    1.40
    2     8    1.40
    3     8    1.40
    4    15    1.80
    5    20    1.19
    6    20    1.19

 **********************************************************************

            Electrostatic Properties Using The SCF Density

 **********************************************************************

       Atomic Center    1 is at   1.317946  1.239474  0.001622
       Atomic Center    2 is at  -1.235204  1.315467 -0.001228
       Atomic Center    3 is at  -0.059840 -1.916769 -0.000058
       Atomic Center    4 is at   0.067320  2.149440 -0.000158
       Atomic Center    5 is at   1.840874 -0.990759 -0.000398
       Atomic Center    6 is at  -1.900525 -0.876590  0.000382
     669 points will be used for fitting atomic charges
 Fitting point charges to eletrostatic potential
 Charges from ESP fit, RMS=   0.00501 RRMS=   0.03143:
 Charge=   1.00000 Dipole=    -0.1700    -3.9101    -0.0016 Tot=     3.9138
              1
     1  O   -0.742310
     2  O   -0.734917
     3  O   -1.527635
     4  P    0.611067
     5  Ca   1.697919
     6  Ca   1.695876
 -----------------------------------------------------------------

              Electrostatic Properties (Atomic Units)

 -----------------------------------------------------------------
    Center     Electric         -------- Electric Field --------
               Potential          X             Y             Z
 -----------------------------------------------------------------
    1 Atom    -22.187647
    2 Atom    -22.185127
    3 Atom    -22.310276
    4 Atom    -53.918231
    5 Atom    -80.019274
    6 Atom    -80.019033
 -----------------------------------------------------------------
 1\1\GINC-N034\SP\RB3LYP\6-31+G(d,p)\Ca2O3P1(1+)\TIMN\12-Jun-2015\0\\# 
 b3lyp/6-31+G(d,p) int=ultrafine pop=(ReadRadii,MK)\\Ca2PO3_6.mol2c_plu
 sQc.out.z51557.zip.xyz\\1,1\O,0,1.31794,1.23948,0.00162\O,0,-1.23521,1
 .31546,-0.00123\O,0,-0.05983,-1.91677,-0.00006\P,0,0.06731,2.14944,-0.
 00016\Ca,0,1.84088,-0.99075,-0.0004\Ca,0,-1.90052,-0.8766,0.00038\\Ver
 sion=EM64T-G03RevE.01\State=1-A\HF=-1922.1341345\RMSD=4.973e-05\Therma
 l=0.\Dipole=-0.0577349,-1.5369507,-0.0003051\PG=C01 [X(Ca2O3P1)]\\@


 ADVERTISING--  HE WHO HAS SOMETHING TO SELL AND GOES AND WHISPERS
                IN A WELL, IS NOT SO APT TO GET THE DOLLARS AS HE
                WHO CLIMBS A TREE AND HOLLERS.

                   -- FROM THE BACK OF A SUGAR PACKET
 Job cpu time:  0 days  0 hours  0 minutes 28.6 seconds.
 File lengths (MBytes):  RWF=     22 Int=      0 D2E=      0 Chk=     10 Scr=      1
 Normal termination of Gaussian 03 at Fri Jun 12 17:35:05 2015.
