 Entering Gaussian System, Link 0=/home/timn/tmp/g03.e01/g03
 Input=Ca2PO3_19.mol2c_plusQ.out.z51538.zip.xyz.gjf
 Output=Ca2PO3_19.mol2c_plusQ.out.z51538.zip.xyz.out
 Initial command:
 /home/timn/tmp/g03.e01/l1.exe /home/timn/tmp/g03.e01/Gau-17701.inp -scrdir=/home/timn/tmp/g03.e01/
 Default is to use a total of   2 processors:
                                2 via shared-memory
                                1 via Linda
 Entering Link 1 = /home/timn/tmp/g03.e01/l1.exe PID=     17703.
  
 Copyright (c) 1988,1990,1992,1993,1995,1998,2003,2004,2007, Gaussian, Inc.
                  All Rights Reserved.
  
 This is the Gaussian(R) 03 program.  It is based on the
 the Gaussian(R) 98 system (copyright 1998, Gaussian, Inc.),
 the Gaussian(R) 94 system (copyright 1995, Gaussian, Inc.),
 the Gaussian 92(TM) system (copyright 1992, Gaussian, Inc.),
 the Gaussian 90(TM) system (copyright 1990, Gaussian, Inc.),
 the Gaussian 88(TM) system (copyright 1988, Gaussian, Inc.),
 the Gaussian 86(TM) system (copyright 1986, Carnegie Mellon
 University), and the Gaussian 82(TM) system (copyright 1983,
 Carnegie Mellon University). Gaussian is a federally registered
 trademark of Gaussian, Inc.
  
 This software contains proprietary and confidential information,
 including trade secrets, belonging to Gaussian, Inc.
  
 This software is provided under written license and may be
 used, copied, transmitted, or stored only in accord with that
 written license.
  
 The following legend is applicable only to US Government
 contracts under FAR:
  
                    RESTRICTED RIGHTS LEGEND
  
 Use, reproduction and disclosure by the US Government is
 subject to restrictions as set forth in subparagraphs (a)
 and (c) of the Commercial Computer Software - Restricted
 Rights clause in FAR 52.227-19.
  
 Gaussian, Inc.
 340 Quinnipiac St., Bldg. 40, Wallingford CT 06492
  
  
 ---------------------------------------------------------------
 Warning -- This program may not be used in any manner that
 competes with the business of Gaussian, Inc. or will provide
 assistance to any competitor of Gaussian, Inc.  The licensee
 of this program is prohibited from giving any competitor of
 Gaussian, Inc. access to this program.  By using this program,
 the user acknowledges that Gaussian, Inc. is engaged in the
 business of creating and licensing software in the field of
 computational chemistry and represents and warrants to the
 licensee that it is not a competitor of Gaussian, Inc. and that
 it will not use this program in any manner prohibited above.
 ---------------------------------------------------------------
  

 Cite this work as:
 Gaussian 03, Revision E.01,
 M. J. Frisch, G. W. Trucks, H. B. Schlegel, G. E. Scuseria, 
 M. A. Robb, J. R. Cheeseman, J. A. Montgomery, Jr., T. Vreven, 
 K. N. Kudin, J. C. Burant, J. M. Millam, S. S. Iyengar, J. Tomasi, 
 V. Barone, B. Mennucci, M. Cossi, G. Scalmani, N. Rega, 
 G. A. Petersson, H. Nakatsuji, M. Hada, M. Ehara, K. Toyota, 
 R. Fukuda, J. Hasegawa, M. Ishida, T. Nakajima, Y. Honda, O. Kitao, 
 H. Nakai, M. Klene, X. Li, J. E. Knox, H. P. Hratchian, J. B. Cross, 
 V. Bakken, C. Adamo, J. Jaramillo, R. Gomperts, R. E. Stratmann, 
 O. Yazyev, A. J. Austin, R. Cammi, C. Pomelli, J. W. Ochterski, 
 P. Y. Ayala, K. Morokuma, G. A. Voth, P. Salvador, J. J. Dannenberg, 
 V. G. Zakrzewski, S. Dapprich, A. D. Daniels, M. C. Strain, 
 O. Farkas, D. K. Malick, A. D. Rabuck, K. Raghavachari, 
 J. B. Foresman, J. V. Ortiz, Q. Cui, A. G. Baboul, S. Clifford, 
 J. Cioslowski, B. B. Stefanov, G. Liu, A. Liashenko, P. Piskorz, 
 I. Komaromi, R. L. Martin, D. J. Fox, T. Keith, M. A. Al-Laham, 
 C. Y. Peng, A. Nanayakkara, M. Challacombe, P. M. W. Gill, 
 B. Johnson, W. Chen, M. W. Wong, C. Gonzalez, and J. A. Pople, 
 Gaussian, Inc., Wallingford CT, 2004.
 
 ******************************************
 Gaussian 03:  EM64T-G03RevE.01 11-Sep-2007
                12-Jun-2015 
 ******************************************
 %nproc=2
 Will use up to    2 processors via shared memory.
 Default route:  MP2=Direct MaxDisk=2000MB
 ----------------------------------------------------
 # b3lyp/6-31+G(d,p) int=ultrafine pop=(ReadRadii,MK)
 ----------------------------------------------------

 Warning!  SCF SP cutoffs with diffuse functions may be unreliable.
 Consider SCF=Tight

 1/38=1/1;
 2/17=6,18=5,40=1/2;
 3/5=1,6=6,7=111,11=2,16=1,25=1,30=1,74=-5,75=5/1,2,3;
 4//1;
 5/5=2,32=1,38=5/2;
 6/7=2,8=2,9=2,10=2,15=8,20=101,28=1/1,2;
 99/5=1,9=1/99;
 ----------------------------------------
 Ca2PO3_19.mol2c_plusQ.out.z51538.zip.xyz
 ----------------------------------------
 Symbolic Z-matrix:
 Charge =  1 Multiplicity = 1
 O                     0.       -0.72455   0.57423 
 O                    -1.32738   1.24759  -0.40863 
 O                     1.32741   1.24761  -0.40858 
 P                     0.        1.11898   0.4575 
 Ca                   -2.12683  -0.77374  -0.12296 
 Ca                    2.12682  -0.77376  -0.12297 
 
                          Input orientation:                          
 ---------------------------------------------------------------------
 Center     Atomic     Atomic              Coordinates (Angstroms)
 Number     Number      Type              X           Y           Z
 ---------------------------------------------------------------------
    1          8             0        0.000000   -0.724550    0.574230
    2          8             0       -1.327380    1.247590   -0.408630
    3          8             0        1.327410    1.247610   -0.408580
    4         15             0        0.000000    1.118980    0.457500
    5         20             0       -2.126830   -0.773740   -0.122960
    6         20             0        2.126820   -0.773760   -0.122970
 ---------------------------------------------------------------------
                    Distance matrix (angstroms):
                    1          2          3          4          5
     1  O    0.000000
     2  O    2.572409   0.000000
     3  O    2.572421   2.654790   0.000000
     4  P    1.847222   1.590176   1.590175   0.000000
     5  Ca   2.238727   2.192374   4.012382   2.905637   0.000000
     6  Ca   2.238721   4.012350   2.192388   2.905645   4.253650
                    6
     6  Ca   0.000000
 Stoichiometry    Ca2O3P(1+)
 Framework group  C1[X(Ca2O3P)]
 Deg. of freedom    12
 Full point group                 C1
 Largest Abelian subgroup         C1      NOp   1
 Largest concise Abelian subgroup C1      NOp   1
                         Standard orientation:                         
 ---------------------------------------------------------------------
 Center     Atomic     Atomic              Coordinates (Angstroms)
 Number     Number      Type              X           Y           Z
 ---------------------------------------------------------------------
    1          8             0        0.000000   -0.724549    0.574229
    2          8             0       -1.327382    1.247589   -0.408631
    3          8             0        1.327408    1.247613   -0.408581
    4         15             0       -0.000002    1.118981    0.457499
    5         20             0       -2.126829   -0.773742   -0.122961
    6         20             0        2.126821   -0.773756   -0.122971
 ---------------------------------------------------------------------
 Rotational constants (GHZ):      3.0982134      1.1585918      0.8981102
 Standard basis: 6-31+G(d,p) (6D, 7F)
 There are   134 symmetry adapted basis functions of A   symmetry.
 Integral buffers will be    131072 words long.
 Raffenetti 2 integral format.
 Two-electron integral symmetry is turned on.
   134 basis functions,   312 primitive gaussians,   134 cartesian basis functions
    39 alpha electrons       39 beta electrons
       nuclear repulsion energy       507.4486551244 Hartrees.
 NAtoms=    6 NActive=    6 NUniq=    6 SFac= 7.50D-01 NAtFMM=   80 NAOKFM=F Big=F
 One-electron integrals computed using PRISM.
 NBasis=   134 RedAO= T  NBF=   134
 NBsUse=   134 1.00D-06 NBFU=   134
 Harris functional with IExCor=  402 diagonalized for initial guess.
 ExpMin= 7.10D-03 ExpMax= 3.53D+04 ExpMxC= 5.30D+03 IAcc=3 IRadAn=         5 AccDes= 0.00D+00
 HarFok:  IExCor= 402 AccDes= 0.00D+00 IRadAn=         5 IDoV=1
 ScaDFX=  1.000000  1.000000  1.000000  1.000000
 Initial guess orbital symmetries:
       Occupied  (A) (A) (A) (A) (A) (A) (A) (A) (A) (A) (A) (A)
                 (A) (A) (A) (A) (A) (A) (A) (A) (A) (A) (A) (A)
                 (A) (A) (A) (A) (A) (A) (A) (A) (A) (A) (A) (A)
                 (A) (A) (A)
       Virtual   (A) (A) (A) (A) (A) (A) (A) (A) (A) (A) (A) (A)
                 (A) (A) (A) (A) (A) (A) (A) (A) (A) (A) (A) (A)
                 (A) (A) (A) (A) (A) (A) (A) (A) (A) (A) (A) (A)
                 (A) (A) (A) (A) (A) (A) (A) (A) (A) (A) (A) (A)
                 (A) (A) (A) (A) (A) (A) (A) (A) (A) (A) (A) (A)
                 (A) (A) (A) (A) (A) (A) (A) (A) (A) (A) (A) (A)
                 (A) (A) (A) (A) (A) (A) (A) (A) (A) (A) (A) (A)
                 (A) (A) (A) (A) (A) (A) (A) (A) (A) (A) (A)
 The electronic state of the initial guess is 1-A.
 Requested convergence on RMS density matrix=1.00D-04 within 128 cycles.
 Requested convergence on MAX density matrix=1.00D-02.
 Requested convergence on             energy=1.00D-02.
 No special actions if energy rises.
 Keep R1 integrals in memory in canonical form, NReq=    43203134.
 SCF Done:  E(RB+HF-LYP) =  -1922.11511703     A.U. after    9 cycles
             Convg  =    0.2547D-04             -V/T =  2.0029
             S**2   =   0.0000

 **********************************************************************

            Population analysis using the SCF density.

 **********************************************************************

 Orbital symmetries:
       Occupied  (A) (A) (A) (A) (A) (A) (A) (A) (A) (A) (A) (A)
                 (A) (A) (A) (A) (A) (A) (A) (A) (A) (A) (A) (A)
                 (A) (A) (A) (A) (A) (A) (A) (A) (A) (A) (A) (A)
                 (A) (A) (A)
       Virtual   (A) (A) (A) (A) (A) (A) (A) (A) (A) (A) (A) (A)
                 (A) (A) (A) (A) (A) (A) (A) (A) (A) (A) (A) (A)
                 (A) (A) (A) (A) (A) (A) (A) (A) (A) (A) (A) (A)
                 (A) (A) (A) (A) (A) (A) (A) (A) (A) (A) (A) (A)
                 (A) (A) (A) (A) (A) (A) (A) (A) (A) (A) (A) (A)
                 (A) (A) (A) (A) (A) (A) (A) (A) (A) (A) (A) (A)
                 (A) (A) (A) (A) (A) (A) (A) (A) (A) (A) (A) (A)
                 (A) (A) (A) (A) (A) (A) (A) (A) (A) (A) (A)
 The electronic state is 1-A.
 Alpha  occ. eigenvalues -- -145.55250-145.55248 -77.25374 -19.23091 -19.21322
 Alpha  occ. eigenvalues --  -19.21322 -15.62119 -15.62116 -12.75350 -12.75350
 Alpha  occ. eigenvalues --  -12.75253 -12.75253 -12.75248 -12.75248  -6.70497
 Alpha  occ. eigenvalues --   -4.86937  -4.86769  -4.86349  -1.99211  -1.99205
 Alpha  occ. eigenvalues --   -1.26925  -1.26868  -1.26821  -1.26553  -1.26387
 Alpha  occ. eigenvalues --   -1.26232  -1.07515  -1.02042  -0.99997  -0.62158
 Alpha  occ. eigenvalues --   -0.50870  -0.50190  -0.47812  -0.45055  -0.41390
 Alpha  occ. eigenvalues --   -0.38989  -0.38574  -0.38398  -0.30812
 Alpha virt. eigenvalues --   -0.22939  -0.22531  -0.15326  -0.13942  -0.13375
 Alpha virt. eigenvalues --   -0.12382  -0.11218  -0.09564  -0.07960  -0.06772
 Alpha virt. eigenvalues --   -0.05896  -0.05584  -0.05237  -0.04657  -0.04652
 Alpha virt. eigenvalues --   -0.04396  -0.03668  -0.02902  -0.02284  -0.01334
 Alpha virt. eigenvalues --   -0.00720   0.00912   0.01016   0.01554   0.02563
 Alpha virt. eigenvalues --    0.02845   0.03286   0.03338   0.04001   0.04128
 Alpha virt. eigenvalues --    0.04954   0.05636   0.05960   0.07330   0.07537
 Alpha virt. eigenvalues --    0.08500   0.09903   0.11110   0.14700   0.16357
 Alpha virt. eigenvalues --    0.18863   0.19202   0.20699   0.21508   0.22025
 Alpha virt. eigenvalues --    0.23226   0.25402   0.28517   0.29898   0.31321
 Alpha virt. eigenvalues --    0.34333   0.36366   0.38499   0.40283   0.42986
 Alpha virt. eigenvalues --    0.45350   0.58234   0.62658   0.65991   0.67328
 Alpha virt. eigenvalues --    0.78814   0.83600   0.88101   0.95274   1.10591
 Alpha virt. eigenvalues --    1.15219   1.16171   1.17254   1.19171   1.20608
 Alpha virt. eigenvalues --    1.21679   1.22789   1.24247   1.47152   1.51606
 Alpha virt. eigenvalues --    1.58543   1.71451   1.74293   1.75076   1.75956
 Alpha virt. eigenvalues --    1.79036   1.82371   1.83914   1.86252   1.89062
 Alpha virt. eigenvalues --    1.94506   1.98055   2.09251   2.20854   2.60166
 Alpha virt. eigenvalues --    2.67768   3.48948   3.96678   3.99319   4.02851
          Condensed to atoms (all electrons):
              1          2          3          4          5          6
     1  O    9.062167   0.022828   0.022823  -0.228881   0.094826   0.094825
     2  O    0.022828   8.862873   0.080341  -0.332511   0.147385   0.017479
     3  O    0.022823   0.080341   8.862863  -0.332489   0.017481   0.147382
     4  P   -0.228881  -0.332511  -0.332489  15.050316   0.018622   0.018628
     5  Ca   0.094826   0.147385   0.017481   0.018622  18.284558   0.007593
     6  Ca   0.094825   0.017479   0.147382   0.018628   0.007593  18.284561
 Mulliken atomic charges:
              1
     1  O   -1.068587
     2  O   -0.798394
     3  O   -0.798400
     4  P    0.806314
     5  Ca   1.429535
     6  Ca   1.429532
 Sum of Mulliken charges=   1.00000
 Atomic charges with hydrogens summed into heavy atoms:
              1
     1  O   -1.068587
     2  O   -0.798394
     3  O   -0.798400
     4  P    0.806314
     5  Ca   1.429535
     6  Ca   1.429532
 Sum of Mulliken charges=   1.00000
 Electronic spatial extent (au):  <R**2>=  1114.6012
 Charge=     1.0000 electrons
 Dipole moment (field-independent basis, Debye):
    X=    -0.0001    Y=   -13.0188    Z=    -1.2190  Tot=    13.0757
 Quadrupole moment (field-independent basis, Debye-Ang):
   XX=     4.3765   YY=   -53.9050   ZZ=   -56.6524
   XY=    -0.0003   XZ=    -0.0003   YZ=     6.3150
 Traceless Quadrupole moment (field-independent basis, Debye-Ang):
   XX=    39.7702   YY=   -18.5114   ZZ=   -21.2588
   XY=    -0.0003   XZ=    -0.0003   YZ=     6.3150
 Octapole moment (field-independent basis, Debye-Ang**2):
  XXX=    -0.0019  YYY=   -35.7462  ZZZ=    -8.7786  XYY=    -0.0001
  XXY=   -81.8662  XXZ=    -2.6908  XZZ=     0.0002  YZZ=   -12.3240
  YYZ=    -2.3165  XYZ=     0.0000
 Hexadecapole moment (field-independent basis, Debye-Ang**3):
 XXXX=  -391.7939 YYYY=  -376.1913 ZZZZ=  -126.7937 XXXY=    -0.0014
 XXXZ=    -0.0011 YYYX=    -0.0010 YYYZ=     7.1008 ZZZX=    -0.0004
 ZZZY=     0.8517 XXYY=  -160.1511 XXZZ=  -135.8865 YYZZ=   -89.3840
 XXYZ=    14.2457 YYXZ=    -0.0003 ZZXY=     0.0002
 N-N= 5.074486551244D+02 E-N=-5.557788323033D+03  KE= 1.916581272426D+03
 Merz-Kollman atomic radii used.
 Read replacement radii for each type of atom:
 Rad(20) =   1.188000000000D+00
 Atom Element Radius
    1     8    1.40
    2     8    1.40
    3     8    1.40
    4    15    1.80
    5    20    1.19
    6    20    1.19

 **********************************************************************

            Electrostatic Properties Using The SCF Density

 **********************************************************************

       Atomic Center    1 is at   0.000000 -0.724549  0.574229
       Atomic Center    2 is at  -1.327382  1.247589 -0.408631
       Atomic Center    3 is at   1.327408  1.247613 -0.408581
       Atomic Center    4 is at  -0.000002  1.118981  0.457499
       Atomic Center    5 is at  -2.126829 -0.773742 -0.122961
       Atomic Center    6 is at   2.126821 -0.773756 -0.122971
     609 points will be used for fitting atomic charges
 Fitting point charges to eletrostatic potential
 Charges from ESP fit, RMS=   0.00901 RRMS=   0.05273:
 Charge=   1.00000 Dipole=    -0.0172   -13.5946    -1.3948 Tot=    13.6660
              1
     1  O   -1.227484
     2  O   -0.719321
     3  O   -0.716896
     4  P    0.479154
     5  Ca   1.593864
     6  Ca   1.590683
 -----------------------------------------------------------------

              Electrostatic Properties (Atomic Units)

 -----------------------------------------------------------------
    Center     Electric         -------- Electric Field --------
               Potential          X             Y             Z
 -----------------------------------------------------------------
    1 Atom    -22.235175
    2 Atom    -22.251973
    3 Atom    -22.251973
    4 Atom    -53.960605
    5 Atom    -79.989224
    6 Atom    -79.989224
 -----------------------------------------------------------------
 1\1\GINC-N027\SP\RB3LYP\6-31+G(d,p)\Ca2O3P1(1+)\TIMN\12-Jun-2015\0\\# 
 b3lyp/6-31+G(d,p) int=ultrafine pop=(ReadRadii,MK)\\Ca2PO3_19.mol2c_pl
 usQ.out.z51538.zip.xyz\\1,1\O,0,0.,-0.72455,0.57423\O,0,-1.32738,1.247
 59,-0.40863\O,0,1.32741,1.24761,-0.40858\P,0,0.,1.11898,0.4575\Ca,0,-2
 .12683,-0.77374,-0.12296\Ca,0,2.12682,-0.77376,-0.12297\\Version=EM64T
 -G03RevE.01\State=1-A\HF=-1922.115117\RMSD=2.547e-05\Thermal=0.\Dipole
 =-0.0000572,-5.1219905,-0.479594\PG=C01 [X(Ca2O3P1)]\\@


 IT IS NOT EASY TO DESCRIBE
     THE SEA WITH THE MOUTH

                   -- KOKYU
 Job cpu time:  0 days  0 hours  0 minutes 36.6 seconds.
 File lengths (MBytes):  RWF=     22 Int=      0 D2E=      0 Chk=     10 Scr=      1
 Normal termination of Gaussian 03 at Fri Jun 12 17:34:40 2015.
