 Entering Gaussian System, Link 0=/home/timn/tmp/g03.e01/g03
 Input=Ca2PO3_2.mol2_plusQ.out.z51550.zip.xyz.gjf
 Output=Ca2PO3_2.mol2_plusQ.out.z51550.zip.xyz.out
 Initial command:
 /home/timn/tmp/g03.e01/l1.exe /home/timn/tmp/g03.e01/Gau-11290.inp -scrdir=/home/timn/tmp/g03.e01/
 Default is to use a total of   2 processors:
                                2 via shared-memory
                                1 via Linda
 Entering Link 1 = /home/timn/tmp/g03.e01/l1.exe PID=     11293.
  
 Copyright (c) 1988,1990,1992,1993,1995,1998,2003,2004,2007, Gaussian, Inc.
                  All Rights Reserved.
  
 This is the Gaussian(R) 03 program.  It is based on the
 the Gaussian(R) 98 system (copyright 1998, Gaussian, Inc.),
 the Gaussian(R) 94 system (copyright 1995, Gaussian, Inc.),
 the Gaussian 92(TM) system (copyright 1992, Gaussian, Inc.),
 the Gaussian 90(TM) system (copyright 1990, Gaussian, Inc.),
 the Gaussian 88(TM) system (copyright 1988, Gaussian, Inc.),
 the Gaussian 86(TM) system (copyright 1986, Carnegie Mellon
 University), and the Gaussian 82(TM) system (copyright 1983,
 Carnegie Mellon University). Gaussian is a federally registered
 trademark of Gaussian, Inc.
  
 This software contains proprietary and confidential information,
 including trade secrets, belonging to Gaussian, Inc.
  
 This software is provided under written license and may be
 used, copied, transmitted, or stored only in accord with that
 written license.
  
 The following legend is applicable only to US Government
 contracts under FAR:
  
                    RESTRICTED RIGHTS LEGEND
  
 Use, reproduction and disclosure by the US Government is
 subject to restrictions as set forth in subparagraphs (a)
 and (c) of the Commercial Computer Software - Restricted
 Rights clause in FAR 52.227-19.
  
 Gaussian, Inc.
 340 Quinnipiac St., Bldg. 40, Wallingford CT 06492
  
  
 ---------------------------------------------------------------
 Warning -- This program may not be used in any manner that
 competes with the business of Gaussian, Inc. or will provide
 assistance to any competitor of Gaussian, Inc.  The licensee
 of this program is prohibited from giving any competitor of
 Gaussian, Inc. access to this program.  By using this program,
 the user acknowledges that Gaussian, Inc. is engaged in the
 business of creating and licensing software in the field of
 computational chemistry and represents and warrants to the
 licensee that it is not a competitor of Gaussian, Inc. and that
 it will not use this program in any manner prohibited above.
 ---------------------------------------------------------------
  

 Cite this work as:
 Gaussian 03, Revision E.01,
 M. J. Frisch, G. W. Trucks, H. B. Schlegel, G. E. Scuseria, 
 M. A. Robb, J. R. Cheeseman, J. A. Montgomery, Jr., T. Vreven, 
 K. N. Kudin, J. C. Burant, J. M. Millam, S. S. Iyengar, J. Tomasi, 
 V. Barone, B. Mennucci, M. Cossi, G. Scalmani, N. Rega, 
 G. A. Petersson, H. Nakatsuji, M. Hada, M. Ehara, K. Toyota, 
 R. Fukuda, J. Hasegawa, M. Ishida, T. Nakajima, Y. Honda, O. Kitao, 
 H. Nakai, M. Klene, X. Li, J. E. Knox, H. P. Hratchian, J. B. Cross, 
 V. Bakken, C. Adamo, J. Jaramillo, R. Gomperts, R. E. Stratmann, 
 O. Yazyev, A. J. Austin, R. Cammi, C. Pomelli, J. W. Ochterski, 
 P. Y. Ayala, K. Morokuma, G. A. Voth, P. Salvador, J. J. Dannenberg, 
 V. G. Zakrzewski, S. Dapprich, A. D. Daniels, M. C. Strain, 
 O. Farkas, D. K. Malick, A. D. Rabuck, K. Raghavachari, 
 J. B. Foresman, J. V. Ortiz, Q. Cui, A. G. Baboul, S. Clifford, 
 J. Cioslowski, B. B. Stefanov, G. Liu, A. Liashenko, P. Piskorz, 
 I. Komaromi, R. L. Martin, D. J. Fox, T. Keith, M. A. Al-Laham, 
 C. Y. Peng, A. Nanayakkara, M. Challacombe, P. M. W. Gill, 
 B. Johnson, W. Chen, M. W. Wong, C. Gonzalez, and J. A. Pople, 
 Gaussian, Inc., Wallingford CT, 2004.
 
 ******************************************
 Gaussian 03:  EM64T-G03RevE.01 11-Sep-2007
                12-Jun-2015 
 ******************************************
 %nproc=2
 Will use up to    2 processors via shared memory.
 Default route:  MP2=Direct MaxDisk=2000MB
 ----------------------------------------------------
 # b3lyp/6-31+G(d,p) int=ultrafine pop=(ReadRadii,MK)
 ----------------------------------------------------

 Warning!  SCF SP cutoffs with diffuse functions may be unreliable.
 Consider SCF=Tight

 1/38=1/1;
 2/17=6,18=5,40=1/2;
 3/5=1,6=6,7=111,11=2,16=1,25=1,30=1,74=-5,75=5/1,2,3;
 4//1;
 5/5=2,32=1,38=5/2;
 6/7=2,8=2,9=2,10=2,15=8,20=101,28=1/1,2;
 99/5=1,9=1/99;
 --------------------------------------
 Ca2PO3_2.mol2_plusQ.out.z51550.zip.xyz
 --------------------------------------
 Symbolic Z-matrix:
 Charge =  1 Multiplicity = 1
 O                     0.00002   0.93588  -1.04575 
 O                     0.00001  -1.60092   0.12037 
 O                     0.00008  -0.57156   1.22827 
 P                    -0.00005   1.54743   0.50275 
 Ca                   -1.82859  -0.33299  -0.24911 
 Ca                    1.82858  -0.33295  -0.24912 
 
                          Input orientation:                          
 ---------------------------------------------------------------------
 Center     Atomic     Atomic              Coordinates (Angstroms)
 Number     Number      Type              X           Y           Z
 ---------------------------------------------------------------------
    1          8             0        0.000020    0.935880   -1.045750
    2          8             0        0.000010   -1.600920    0.120370
    3          8             0        0.000080   -0.571560    1.228270
    4         15             0       -0.000050    1.547430    0.502750
    5         20             0       -1.828590   -0.332990   -0.249110
    6         20             0        1.828580   -0.332950   -0.249120
 ---------------------------------------------------------------------
                    Distance matrix (angstroms):
                    1          2          3          4          5
     1  O    0.000000
     2  O    2.791987   0.000000
     3  O    2.728286   1.512291   0.000000
     4  P    1.664886   3.171486   2.239754   0.000000
     5  Ca   2.363997   2.255646   2.362965   2.728522   0.000000
     6  Ca   2.363933   2.255646   2.362843   2.728557   3.657170
                    6
     6  Ca   0.000000
 Stoichiometry    Ca2O3P(1+)
 Framework group  C1[X(Ca2O3P)]
 Deg. of freedom    12
 Full point group                 C1
 Largest Abelian subgroup         C1      NOp   1
 Largest concise Abelian subgroup C1      NOp   1
                         Standard orientation:                         
 ---------------------------------------------------------------------
 Center     Atomic     Atomic              Coordinates (Angstroms)
 Number     Number      Type              X           Y           Z
 ---------------------------------------------------------------------
    1          8             0        0.000021    0.935882   -1.045747
    2          8             0        0.000010   -1.600918    0.120373
    3          8             0        0.000081   -0.571558    1.228273
    4         15             0       -0.000049    1.547432    0.502753
    5         20             0       -1.828589   -0.332987   -0.249107
    6         20             0        1.828581   -0.332949   -0.249117
 ---------------------------------------------------------------------
 Rotational constants (GHZ):      2.5539068      1.5700713      1.2311388
 Standard basis: 6-31+G(d,p) (6D, 7F)
 There are   134 symmetry adapted basis functions of A   symmetry.
 Integral buffers will be    131072 words long.
 Raffenetti 2 integral format.
 Two-electron integral symmetry is turned on.
   134 basis functions,   312 primitive gaussians,   134 cartesian basis functions
    39 alpha electrons       39 beta electrons
       nuclear repulsion energy       526.0670792459 Hartrees.
 NAtoms=    6 NActive=    6 NUniq=    6 SFac= 7.50D-01 NAtFMM=   80 NAOKFM=F Big=F
 One-electron integrals computed using PRISM.
 NBasis=   134 RedAO= T  NBF=   134
 NBsUse=   134 1.00D-06 NBFU=   134
 Harris functional with IExCor=  402 diagonalized for initial guess.
 ExpMin= 7.10D-03 ExpMax= 3.53D+04 ExpMxC= 5.30D+03 IAcc=3 IRadAn=         5 AccDes= 0.00D+00
 HarFok:  IExCor= 402 AccDes= 0.00D+00 IRadAn=         5 IDoV=1
 ScaDFX=  1.000000  1.000000  1.000000  1.000000
 Initial guess orbital symmetries:
       Occupied  (A) (A) (A) (A) (A) (A) (A) (A) (A) (A) (A) (A)
                 (A) (A) (A) (A) (A) (A) (A) (A) (A) (A) (A) (A)
                 (A) (A) (A) (A) (A) (A) (A) (A) (A) (A) (A) (A)
                 (A) (A) (A)
       Virtual   (A) (A) (A) (A) (A) (A) (A) (A) (A) (A) (A) (A)
                 (A) (A) (A) (A) (A) (A) (A) (A) (A) (A) (A) (A)
                 (A) (A) (A) (A) (A) (A) (A) (A) (A) (A) (A) (A)
                 (A) (A) (A) (A) (A) (A) (A) (A) (A) (A) (A) (A)
                 (A) (A) (A) (A) (A) (A) (A) (A) (A) (A) (A) (A)
                 (A) (A) (A) (A) (A) (A) (A) (A) (A) (A) (A) (A)
                 (A) (A) (A) (A) (A) (A) (A) (A) (A) (A) (A) (A)
                 (A) (A) (A) (A) (A) (A) (A) (A) (A) (A) (A)
 The electronic state of the initial guess is 1-A.
 Requested convergence on RMS density matrix=1.00D-04 within 128 cycles.
 Requested convergence on MAX density matrix=1.00D-02.
 Requested convergence on             energy=1.00D-02.
 No special actions if energy rises.
 Keep R1 integrals in memory in canonical form, NReq=    43203120.
 SCF Done:  E(RB+HF-LYP) =  -1921.96184683     A.U. after    7 cycles
             Convg  =    0.7739D-04             -V/T =  2.0028
             S**2   =   0.0000

 **********************************************************************

            Population analysis using the SCF density.

 **********************************************************************

 Orbital symmetries:
       Occupied  (A) (A) (A) (A) (A) (A) (A) (A) (A) (A) (A) (A)
                 (A) (A) (A) (A) (A) (A) (A) (A) (A) (A) (A) (A)
                 (A) (A) (A) (A) (A) (A) (A) (A) (A) (A) (A) (A)
                 (A) (A) (A)
       Virtual   (A) (A) (A) (A) (A) (A) (A) (A) (A) (A) (A) (A)
                 (A) (A) (A) (A) (A) (A) (A) (A) (A) (A) (A) (A)
                 (A) (A) (A) (A) (A) (A) (A) (A) (A) (A) (A) (A)
                 (A) (A) (A) (A) (A) (A) (A) (A) (A) (A) (A) (A)
                 (A) (A) (A) (A) (A) (A) (A) (A) (A) (A) (A) (A)
                 (A) (A) (A) (A) (A) (A) (A) (A) (A) (A) (A) (A)
                 (A) (A) (A) (A) (A) (A) (A) (A) (A) (A) (A) (A)
                 (A) (A) (A) (A) (A) (A) (A) (A) (A) (A) (A)
 The electronic state is 1-A.
 Alpha  occ. eigenvalues -- -145.55207-145.55201 -77.22321 -19.29861 -19.28060
 Alpha  occ. eigenvalues --  -19.24957 -15.61992 -15.61987 -12.75198 -12.75197
 Alpha  occ. eigenvalues --  -12.75175 -12.75174 -12.75142 -12.75141  -6.68779
 Alpha  occ. eigenvalues --   -4.85380  -4.84983  -4.84214  -1.99000  -1.98968
 Alpha  occ. eigenvalues --   -1.27710  -1.26499  -1.26455  -1.26370  -1.26214
 Alpha  occ. eigenvalues --   -1.26049  -1.13468  -1.06200  -0.91803  -0.65472
 Alpha  occ. eigenvalues --   -0.53658  -0.51586  -0.51470  -0.47849  -0.45473
 Alpha  occ. eigenvalues --   -0.42775  -0.38626  -0.36971  -0.29682
 Alpha virt. eigenvalues --   -0.22501  -0.20752  -0.18969  -0.14142  -0.12620
 Alpha virt. eigenvalues --   -0.11980  -0.11852  -0.10261  -0.08378  -0.08120
 Alpha virt. eigenvalues --   -0.07350  -0.06936  -0.06224  -0.05365  -0.05190
 Alpha virt. eigenvalues --   -0.04591  -0.04495  -0.04258  -0.03565  -0.02541
 Alpha virt. eigenvalues --   -0.00809  -0.00431  -0.00400   0.01231   0.01459
 Alpha virt. eigenvalues --    0.02629   0.03315   0.03779   0.04198   0.04493
 Alpha virt. eigenvalues --    0.04642   0.05000   0.06672   0.06738   0.07634
 Alpha virt. eigenvalues --    0.08405   0.11440   0.12195   0.12935   0.14387
 Alpha virt. eigenvalues --    0.15740   0.17783   0.19321   0.20387   0.23203
 Alpha virt. eigenvalues --    0.25096   0.25291   0.26727   0.27394   0.31501
 Alpha virt. eigenvalues --    0.34913   0.35631   0.38210   0.38896   0.45792
 Alpha virt. eigenvalues --    0.48088   0.51766   0.52477   0.60553   0.62587
 Alpha virt. eigenvalues --    0.73161   0.79072   0.90194   0.95758   1.08785
 Alpha virt. eigenvalues --    1.11407   1.11474   1.14685   1.16117   1.16527
 Alpha virt. eigenvalues --    1.18824   1.24055   1.25597   1.42427   1.45125
 Alpha virt. eigenvalues --    1.50100   1.53409   1.63583   1.76610   1.77194
 Alpha virt. eigenvalues --    1.78472   1.79071   1.79920   1.84462   1.87171
 Alpha virt. eigenvalues --    1.91681   1.91996   2.19926   2.21073   2.43737
 Alpha virt. eigenvalues --    3.03183   3.39696   4.00273   4.02043   4.16188
          Condensed to atoms (all electrons):
              1          2          3          4          5          6
     1  O    8.808387   0.029409   0.020170  -0.308243   0.065037   0.065051
     2  O    0.029409   8.374255   0.036734  -0.021617   0.098970   0.098968
     3  O    0.020170   0.036734   8.421350  -0.134321   0.061326   0.061341
     4  P   -0.308243  -0.021617  -0.134321  15.426439   0.084645   0.084605
     5  Ca   0.065037   0.098970   0.061326   0.084645  18.251538  -0.008824
     6  Ca   0.065051   0.098968   0.061341   0.084605  -0.008824  18.251527
 Mulliken atomic charges:
              1
     1  O   -0.679812
     2  O   -0.616718
     3  O   -0.466601
     4  P   -0.131508
     5  Ca   1.447307
     6  Ca   1.447332
 Sum of Mulliken charges=   1.00000
 Atomic charges with hydrogens summed into heavy atoms:
              1
     1  O   -0.679812
     2  O   -0.616718
     3  O   -0.466601
     4  P   -0.131508
     5  Ca   1.447307
     6  Ca   1.447332
 Sum of Mulliken charges=   1.00000
 Electronic spatial extent (au):  <R**2>=   917.1456
 Charge=     1.0000 electrons
 Dipole moment (field-independent basis, Debye):
    X=     0.0002    Y=    -3.4602    Z=    -4.1791  Tot=     5.4256
 Quadrupole moment (field-independent basis, Debye-Ang):
   XX=    -1.4671   YY=   -62.2092   ZZ=   -58.2945
   XY=     0.0008   XZ=    -0.0002   YZ=     5.2269
 Traceless Quadrupole moment (field-independent basis, Debye-Ang):
   XX=    39.1898   YY=   -21.5522   ZZ=   -17.6376
   XY=     0.0008   XZ=    -0.0002   YZ=     5.2269
 Octapole moment (field-independent basis, Debye-Ang**2):
  XXX=     0.0049  YYY=    -9.8263  ZZZ=   -12.5697  XYY=    -0.0003
  XXY=   -36.2356  XXZ=   -23.4197  XZZ=    -0.0001  YZZ=   -10.5790
  YYZ=    -6.8707  XYZ=     0.0002
 Hexadecapole moment (field-independent basis, Debye-Ang**3):
 XXXX=  -228.6019 YYYY=  -425.1325 ZZZZ=  -194.3130 XXXY=     0.0066
 XXXZ=     0.0001 YYYX=     0.0001 YYYZ=    -0.6237 ZZZX=    -0.0005
 ZZZY=     9.4281 XXYY=  -146.6452 XXZZ=   -97.7988 YYZZ=  -104.6336
 XXYZ=    -2.0783 YYXZ=    -0.0007 ZZXY=     0.0004
 N-N= 5.260670792459D+02 E-N=-5.594200569587D+03  KE= 1.916534665320D+03
 Merz-Kollman atomic radii used.
 Read replacement radii for each type of atom:
 Rad(20) =   1.188000000000D+00
 Atom Element Radius
    1     8    1.40
    2     8    1.40
    3     8    1.40
    4    15    1.80
    5    20    1.19
    6    20    1.19

 **********************************************************************

            Electrostatic Properties Using The SCF Density

 **********************************************************************

       Atomic Center    1 is at   0.000021  0.935882 -1.045747
       Atomic Center    2 is at   0.000010 -1.600918  0.120373
       Atomic Center    3 is at   0.000081 -0.571558  1.228273
       Atomic Center    4 is at  -0.000049  1.547432  0.502753
       Atomic Center    5 is at  -1.828589 -0.332987 -0.249107
       Atomic Center    6 is at   1.828581 -0.332949 -0.249117
     631 points will be used for fitting atomic charges
 Fitting point charges to eletrostatic potential
 Charges from ESP fit, RMS=   0.00936 RRMS=   0.05664:
 Charge=   1.00000 Dipole=     0.0149    -3.6454    -3.9737 Tot=     5.3925
              1
     1  O   -0.754200
     2  O   -0.704189
     3  O   -0.492202
     4  P   -0.254906
     5  Ca   1.601882
     6  Ca   1.603616
 -----------------------------------------------------------------

              Electrostatic Properties (Atomic Units)

 -----------------------------------------------------------------
    Center     Electric         -------- Electric Field --------
               Potential          X             Y             Z
 -----------------------------------------------------------------
    1 Atom    -22.217843
    2 Atom    -22.188642
    3 Atom    -22.170392
    4 Atom    -53.994939
    5 Atom    -79.988182
    6 Atom    -79.988184
 -----------------------------------------------------------------
 1\1\GINC-N033\SP\RB3LYP\6-31+G(d,p)\Ca2O3P1(1+)\TIMN\12-Jun-2015\0\\# 
 b3lyp/6-31+G(d,p) int=ultrafine pop=(ReadRadii,MK)\\Ca2PO3_2.mol2_plus
 Q.out.z51550.zip.xyz\\1,1\O,0,0.00002,0.93588,-1.04575\O,0,0.00001,-1.
 60092,0.12037\O,0,0.00008,-0.57156,1.22827\P,0,-0.00005,1.54743,0.5027
 5\Ca,0,-1.82859,-0.33299,-0.24911\Ca,0,1.82858,-0.33295,-0.24912\\Vers
 ion=EM64T-G03RevE.01\State=1-A\HF=-1921.9618468\RMSD=7.739e-05\Thermal
 =0.\Dipole=0.0000685,-1.3613406,-1.6441763\PG=C01 [X(Ca2O3P1)]\\@


 You don't have to suffer to be a poet.
 Adolescence is enough suffering for anyone.
                             -- John Ciardi
 Job cpu time:  0 days  0 hours  0 minutes 30.8 seconds.
 File lengths (MBytes):  RWF=     22 Int=      0 D2E=      0 Chk=     10 Scr=      1
 Normal termination of Gaussian 03 at Fri Jun 12 17:34:36 2015.
