 Entering Gaussian System, Link 0=/home/timn/tmp/g03.e01/g03
 Input=Ca2PO3_1.mol2_plusQc.out.z51539.zip.xyz.gjf
 Output=Ca2PO3_1.mol2_plusQc.out.z51539.zip.xyz.out
 Initial command:
 /home/timn/tmp/g03.e01/l1.exe /home/timn/tmp/g03.e01/Gau-15719.inp -scrdir=/home/timn/tmp/g03.e01/
 Default is to use a total of   2 processors:
                                2 via shared-memory
                                1 via Linda
 Entering Link 1 = /home/timn/tmp/g03.e01/l1.exe PID=     15720.
  
 Copyright (c) 1988,1990,1992,1993,1995,1998,2003,2004,2007, Gaussian, Inc.
                  All Rights Reserved.
  
 This is the Gaussian(R) 03 program.  It is based on the
 the Gaussian(R) 98 system (copyright 1998, Gaussian, Inc.),
 the Gaussian(R) 94 system (copyright 1995, Gaussian, Inc.),
 the Gaussian 92(TM) system (copyright 1992, Gaussian, Inc.),
 the Gaussian 90(TM) system (copyright 1990, Gaussian, Inc.),
 the Gaussian 88(TM) system (copyright 1988, Gaussian, Inc.),
 the Gaussian 86(TM) system (copyright 1986, Carnegie Mellon
 University), and the Gaussian 82(TM) system (copyright 1983,
 Carnegie Mellon University). Gaussian is a federally registered
 trademark of Gaussian, Inc.
  
 This software contains proprietary and confidential information,
 including trade secrets, belonging to Gaussian, Inc.
  
 This software is provided under written license and may be
 used, copied, transmitted, or stored only in accord with that
 written license.
  
 The following legend is applicable only to US Government
 contracts under FAR:
  
                    RESTRICTED RIGHTS LEGEND
  
 Use, reproduction and disclosure by the US Government is
 subject to restrictions as set forth in subparagraphs (a)
 and (c) of the Commercial Computer Software - Restricted
 Rights clause in FAR 52.227-19.
  
 Gaussian, Inc.
 340 Quinnipiac St., Bldg. 40, Wallingford CT 06492
  
  
 ---------------------------------------------------------------
 Warning -- This program may not be used in any manner that
 competes with the business of Gaussian, Inc. or will provide
 assistance to any competitor of Gaussian, Inc.  The licensee
 of this program is prohibited from giving any competitor of
 Gaussian, Inc. access to this program.  By using this program,
 the user acknowledges that Gaussian, Inc. is engaged in the
 business of creating and licensing software in the field of
 computational chemistry and represents and warrants to the
 licensee that it is not a competitor of Gaussian, Inc. and that
 it will not use this program in any manner prohibited above.
 ---------------------------------------------------------------
  

 Cite this work as:
 Gaussian 03, Revision E.01,
 M. J. Frisch, G. W. Trucks, H. B. Schlegel, G. E. Scuseria, 
 M. A. Robb, J. R. Cheeseman, J. A. Montgomery, Jr., T. Vreven, 
 K. N. Kudin, J. C. Burant, J. M. Millam, S. S. Iyengar, J. Tomasi, 
 V. Barone, B. Mennucci, M. Cossi, G. Scalmani, N. Rega, 
 G. A. Petersson, H. Nakatsuji, M. Hada, M. Ehara, K. Toyota, 
 R. Fukuda, J. Hasegawa, M. Ishida, T. Nakajima, Y. Honda, O. Kitao, 
 H. Nakai, M. Klene, X. Li, J. E. Knox, H. P. Hratchian, J. B. Cross, 
 V. Bakken, C. Adamo, J. Jaramillo, R. Gomperts, R. E. Stratmann, 
 O. Yazyev, A. J. Austin, R. Cammi, C. Pomelli, J. W. Ochterski, 
 P. Y. Ayala, K. Morokuma, G. A. Voth, P. Salvador, J. J. Dannenberg, 
 V. G. Zakrzewski, S. Dapprich, A. D. Daniels, M. C. Strain, 
 O. Farkas, D. K. Malick, A. D. Rabuck, K. Raghavachari, 
 J. B. Foresman, J. V. Ortiz, Q. Cui, A. G. Baboul, S. Clifford, 
 J. Cioslowski, B. B. Stefanov, G. Liu, A. Liashenko, P. Piskorz, 
 I. Komaromi, R. L. Martin, D. J. Fox, T. Keith, M. A. Al-Laham, 
 C. Y. Peng, A. Nanayakkara, M. Challacombe, P. M. W. Gill, 
 B. Johnson, W. Chen, M. W. Wong, C. Gonzalez, and J. A. Pople, 
 Gaussian, Inc., Wallingford CT, 2004.
 
 ******************************************
 Gaussian 03:  EM64T-G03RevE.01 11-Sep-2007
                12-Jun-2015 
 ******************************************
 %nproc=2
 Will use up to    2 processors via shared memory.
 Default route:  MP2=Direct MaxDisk=2000MB
 ----------------------------------------------------
 # b3lyp/6-31+G(d,p) int=ultrafine pop=(ReadRadii,MK)
 ----------------------------------------------------

 Warning!  SCF SP cutoffs with diffuse functions may be unreliable.
 Consider SCF=Tight

 1/38=1/1;
 2/17=6,18=5,40=1/2;
 3/5=1,6=6,7=111,11=2,16=1,25=1,30=1,74=-5,75=5/1,2,3;
 4//1;
 5/5=2,32=1,38=5/2;
 6/7=2,8=2,9=2,10=2,15=8,20=101,28=1/1,2;
 99/5=1,9=1/99;
 ---------------------------------------
 Ca2PO3_1.mol2_plusQc.out.z51539.zip.xyz
 ---------------------------------------
 Symbolic Z-matrix:
 Charge =  1 Multiplicity = 1
 O                    -1.29737   1.25938  -0.00001 
 O                     1.25674   1.2966   -0.00008 
 O                     0.02942  -1.91777   0.00017 
 P                    -0.03311   2.15024   0.00007 
 Ca                   -1.85655  -0.96206  -0.00005 
 Ca                    1.88586  -0.9059   -0.00003 
 
                          Input orientation:                          
 ---------------------------------------------------------------------
 Center     Atomic     Atomic              Coordinates (Angstroms)
 Number     Number      Type              X           Y           Z
 ---------------------------------------------------------------------
    1          8             0       -1.297370    1.259380   -0.000010
    2          8             0        1.256740    1.296600   -0.000080
    3          8             0        0.029420   -1.917770    0.000170
    4         15             0       -0.033110    2.150240    0.000070
    5         20             0       -1.856550   -0.962060   -0.000050
    6         20             0        1.885860   -0.905900   -0.000030
 ---------------------------------------------------------------------
                    Distance matrix (angstroms):
                    1          2          3          4          5
     1  O    0.000000
     2  O    2.554381   0.000000
     3  O    3.443059   3.440711   0.000000
     4  P    1.546604   1.546743   4.068491   0.000000
     5  Ca   2.290737   3.846312   2.114300   3.607124   0.000000
     6  Ca   3.849856   2.290589   2.114297   3.608661   3.742831
                    6
     6  Ca   0.000000
 Stoichiometry    Ca2O3P(1+)
 Framework group  C1[X(Ca2O3P)]
 Deg. of freedom    12
 Full point group                 C1
 Largest Abelian subgroup         C1      NOp   1
 Largest concise Abelian subgroup C1      NOp   1
                         Standard orientation:                         
 ---------------------------------------------------------------------
 Center     Atomic     Atomic              Coordinates (Angstroms)
 Number     Number      Type              X           Y           Z
 ---------------------------------------------------------------------
    1          8             0       -1.297405    1.259341   -0.000011
    2          8             0        1.256704    1.296636   -0.000081
    3          8             0        0.029478   -1.917770    0.000169
    4         15             0       -0.033172    2.150238    0.000069
    5         20             0       -1.856520   -0.962116   -0.000051
    6         20             0        1.885888   -0.905846   -0.000031
 ---------------------------------------------------------------------
 Rotational constants (GHZ):      1.5595859      1.5217643      0.7702215
 Standard basis: 6-31+G(d,p) (6D, 7F)
 There are   134 symmetry adapted basis functions of A   symmetry.
 Integral buffers will be    131072 words long.
 Raffenetti 2 integral format.
 Two-electron integral symmetry is turned on.
   134 basis functions,   312 primitive gaussians,   134 cartesian basis functions
    39 alpha electrons       39 beta electrons
       nuclear repulsion energy       473.2378276301 Hartrees.
 NAtoms=    6 NActive=    6 NUniq=    6 SFac= 7.50D-01 NAtFMM=   80 NAOKFM=F Big=F
 One-electron integrals computed using PRISM.
 NBasis=   134 RedAO= T  NBF=   134
 NBsUse=   134 1.00D-06 NBFU=   134
 Harris functional with IExCor=  402 diagonalized for initial guess.
 ExpMin= 7.10D-03 ExpMax= 3.53D+04 ExpMxC= 5.30D+03 IAcc=3 IRadAn=         5 AccDes= 0.00D+00
 HarFok:  IExCor= 402 AccDes= 0.00D+00 IRadAn=         5 IDoV=1
 ScaDFX=  1.000000  1.000000  1.000000  1.000000
 Initial guess orbital symmetries:
       Occupied  (A) (A) (A) (A) (A) (A) (A) (A) (A) (A) (A) (A)
                 (A) (A) (A) (A) (A) (A) (A) (A) (A) (A) (A) (A)
                 (A) (A) (A) (A) (A) (A) (A) (A) (A) (A) (A) (A)
                 (A) (A) (A)
       Virtual   (A) (A) (A) (A) (A) (A) (A) (A) (A) (A) (A) (A)
                 (A) (A) (A) (A) (A) (A) (A) (A) (A) (A) (A) (A)
                 (A) (A) (A) (A) (A) (A) (A) (A) (A) (A) (A) (A)
                 (A) (A) (A) (A) (A) (A) (A) (A) (A) (A) (A) (A)
                 (A) (A) (A) (A) (A) (A) (A) (A) (A) (A) (A) (A)
                 (A) (A) (A) (A) (A) (A) (A) (A) (A) (A) (A) (A)
                 (A) (A) (A) (A) (A) (A) (A) (A) (A) (A) (A) (A)
                 (A) (A) (A) (A) (A) (A) (A) (A) (A) (A) (A)
 The electronic state of the initial guess is 1-A.
 Requested convergence on RMS density matrix=1.00D-04 within 128 cycles.
 Requested convergence on MAX density matrix=1.00D-02.
 Requested convergence on             energy=1.00D-02.
 No special actions if energy rises.
 Keep R1 integrals in memory in canonical form, NReq=    43203134.
 EnCoef did     4 forward-backward iterations
 SCF Done:  E(RB+HF-LYP) =  -1922.13413584     A.U. after    7 cycles
             Convg  =    0.4848D-04             -V/T =  2.0029
             S**2   =   0.0000

 **********************************************************************

            Population analysis using the SCF density.

 **********************************************************************

 Orbital symmetries:
       Occupied  (A) (A) (A) (A) (A) (A) (A) (A) (A) (A) (A) (A)
                 (A) (A) (A) (A) (A) (A) (A) (A) (A) (A) (A) (A)
                 (A) (A) (A) (A) (A) (A) (A) (A) (A) (A) (A) (A)
                 (A) (A) (A)
       Virtual   (A) (A) (A) (A) (A) (A) (A) (A) (A) (A) (A) (A)
                 (A) (A) (A) (A) (A) (A) (A) (A) (A) (A) (A) (A)
                 (A) (A) (A) (A) (A) (A) (A) (A) (A) (A) (A) (A)
                 (A) (A) (A) (A) (A) (A) (A) (A) (A) (A) (A) (A)
                 (A) (A) (A) (A) (A) (A) (A) (A) (A) (A) (A) (A)
                 (A) (A) (A) (A) (A) (A) (A) (A) (A) (A) (A) (A)
                 (A) (A) (A) (A) (A) (A) (A) (A) (A) (A) (A) (A)
                 (A) (A) (A) (A) (A) (A) (A) (A) (A) (A) (A)
 The electronic state is 1-A.
 Alpha  occ. eigenvalues -- -145.52214-145.52213 -77.29928 -19.27754 -19.27712
 Alpha  occ. eigenvalues --  -19.15033 -15.59102 -15.59101 -12.72352 -12.72351
 Alpha  occ. eigenvalues --  -12.72277 -12.72276 -12.72178 -12.72176  -6.75410
 Alpha  occ. eigenvalues --   -4.91852  -4.91632  -4.91192  -1.96272  -1.96252
 Alpha  occ. eigenvalues --   -1.24082  -1.24061  -1.23943  -1.23742  -1.23415
 Alpha  occ. eigenvalues --   -1.22889  -1.13632  -1.08324  -0.89402  -0.67428
 Alpha  occ. eigenvalues --   -0.56980  -0.52458  -0.52387  -0.45563  -0.43668
 Alpha  occ. eigenvalues --   -0.40563  -0.35632  -0.33619  -0.33423
 Alpha virt. eigenvalues --   -0.20920  -0.19681  -0.19651  -0.12837  -0.11779
 Alpha virt. eigenvalues --   -0.11638  -0.10826  -0.10186  -0.07820  -0.07313
 Alpha virt. eigenvalues --   -0.06401  -0.05944  -0.05385  -0.04882  -0.04594
 Alpha virt. eigenvalues --   -0.04467  -0.04405  -0.04224  -0.04053  -0.03404
 Alpha virt. eigenvalues --   -0.02372   0.00300   0.01348   0.02135   0.03098
 Alpha virt. eigenvalues --    0.03996   0.04039   0.04411   0.05016   0.05444
 Alpha virt. eigenvalues --    0.05767   0.06861   0.07327   0.07501   0.07936
 Alpha virt. eigenvalues --    0.08485   0.09740   0.10528   0.14242   0.15051
 Alpha virt. eigenvalues --    0.17274   0.18360   0.19368   0.21140   0.22043
 Alpha virt. eigenvalues --    0.23431   0.25024   0.27308   0.30126   0.31649
 Alpha virt. eigenvalues --    0.31763   0.36709   0.37708   0.44100   0.45627
 Alpha virt. eigenvalues --    0.47684   0.56677   0.57488   0.62228   0.63254
 Alpha virt. eigenvalues --    0.64976   0.82579   0.90718   0.94476   1.05952
 Alpha virt. eigenvalues --    1.06295   1.07842   1.12510   1.15941   1.16938
 Alpha virt. eigenvalues --    1.22243   1.22552   1.24772   1.37402   1.39846
 Alpha virt. eigenvalues --    1.43133   1.66269   1.66502   1.71125   1.71633
 Alpha virt. eigenvalues --    1.80316   1.81393   1.82299   1.85278   1.85680
 Alpha virt. eigenvalues --    1.86390   1.93715   1.97769   2.08907   2.53561
 Alpha virt. eigenvalues --    2.67720   3.38666   3.82230   3.89918   3.93562
          Condensed to atoms (all electrons):
              1          2          3          4          5          6
     1  O    8.836826  -0.080681   0.000989  -0.109530   0.068060   0.000850
     2  O   -0.080681   8.836662   0.000919  -0.109582   0.000804   0.068041
     3  O    0.000989   0.000919   8.751099  -0.013034   0.229839   0.229774
     4  P   -0.109530  -0.109582  -0.013034  14.594757  -0.018759  -0.018696
     5  Ca   0.068060   0.000804   0.229839  -0.018759  18.248053  -0.006697
     6  Ca   0.000850   0.068041   0.229774  -0.018696  -0.006697  18.248010
 Mulliken atomic charges:
              1
     1  O   -0.716513
     2  O   -0.716162
     3  O   -1.199586
     4  P    0.674844
     5  Ca   1.478699
     6  Ca   1.478719
 Sum of Mulliken charges=   1.00000
 Atomic charges with hydrogens summed into heavy atoms:
              1
     1  O   -0.716513
     2  O   -0.716162
     3  O   -1.199586
     4  P    0.674844
     5  Ca   1.478699
     6  Ca   1.478719
 Sum of Mulliken charges=   1.00000
 Electronic spatial extent (au):  <R**2>=  1251.3970
 Charge=     1.0000 electrons
 Dipole moment (field-independent basis, Debye):
    X=     0.0708    Y=    -3.9052    Z=    -0.0012  Tot=     3.9059
 Quadrupole moment (field-independent basis, Debye-Ang):
   XX=    -5.5702   YY=   -61.9079   ZZ=   -49.7218
   XY=     0.8572   XZ=     0.0006   YZ=     0.0027
 Traceless Quadrupole moment (field-independent basis, Debye-Ang):
   XX=    33.4965   YY=   -22.8413   ZZ=   -10.6552
   XY=     0.8572   XZ=     0.0006   YZ=     0.0027
 Octapole moment (field-independent basis, Debye-Ang**2):
  XXX=     3.6717  YYY=    16.7274  ZZZ=    -0.0028  XYY=    -2.5810
  XXY=   -77.6838  XXZ=    -0.0022  XZZ=     0.0734  YZZ=    -4.6364
  YYZ=    -0.0054  XYZ=     0.0002
 Hexadecapole moment (field-independent basis, Debye-Ang**3):
 XXXX=  -358.9939 YYYY=  -875.3393 ZZZZ=   -56.5369 XXXY=     3.1319
 XXXZ=     0.0022 YYYX=     5.0311 YYYZ=     0.0063 ZZZX=     0.0008
 ZZZY=     0.0032 XXYY=  -185.5442 XXZZ=   -96.5834 YYZZ=  -139.1379
 XXYZ=     0.0040 YYXZ=     0.0010 ZZXY=     0.7048
 N-N= 4.732378276301D+02 E-N=-5.489480857516D+03  KE= 1.916552798096D+03
 Merz-Kollman atomic radii used.
 Read replacement radii for each type of atom:
 Rad(20) =   1.188000000000D+00
 Atom Element Radius
    1     8    1.40
    2     8    1.40
    3     8    1.40
    4    15    1.80
    5    20    1.19
    6    20    1.19

 **********************************************************************

            Electrostatic Properties Using The SCF Density

 **********************************************************************

       Atomic Center    1 is at  -1.297405  1.259341 -0.000011
       Atomic Center    2 is at   1.256704  1.296636 -0.000081
       Atomic Center    3 is at   0.029478 -1.917770  0.000169
       Atomic Center    4 is at  -0.033172  2.150238  0.000069
       Atomic Center    5 is at  -1.856520 -0.962116 -0.000051
       Atomic Center    6 is at   1.885888 -0.905846 -0.000031
     666 points will be used for fitting atomic charges
 Fitting point charges to eletrostatic potential
 Charges from ESP fit, RMS=   0.00501 RRMS=   0.03145:
 Charge=   1.00000 Dipole=     0.0811    -3.9132    -0.0014 Tot=     3.9140
              1
     1  O   -0.736439
     2  O   -0.739155
     3  O   -1.528761
     4  P    0.609306
     5  Ca   1.695988
     6  Ca   1.699060
 -----------------------------------------------------------------

              Electrostatic Properties (Atomic Units)

 -----------------------------------------------------------------
    Center     Electric         -------- Electric Field --------
               Potential          X             Y             Z
 -----------------------------------------------------------------
    1 Atom    -22.186903
    2 Atom    -22.185829
    3 Atom    -22.310526
    4 Atom    -53.918181
    5 Atom    -80.019204
    6 Atom    -80.019115
 -----------------------------------------------------------------
 1\1\GINC-N028\SP\RB3LYP\6-31+G(d,p)\Ca2O3P1(1+)\TIMN\12-Jun-2015\0\\# 
 b3lyp/6-31+G(d,p) int=ultrafine pop=(ReadRadii,MK)\\Ca2PO3_1.mol2_plus
 Qc.out.z51539.zip.xyz\\1,1\O,0,-1.29737,1.25938,-0.00001\O,0,1.25674,1
 .2966,-0.00008\O,0,0.02942,-1.91777,0.00017\P,0,-0.03311,2.15024,0.000
 07\Ca,0,-1.85655,-0.96206,-0.00005\Ca,0,1.88586,-0.9059,-0.00003\\Vers
 ion=EM64T-G03RevE.01\State=1-A\HF=-1922.1341358\RMSD=4.848e-05\Thermal
 =0.\Dipole=0.027803,-1.5364344,-0.0004701\PG=C01 [X(Ca2O3P1)]\\@


 BE LIKE A POSTAGE STAMP.  STICK TO ONE THING UNTIL
 YOU GET THERE -- JOSH BILLINGS
 Job cpu time:  0 days  0 hours  0 minutes 29.3 seconds.
 File lengths (MBytes):  RWF=     22 Int=      0 D2E=      0 Chk=     10 Scr=      1
 Normal termination of Gaussian 03 at Fri Jun 12 17:34:37 2015.
