 Entering Gaussian System, Link 0=/home/timn/tmp/g03.e01/g03
 Input=Ca2PO3_15.mol2_plusQ.out.z51534.zip.xyz.gjf
 Output=Ca2PO3_15.mol2_plusQ.out.z51534.zip.xyz.out
 Initial command:
 /home/timn/tmp/g03.e01/l1.exe /home/timn/tmp/g03.e01/Gau-16666.inp -scrdir=/home/timn/tmp/g03.e01/
 Default is to use a total of   2 processors:
                                2 via shared-memory
                                1 via Linda
 Entering Link 1 = /home/timn/tmp/g03.e01/l1.exe PID=     16668.
  
 Copyright (c) 1988,1990,1992,1993,1995,1998,2003,2004,2007, Gaussian, Inc.
                  All Rights Reserved.
  
 This is the Gaussian(R) 03 program.  It is based on the
 the Gaussian(R) 98 system (copyright 1998, Gaussian, Inc.),
 the Gaussian(R) 94 system (copyright 1995, Gaussian, Inc.),
 the Gaussian 92(TM) system (copyright 1992, Gaussian, Inc.),
 the Gaussian 90(TM) system (copyright 1990, Gaussian, Inc.),
 the Gaussian 88(TM) system (copyright 1988, Gaussian, Inc.),
 the Gaussian 86(TM) system (copyright 1986, Carnegie Mellon
 University), and the Gaussian 82(TM) system (copyright 1983,
 Carnegie Mellon University). Gaussian is a federally registered
 trademark of Gaussian, Inc.
  
 This software contains proprietary and confidential information,
 including trade secrets, belonging to Gaussian, Inc.
  
 This software is provided under written license and may be
 used, copied, transmitted, or stored only in accord with that
 written license.
  
 The following legend is applicable only to US Government
 contracts under FAR:
  
                    RESTRICTED RIGHTS LEGEND
  
 Use, reproduction and disclosure by the US Government is
 subject to restrictions as set forth in subparagraphs (a)
 and (c) of the Commercial Computer Software - Restricted
 Rights clause in FAR 52.227-19.
  
 Gaussian, Inc.
 340 Quinnipiac St., Bldg. 40, Wallingford CT 06492
  
  
 ---------------------------------------------------------------
 Warning -- This program may not be used in any manner that
 competes with the business of Gaussian, Inc. or will provide
 assistance to any competitor of Gaussian, Inc.  The licensee
 of this program is prohibited from giving any competitor of
 Gaussian, Inc. access to this program.  By using this program,
 the user acknowledges that Gaussian, Inc. is engaged in the
 business of creating and licensing software in the field of
 computational chemistry and represents and warrants to the
 licensee that it is not a competitor of Gaussian, Inc. and that
 it will not use this program in any manner prohibited above.
 ---------------------------------------------------------------
  

 Cite this work as:
 Gaussian 03, Revision E.01,
 M. J. Frisch, G. W. Trucks, H. B. Schlegel, G. E. Scuseria, 
 M. A. Robb, J. R. Cheeseman, J. A. Montgomery, Jr., T. Vreven, 
 K. N. Kudin, J. C. Burant, J. M. Millam, S. S. Iyengar, J. Tomasi, 
 V. Barone, B. Mennucci, M. Cossi, G. Scalmani, N. Rega, 
 G. A. Petersson, H. Nakatsuji, M. Hada, M. Ehara, K. Toyota, 
 R. Fukuda, J. Hasegawa, M. Ishida, T. Nakajima, Y. Honda, O. Kitao, 
 H. Nakai, M. Klene, X. Li, J. E. Knox, H. P. Hratchian, J. B. Cross, 
 V. Bakken, C. Adamo, J. Jaramillo, R. Gomperts, R. E. Stratmann, 
 O. Yazyev, A. J. Austin, R. Cammi, C. Pomelli, J. W. Ochterski, 
 P. Y. Ayala, K. Morokuma, G. A. Voth, P. Salvador, J. J. Dannenberg, 
 V. G. Zakrzewski, S. Dapprich, A. D. Daniels, M. C. Strain, 
 O. Farkas, D. K. Malick, A. D. Rabuck, K. Raghavachari, 
 J. B. Foresman, J. V. Ortiz, Q. Cui, A. G. Baboul, S. Clifford, 
 J. Cioslowski, B. B. Stefanov, G. Liu, A. Liashenko, P. Piskorz, 
 I. Komaromi, R. L. Martin, D. J. Fox, T. Keith, M. A. Al-Laham, 
 C. Y. Peng, A. Nanayakkara, M. Challacombe, P. M. W. Gill, 
 B. Johnson, W. Chen, M. W. Wong, C. Gonzalez, and J. A. Pople, 
 Gaussian, Inc., Wallingford CT, 2004.
 
 ******************************************
 Gaussian 03:  EM64T-G03RevE.01 11-Sep-2007
                12-Jun-2015 
 ******************************************
 %nproc=2
 Will use up to    2 processors via shared memory.
 Default route:  MP2=Direct MaxDisk=2000MB
 ----------------------------------------------------
 # b3lyp/6-31+G(d,p) int=ultrafine pop=(ReadRadii,MK)
 ----------------------------------------------------

 Warning!  SCF SP cutoffs with diffuse functions may be unreliable.
 Consider SCF=Tight

 1/38=1/1;
 2/17=6,18=5,40=1/2;
 3/5=1,6=6,7=111,11=2,16=1,25=1,30=1,74=-5,75=5/1,2,3;
 4//1;
 5/5=2,32=1,38=5/2;
 6/7=2,8=2,9=2,10=2,15=8,20=101,28=1/1,2;
 99/5=1,9=1/99;
 ---------------------------------------
 Ca2PO3_15.mol2_plusQ.out.z51534.zip.xyz
 ---------------------------------------
 Symbolic Z-matrix:
 Charge =  1 Multiplicity = 1
 O                    -1.32744   1.24763  -0.40868 
 O                    -0.00001  -0.72478   0.57437 
 O                     1.32748   1.24766  -0.40858 
 P                     0.00002   1.11919   0.45752 
 Ca                    2.12658  -0.77382  -0.123 
 Ca                   -2.12661  -0.77378  -0.12298 
 
                          Input orientation:                          
 ---------------------------------------------------------------------
 Center     Atomic     Atomic              Coordinates (Angstroms)
 Number     Number      Type              X           Y           Z
 ---------------------------------------------------------------------
    1          8             0       -1.327440    1.247630   -0.408680
    2          8             0       -0.000010   -0.724780    0.574370
    3          8             0        1.327480    1.247660   -0.408580
    4         15             0        0.000020    1.119190    0.457520
    5         20             0        2.126580   -0.773820   -0.123000
    6         20             0       -2.126610   -0.773780   -0.122980
 ---------------------------------------------------------------------
                    Distance matrix (angstroms):
                    1          2          3          4          5
     1  O    0.000000
     2  O    2.572714   0.000000
     3  O    2.654920   2.572730   0.000000
     4  P    1.590267   1.847669   1.590215   0.000000
     5  Ca   4.012247   2.238552   2.192373   2.905641   0.000000
     6  Ca   2.192349   2.238554   4.012297   2.905662   4.253190
                    6
     6  Ca   0.000000
 Stoichiometry    Ca2O3P(1+)
 Framework group  C1[X(Ca2O3P)]
 Deg. of freedom    12
 Full point group                 C1
 Largest Abelian subgroup         C1      NOp   1
 Largest concise Abelian subgroup C1      NOp   1
                         Standard orientation:                         
 ---------------------------------------------------------------------
 Center     Atomic     Atomic              Coordinates (Angstroms)
 Number     Number      Type              X           Y           Z
 ---------------------------------------------------------------------
    1          8             0       -1.327440    1.247630   -0.408681
    2          8             0       -0.000009   -0.724779    0.574369
    3          8             0        1.327480    1.247662   -0.408581
    4         15             0        0.000020    1.119191    0.457519
    5         20             0        2.126581   -0.773817   -0.123001
    6         20             0       -2.126609   -0.773781   -0.122981
 ---------------------------------------------------------------------
 Rotational constants (GHZ):      3.0975688      1.1587735      0.8981788
 Standard basis: 6-31+G(d,p) (6D, 7F)
 There are   134 symmetry adapted basis functions of A   symmetry.
 Integral buffers will be    131072 words long.
 Raffenetti 2 integral format.
 Two-electron integral symmetry is turned on.
   134 basis functions,   312 primitive gaussians,   134 cartesian basis functions
    39 alpha electrons       39 beta electrons
       nuclear repulsion energy       507.4457655858 Hartrees.
 NAtoms=    6 NActive=    6 NUniq=    6 SFac= 7.50D-01 NAtFMM=   80 NAOKFM=F Big=F
 One-electron integrals computed using PRISM.
 NBasis=   134 RedAO= T  NBF=   134
 NBsUse=   134 1.00D-06 NBFU=   134
 Harris functional with IExCor=  402 diagonalized for initial guess.
 ExpMin= 7.10D-03 ExpMax= 3.53D+04 ExpMxC= 5.30D+03 IAcc=3 IRadAn=         5 AccDes= 0.00D+00
 HarFok:  IExCor= 402 AccDes= 0.00D+00 IRadAn=         5 IDoV=1
 ScaDFX=  1.000000  1.000000  1.000000  1.000000
 Initial guess orbital symmetries:
       Occupied  (A) (A) (A) (A) (A) (A) (A) (A) (A) (A) (A) (A)
                 (A) (A) (A) (A) (A) (A) (A) (A) (A) (A) (A) (A)
                 (A) (A) (A) (A) (A) (A) (A) (A) (A) (A) (A) (A)
                 (A) (A) (A)
       Virtual   (A) (A) (A) (A) (A) (A) (A) (A) (A) (A) (A) (A)
                 (A) (A) (A) (A) (A) (A) (A) (A) (A) (A) (A) (A)
                 (A) (A) (A) (A) (A) (A) (A) (A) (A) (A) (A) (A)
                 (A) (A) (A) (A) (A) (A) (A) (A) (A) (A) (A) (A)
                 (A) (A) (A) (A) (A) (A) (A) (A) (A) (A) (A) (A)
                 (A) (A) (A) (A) (A) (A) (A) (A) (A) (A) (A) (A)
                 (A) (A) (A) (A) (A) (A) (A) (A) (A) (A) (A) (A)
                 (A) (A) (A) (A) (A) (A) (A) (A) (A) (A) (A)
 The electronic state of the initial guess is 1-A.
 Requested convergence on RMS density matrix=1.00D-04 within 128 cycles.
 Requested convergence on MAX density matrix=1.00D-02.
 Requested convergence on             energy=1.00D-02.
 No special actions if energy rises.
 Keep R1 integrals in memory in canonical form, NReq=    43203134.
 SCF Done:  E(RB+HF-LYP) =  -1922.11511708     A.U. after    9 cycles
             Convg  =    0.2528D-04             -V/T =  2.0029
             S**2   =   0.0000

 **********************************************************************

            Population analysis using the SCF density.

 **********************************************************************

 Orbital symmetries:
       Occupied  (A) (A) (A) (A) (A) (A) (A) (A) (A) (A) (A) (A)
                 (A) (A) (A) (A) (A) (A) (A) (A) (A) (A) (A) (A)
                 (A) (A) (A) (A) (A) (A) (A) (A) (A) (A) (A) (A)
                 (A) (A) (A)
       Virtual   (A) (A) (A) (A) (A) (A) (A) (A) (A) (A) (A) (A)
                 (A) (A) (A) (A) (A) (A) (A) (A) (A) (A) (A) (A)
                 (A) (A) (A) (A) (A) (A) (A) (A) (A) (A) (A) (A)
                 (A) (A) (A) (A) (A) (A) (A) (A) (A) (A) (A) (A)
                 (A) (A) (A) (A) (A) (A) (A) (A) (A) (A) (A) (A)
                 (A) (A) (A) (A) (A) (A) (A) (A) (A) (A) (A) (A)
                 (A) (A) (A) (A) (A) (A) (A) (A) (A) (A) (A) (A)
                 (A) (A) (A) (A) (A) (A) (A) (A) (A) (A) (A)
 The electronic state is 1-A.
 Alpha  occ. eigenvalues -- -145.55249-145.55246 -77.25375 -19.23089 -19.21326
 Alpha  occ. eigenvalues --  -19.21322 -15.62117 -15.62114 -12.75349 -12.75348
 Alpha  occ. eigenvalues --  -12.75252 -12.75251 -12.75247 -12.75246  -6.70498
 Alpha  occ. eigenvalues --   -4.86938  -4.86770  -4.86350  -1.99209  -1.99204
 Alpha  occ. eigenvalues --   -1.26923  -1.26867  -1.26820  -1.26552  -1.26386
 Alpha  occ. eigenvalues --   -1.26230  -1.07512  -1.02042  -0.99992  -0.62159
 Alpha  occ. eigenvalues --   -0.50867  -0.50189  -0.47810  -0.45052  -0.41388
 Alpha  occ. eigenvalues --   -0.38991  -0.38574  -0.38398  -0.30815
 Alpha virt. eigenvalues --   -0.22939  -0.22530  -0.15326  -0.13941  -0.13374
 Alpha virt. eigenvalues --   -0.12381  -0.11218  -0.09563  -0.07960  -0.06772
 Alpha virt. eigenvalues --   -0.05900  -0.05584  -0.05237  -0.04657  -0.04652
 Alpha virt. eigenvalues --   -0.04395  -0.03668  -0.02904  -0.02284  -0.01334
 Alpha virt. eigenvalues --   -0.00719   0.00911   0.01016   0.01555   0.02564
 Alpha virt. eigenvalues --    0.02845   0.03286   0.03339   0.04001   0.04129
 Alpha virt. eigenvalues --    0.04954   0.05637   0.05960   0.07331   0.07537
 Alpha virt. eigenvalues --    0.08499   0.09901   0.11104   0.14700   0.16356
 Alpha virt. eigenvalues --    0.18865   0.19202   0.20700   0.21508   0.22024
 Alpha virt. eigenvalues --    0.23226   0.25402   0.28515   0.29898   0.31322
 Alpha virt. eigenvalues --    0.34333   0.36362   0.38501   0.40285   0.42989
 Alpha virt. eigenvalues --    0.45350   0.58235   0.62658   0.65991   0.67343
 Alpha virt. eigenvalues --    0.78805   0.83604   0.88090   0.95268   1.10590
 Alpha virt. eigenvalues --    1.15219   1.16169   1.17258   1.19170   1.20606
 Alpha virt. eigenvalues --    1.21678   1.22785   1.24246   1.47153   1.51605
 Alpha virt. eigenvalues --    1.58539   1.71451   1.74293   1.75075   1.75954
 Alpha virt. eigenvalues --    1.79034   1.82377   1.83915   1.86252   1.89063
 Alpha virt. eigenvalues --    1.94494   1.98048   2.09239   2.20806   2.60147
 Alpha virt. eigenvalues --    2.67756   3.48943   3.96680   3.99316   4.02849
          Condensed to atoms (all electrons):
              1          2          3          4          5          6
     1  O    8.862782   0.022781   0.080322  -0.332333   0.017480   0.147388
     2  O    0.022781   9.061849   0.022772  -0.228511   0.094899   0.094898
     3  O    0.080322   0.022772   8.862685  -0.332324   0.147391   0.017484
     4  P   -0.332333  -0.228511  -0.332324  15.049837   0.018546   0.018538
     5  Ca   0.017480   0.094899   0.147391   0.018546  18.284515   0.007586
     6  Ca   0.147388   0.094898   0.017484   0.018538   0.007586  18.284498
 Mulliken atomic charges:
              1
     1  O   -0.798420
     2  O   -1.068688
     3  O   -0.798329
     4  P    0.806248
     5  Ca   1.429582
     6  Ca   1.429607
 Sum of Mulliken charges=   1.00000
 Atomic charges with hydrogens summed into heavy atoms:
              1
     1  O   -0.798420
     2  O   -1.068688
     3  O   -0.798329
     4  P    0.806248
     5  Ca   1.429582
     6  Ca   1.429607
 Sum of Mulliken charges=   1.00000
 Electronic spatial extent (au):  <R**2>=  1114.5339
 Charge=     1.0000 electrons
 Dipole moment (field-independent basis, Debye):
    X=     0.0002    Y=   -13.0190    Z=    -1.2207  Tot=    13.0761
 Quadrupole moment (field-independent basis, Debye-Ang):
   XX=     4.3686   YY=   -53.9021   ZZ=   -56.6511
   XY=     0.0004   XZ=    -0.0008   YZ=     6.3182
 Traceless Quadrupole moment (field-independent basis, Debye-Ang):
   XX=    39.7635   YY=   -18.5072   ZZ=   -21.2562
   XY=     0.0004   XZ=    -0.0008   YZ=     6.3182
 Octapole moment (field-independent basis, Debye-Ang**2):
  XXX=    -0.0048  YYY=   -35.7516  ZZZ=    -8.7828  XYY=     0.0010
  XXY=   -81.8712  XXZ=    -2.6928  XZZ=     0.0003  YZZ=   -12.3260
  YYZ=    -2.3205  XYZ=    -0.0005
 Hexadecapole moment (field-independent basis, Debye-Ang**3):
 XXXX=  -391.7360 YYYY=  -376.2260 ZZZZ=  -126.7878 XXXY=     0.0004
 XXXZ=    -0.0028 YYYX=     0.0003 YYYZ=     7.1100 ZZZX=    -0.0012
 ZZZY=     0.8599 XXYY=  -160.1235 XXZZ=  -135.8565 YYZZ=   -89.3917
 XXYZ=    14.2518 YYXZ=    -0.0012 ZZXY=     0.0006
 N-N= 5.074457655858D+02 E-N=-5.557783273021D+03  KE= 1.916581096580D+03
 Merz-Kollman atomic radii used.
 Read replacement radii for each type of atom:
 Rad(20) =   1.188000000000D+00
 Atom Element Radius
    1     8    1.40
    2     8    1.40
    3     8    1.40
    4    15    1.80
    5    20    1.19
    6    20    1.19

 **********************************************************************

            Electrostatic Properties Using The SCF Density

 **********************************************************************

       Atomic Center    1 is at  -1.327440  1.247630 -0.408681
       Atomic Center    2 is at  -0.000009 -0.724779  0.574369
       Atomic Center    3 is at   1.327480  1.247662 -0.408581
       Atomic Center    4 is at   0.000020  1.119191  0.457519
       Atomic Center    5 is at   2.126581 -0.773817 -0.123001
       Atomic Center    6 is at  -2.126609 -0.773781 -0.122981
     609 points will be used for fitting atomic charges
 Fitting point charges to eletrostatic potential
 Charges from ESP fit, RMS=   0.00901 RRMS=   0.05272:
 Charge=   1.00000 Dipole=    -0.0168   -13.5944    -1.3963 Tot=    13.6659
              1
     1  O   -0.719417
     2  O   -1.227696
     3  O   -0.716885
     4  P    0.479198
     5  Ca   1.590799
     6  Ca   1.594000
 -----------------------------------------------------------------

              Electrostatic Properties (Atomic Units)

 -----------------------------------------------------------------
    Center     Electric         -------- Electric Field --------
               Potential          X             Y             Z
 -----------------------------------------------------------------
    1 Atom    -22.252031
    2 Atom    -22.235205
    3 Atom    -22.251895
    4 Atom    -53.960605
    5 Atom    -79.989237
    6 Atom    -79.989243
 -----------------------------------------------------------------
 1\1\GINC-N025\SP\RB3LYP\6-31+G(d,p)\Ca2O3P1(1+)\TIMN\12-Jun-2015\0\\# 
 b3lyp/6-31+G(d,p) int=ultrafine pop=(ReadRadii,MK)\\Ca2PO3_15.mol2_plu
 sQ.out.z51534.zip.xyz\\1,1\O,0,-1.32744,1.24763,-0.40868\O,0,-0.00001,
 -0.72478,0.57437\O,0,1.32748,1.24766,-0.40858\P,0,0.00002,1.11919,0.45
 752\Ca,0,2.12658,-0.77382,-0.123\Ca,0,-2.12661,-0.77378,-0.12298\\Vers
 ion=EM64T-G03RevE.01\State=1-A\HF=-1922.1151171\RMSD=2.528e-05\Thermal
 =0.\Dipole=0.0000881,-5.122067,-0.4802425\PG=C01 [X(Ca2O3P1)]\\@


 KEEP CLOSE TO NATURES HEART, YOURSELF;
 AND BREAK CLEAR AWAY, ONCE IN A WHILE, AND
 CLIMB A MOUNTAIN OR SPEND A WEEK IN THE
 WOODS.  WASH YOUR SPIRIT CLEAN...
                                         -- JOHN MUIR
 Job cpu time:  0 days  0 hours  0 minutes 37.3 seconds.
 File lengths (MBytes):  RWF=     22 Int=      0 D2E=      0 Chk=     10 Scr=      1
 Normal termination of Gaussian 03 at Fri Jun 12 17:34:43 2015.
