 Entering Gaussian System, Link 0=/home/timn/tmp/g03.e01/g03
 Input=Ca2PO3_24.mol2_plusQ.out.z51544.zip.xyz.gjf
 Output=Ca2PO3_24.mol2_plusQ.out.z51544.zip.xyz.out
 Initial command:
 /home/timn/tmp/g03.e01/l1.exe /home/timn/tmp/g03.e01/Gau-13344.inp -scrdir=/home/timn/tmp/g03.e01/
 Default is to use a total of   2 processors:
                                2 via shared-memory
                                1 via Linda
 Entering Link 1 = /home/timn/tmp/g03.e01/l1.exe PID=     13346.
  
 Copyright (c) 1988,1990,1992,1993,1995,1998,2003,2004,2007, Gaussian, Inc.
                  All Rights Reserved.
  
 This is the Gaussian(R) 03 program.  It is based on the
 the Gaussian(R) 98 system (copyright 1998, Gaussian, Inc.),
 the Gaussian(R) 94 system (copyright 1995, Gaussian, Inc.),
 the Gaussian 92(TM) system (copyright 1992, Gaussian, Inc.),
 the Gaussian 90(TM) system (copyright 1990, Gaussian, Inc.),
 the Gaussian 88(TM) system (copyright 1988, Gaussian, Inc.),
 the Gaussian 86(TM) system (copyright 1986, Carnegie Mellon
 University), and the Gaussian 82(TM) system (copyright 1983,
 Carnegie Mellon University). Gaussian is a federally registered
 trademark of Gaussian, Inc.
  
 This software contains proprietary and confidential information,
 including trade secrets, belonging to Gaussian, Inc.
  
 This software is provided under written license and may be
 used, copied, transmitted, or stored only in accord with that
 written license.
  
 The following legend is applicable only to US Government
 contracts under FAR:
  
                    RESTRICTED RIGHTS LEGEND
  
 Use, reproduction and disclosure by the US Government is
 subject to restrictions as set forth in subparagraphs (a)
 and (c) of the Commercial Computer Software - Restricted
 Rights clause in FAR 52.227-19.
  
 Gaussian, Inc.
 340 Quinnipiac St., Bldg. 40, Wallingford CT 06492
  
  
 ---------------------------------------------------------------
 Warning -- This program may not be used in any manner that
 competes with the business of Gaussian, Inc. or will provide
 assistance to any competitor of Gaussian, Inc.  The licensee
 of this program is prohibited from giving any competitor of
 Gaussian, Inc. access to this program.  By using this program,
 the user acknowledges that Gaussian, Inc. is engaged in the
 business of creating and licensing software in the field of
 computational chemistry and represents and warrants to the
 licensee that it is not a competitor of Gaussian, Inc. and that
 it will not use this program in any manner prohibited above.
 ---------------------------------------------------------------
  

 Cite this work as:
 Gaussian 03, Revision E.01,
 M. J. Frisch, G. W. Trucks, H. B. Schlegel, G. E. Scuseria, 
 M. A. Robb, J. R. Cheeseman, J. A. Montgomery, Jr., T. Vreven, 
 K. N. Kudin, J. C. Burant, J. M. Millam, S. S. Iyengar, J. Tomasi, 
 V. Barone, B. Mennucci, M. Cossi, G. Scalmani, N. Rega, 
 G. A. Petersson, H. Nakatsuji, M. Hada, M. Ehara, K. Toyota, 
 R. Fukuda, J. Hasegawa, M. Ishida, T. Nakajima, Y. Honda, O. Kitao, 
 H. Nakai, M. Klene, X. Li, J. E. Knox, H. P. Hratchian, J. B. Cross, 
 V. Bakken, C. Adamo, J. Jaramillo, R. Gomperts, R. E. Stratmann, 
 O. Yazyev, A. J. Austin, R. Cammi, C. Pomelli, J. W. Ochterski, 
 P. Y. Ayala, K. Morokuma, G. A. Voth, P. Salvador, J. J. Dannenberg, 
 V. G. Zakrzewski, S. Dapprich, A. D. Daniels, M. C. Strain, 
 O. Farkas, D. K. Malick, A. D. Rabuck, K. Raghavachari, 
 J. B. Foresman, J. V. Ortiz, Q. Cui, A. G. Baboul, S. Clifford, 
 J. Cioslowski, B. B. Stefanov, G. Liu, A. Liashenko, P. Piskorz, 
 I. Komaromi, R. L. Martin, D. J. Fox, T. Keith, M. A. Al-Laham, 
 C. Y. Peng, A. Nanayakkara, M. Challacombe, P. M. W. Gill, 
 B. Johnson, W. Chen, M. W. Wong, C. Gonzalez, and J. A. Pople, 
 Gaussian, Inc., Wallingford CT, 2004.
 
 ******************************************
 Gaussian 03:  EM64T-G03RevE.01 11-Sep-2007
                12-Jun-2015 
 ******************************************
 %nproc=2
 Will use up to    2 processors via shared memory.
 Default route:  MP2=Direct MaxDisk=2000MB
 ----------------------------------------------------
 # b3lyp/6-31+G(d,p) int=ultrafine pop=(ReadRadii,MK)
 ----------------------------------------------------

 Warning!  SCF SP cutoffs with diffuse functions may be unreliable.
 Consider SCF=Tight

 1/38=1/1;
 2/17=6,18=5,40=1/2;
 3/5=1,6=6,7=111,11=2,16=1,25=1,30=1,74=-5,75=5/1,2,3;
 4//1;
 5/5=2,32=1,38=5/2;
 6/7=2,8=2,9=2,10=2,15=8,20=101,28=1/1,2;
 99/5=1,9=1/99;
 ---------------------------------------
 Ca2PO3_24.mol2_plusQ.out.z51544.zip.xyz
 ---------------------------------------
 Symbolic Z-matrix:
 Charge =  1 Multiplicity = 1
 O                     1.68214   1.2059   -0.0001 
 O                    -0.25969   0.01524   1.20639 
 O                    -0.2596    0.01477  -1.20632 
 P                     0.11918   1.18265  -0.0001 
 Ca                   -2.14512  -0.34349   0. 
 Ca                    1.59059  -1.03787   0.00008 
 
                          Input orientation:                          
 ---------------------------------------------------------------------
 Center     Atomic     Atomic              Coordinates (Angstroms)
 Number     Number      Type              X           Y           Z
 ---------------------------------------------------------------------
    1          8             0        1.682140    1.205900   -0.000100
    2          8             0       -0.259690    0.015240    1.206390
    3          8             0       -0.259600    0.014770   -1.206320
    4         15             0        0.119180    1.182650   -0.000100
    5         20             0       -2.145120   -0.343490    0.000000
    6         20             0        1.590590   -1.037870    0.000080
 ---------------------------------------------------------------------
                    Distance matrix (angstroms):
                    1          2          3          4          5
     1  O    0.000000
     2  O    2.577594   0.000000
     3  O    2.577617   2.412710   0.000000
     4  P    1.563133   1.721048   1.721158   0.000000
     5  Ca   4.128986   2.266916   2.266880   2.730597   0.000000
     6  Ca   2.245637   2.446990   2.446764   2.663786   3.799696
                    6
     6  Ca   0.000000
 Stoichiometry    Ca2O3P(1+)
 Framework group  C1[X(Ca2O3P)]
 Deg. of freedom    12
 Full point group                 C1
 Largest Abelian subgroup         C1      NOp   1
 Largest concise Abelian subgroup C1      NOp   1
                         Standard orientation:                         
 ---------------------------------------------------------------------
 Center     Atomic     Atomic              Coordinates (Angstroms)
 Number     Number      Type              X           Y           Z
 ---------------------------------------------------------------------
    1          8             0        1.682140    1.205904   -0.000098
    2          8             0       -0.259689    0.015242    1.206392
    3          8             0       -0.259599    0.014772   -1.206318
    4         15             0        0.119180    1.182652   -0.000098
    5         20             0       -2.145118   -0.343491    0.000002
    6         20             0        1.590593   -1.037866    0.000082
 ---------------------------------------------------------------------
 Rotational constants (GHZ):      3.1410326      1.3320335      1.1301193
 Standard basis: 6-31+G(d,p) (6D, 7F)
 There are   134 symmetry adapted basis functions of A   symmetry.
 Integral buffers will be    131072 words long.
 Raffenetti 2 integral format.
 Two-electron integral symmetry is turned on.
   134 basis functions,   312 primitive gaussians,   134 cartesian basis functions
    39 alpha electrons       39 beta electrons
       nuclear repulsion energy       530.2879803597 Hartrees.
 NAtoms=    6 NActive=    6 NUniq=    6 SFac= 7.50D-01 NAtFMM=   80 NAOKFM=F Big=F
 One-electron integrals computed using PRISM.
 NBasis=   134 RedAO= T  NBF=   134
 NBsUse=   134 1.00D-06 NBFU=   134
 Harris functional with IExCor=  402 diagonalized for initial guess.
 ExpMin= 7.10D-03 ExpMax= 3.53D+04 ExpMxC= 5.30D+03 IAcc=3 IRadAn=         5 AccDes= 0.00D+00
 HarFok:  IExCor= 402 AccDes= 0.00D+00 IRadAn=         5 IDoV=1
 ScaDFX=  1.000000  1.000000  1.000000  1.000000
 Initial guess orbital symmetries:
       Occupied  (A) (A) (A) (A) (A) (A) (A) (A) (A) (A) (A) (A)
                 (A) (A) (A) (A) (A) (A) (A) (A) (A) (A) (A) (A)
                 (A) (A) (A) (A) (A) (A) (A) (A) (A) (A) (A) (A)
                 (A) (A) (A)
       Virtual   (A) (A) (A) (A) (A) (A) (A) (A) (A) (A) (A) (A)
                 (A) (A) (A) (A) (A) (A) (A) (A) (A) (A) (A) (A)
                 (A) (A) (A) (A) (A) (A) (A) (A) (A) (A) (A) (A)
                 (A) (A) (A) (A) (A) (A) (A) (A) (A) (A) (A) (A)
                 (A) (A) (A) (A) (A) (A) (A) (A) (A) (A) (A) (A)
                 (A) (A) (A) (A) (A) (A) (A) (A) (A) (A) (A) (A)
                 (A) (A) (A) (A) (A) (A) (A) (A) (A) (A) (A) (A)
                 (A) (A) (A) (A) (A) (A) (A) (A) (A) (A) (A)
 The electronic state of the initial guess is 1-A.
 Requested convergence on RMS density matrix=1.00D-04 within 128 cycles.
 Requested convergence on MAX density matrix=1.00D-02.
 Requested convergence on             energy=1.00D-02.
 No special actions if energy rises.
 Keep R1 integrals in memory in canonical form, NReq=    43203127.
 SCF Done:  E(RB+HF-LYP) =  -1922.10492681     A.U. after    9 cycles
             Convg  =    0.5311D-04             -V/T =  2.0029
             S**2   =   0.0000

 **********************************************************************

            Population analysis using the SCF density.

 **********************************************************************

 Orbital symmetries:
       Occupied  (A) (A) (A) (A) (A) (A) (A) (A) (A) (A) (A) (A)
                 (A) (A) (A) (A) (A) (A) (A) (A) (A) (A) (A) (A)
                 (A) (A) (A) (A) (A) (A) (A) (A) (A) (A) (A) (A)
                 (A) (A) (A)
       Virtual   (A) (A) (A) (A) (A) (A) (A) (A) (A) (A) (A) (A)
                 (A) (A) (A) (A) (A) (A) (A) (A) (A) (A) (A) (A)
                 (A) (A) (A) (A) (A) (A) (A) (A) (A) (A) (A) (A)
                 (A) (A) (A) (A) (A) (A) (A) (A) (A) (A) (A) (A)
                 (A) (A) (A) (A) (A) (A) (A) (A) (A) (A) (A) (A)
                 (A) (A) (A) (A) (A) (A) (A) (A) (A) (A) (A) (A)
                 (A) (A) (A) (A) (A) (A) (A) (A) (A) (A) (A) (A)
                 (A) (A) (A) (A) (A) (A) (A) (A) (A) (A) (A)
 The electronic state is 1-A.
 Alpha  occ. eigenvalues -- -145.57785-145.54903 -77.26330 -19.22768 -19.22700
 Alpha  occ. eigenvalues --  -19.21831 -15.64610 -15.61712 -12.77850 -12.77756
 Alpha  occ. eigenvalues --  -12.77741 -12.74898 -12.74888 -12.74874  -6.71705
 Alpha  occ. eigenvalues --   -4.88052  -4.88017  -4.87589  -2.01597  -1.98709
 Alpha  occ. eigenvalues --   -1.29328  -1.28952  -1.28656  -1.26544  -1.25952
 Alpha  occ. eigenvalues --   -1.25949  -1.08725  -1.02511  -1.00435  -0.63349
 Alpha  occ. eigenvalues --   -0.50761  -0.50404  -0.50207  -0.44676  -0.43283
 Alpha  occ. eigenvalues --   -0.40100  -0.38492  -0.36471  -0.33910
 Alpha virt. eigenvalues --   -0.24120  -0.21781  -0.16319  -0.14446  -0.13105
 Alpha virt. eigenvalues --   -0.12336  -0.10459  -0.08307  -0.08100  -0.07090
 Alpha virt. eigenvalues --   -0.06602  -0.06403  -0.05488  -0.05411  -0.04906
 Alpha virt. eigenvalues --   -0.04524  -0.04346  -0.03608  -0.02543  -0.01875
 Alpha virt. eigenvalues --   -0.01266   0.00051   0.00727   0.02055   0.02110
 Alpha virt. eigenvalues --    0.02190   0.02750   0.03654   0.04210   0.04329
 Alpha virt. eigenvalues --    0.04859   0.05788   0.06514   0.07158   0.07721
 Alpha virt. eigenvalues --    0.08605   0.11483   0.12602   0.15250   0.16909
 Alpha virt. eigenvalues --    0.18399   0.18465   0.19276   0.20504   0.22388
 Alpha virt. eigenvalues --    0.23341   0.25948   0.28543   0.30779   0.31403
 Alpha virt. eigenvalues --    0.32038   0.36876   0.37595   0.42001   0.42206
 Alpha virt. eigenvalues --    0.45119   0.52860   0.57691   0.58745   0.74169
 Alpha virt. eigenvalues --    0.80874   0.85782   0.86274   0.94699   1.10411
 Alpha virt. eigenvalues --    1.10897   1.14896   1.17788   1.18965   1.20477
 Alpha virt. eigenvalues --    1.23349   1.25838   1.26362   1.46918   1.48411
 Alpha virt. eigenvalues --    1.68477   1.69336   1.74605   1.75823   1.77128
 Alpha virt. eigenvalues --    1.77984   1.81744   1.81766   1.83707   1.90146
 Alpha virt. eigenvalues --    1.91989   1.98937   2.08797   2.34748   2.45030
 Alpha virt. eigenvalues --    2.69352   3.49116   3.99302   4.01187   4.15377
          Condensed to atoms (all electrons):
              1          2          3          4          5          6
     1  O    8.621615   0.000565   0.000657   0.130042   0.025447   0.075601
     2  O    0.000565   8.921581   0.063298  -0.286605   0.153282   0.047308
     3  O    0.000657   0.063298   8.922985  -0.286678   0.153124   0.047214
     4  P    0.130042  -0.286605  -0.286678  14.502290  -0.035740   0.158854
     5  Ca   0.025447   0.153282   0.153124  -0.035740  18.265627  -0.019177
     6  Ca   0.075601   0.047308   0.047214   0.158854  -0.019177  18.311519
 Mulliken atomic charges:
              1
     1  O   -0.853927
     2  O   -0.899429
     3  O   -0.900600
     4  P    0.817837
     5  Ca   1.457436
     6  Ca   1.378682
 Sum of Mulliken charges=   1.00000
 Atomic charges with hydrogens summed into heavy atoms:
              1
     1  O   -0.853927
     2  O   -0.899429
     3  O   -0.900600
     4  P    0.817837
     5  Ca   1.457436
     6  Ca   1.378682
 Sum of Mulliken charges=   1.00000
 Electronic spatial extent (au):  <R**2>=   965.7063
 Charge=     1.0000 electrons
 Dipole moment (field-independent basis, Debye):
    X=    -6.1693    Y=   -11.0961    Z=     0.0064  Tot=    12.6958
 Quadrupole moment (field-independent basis, Debye-Ang):
   XX=    -5.5217   YY=   -45.8941   ZZ=   -64.1569
   XY=   -11.4002   XZ=     0.0007   YZ=    -0.0008
 Traceless Quadrupole moment (field-independent basis, Debye-Ang):
   XX=    33.0025   YY=    -7.3699   ZZ=   -25.6326
   XY=   -11.4002   XZ=     0.0007   YZ=    -0.0008
 Octapole moment (field-independent basis, Debye-Ang**2):
  XXX=   -75.6629  YYY=   -39.2335  ZZZ=     0.0013  XYY=     5.5439
  XXY=   -55.9576  XXZ=     0.0013  XZZ=     0.9280  YZZ=    -6.9469
  YYZ=     0.0023  XYZ=     0.0001
 Hexadecapole moment (field-independent basis, Debye-Ang**3):
 XXXX=  -351.4555 YYYY=  -293.6212 ZZZZ=  -208.1253 XXXY=   -44.1940
 XXXZ=     0.0086 YYYX=   -29.0936 YYYZ=     0.0067 ZZZX=     0.0034
 ZZZY=    -0.0045 XXYY=  -128.7992 XXZZ=  -124.9143 YYZZ=   -77.9530
 XXYZ=    -0.0005 YYXZ=     0.0027 ZZXY=    -5.0571
 N-N= 5.302879803597D+02 E-N=-5.602734713089D+03  KE= 1.916596401994D+03
 Merz-Kollman atomic radii used.
 Read replacement radii for each type of atom:
 Rad(20) =   1.188000000000D+00
 Atom Element Radius
    1     8    1.40
    2     8    1.40
    3     8    1.40
    4    15    1.80
    5    20    1.19
    6    20    1.19

 **********************************************************************

            Electrostatic Properties Using The SCF Density

 **********************************************************************

       Atomic Center    1 is at   1.682140  1.205904 -0.000098
       Atomic Center    2 is at  -0.259689  0.015242  1.206392
       Atomic Center    3 is at  -0.259599  0.014772 -1.206318
       Atomic Center    4 is at   0.119180  1.182652 -0.000098
       Atomic Center    5 is at  -2.145118 -0.343491  0.000002
       Atomic Center    6 is at   1.590593 -1.037866  0.000082
     582 points will be used for fitting atomic charges
 Fitting point charges to eletrostatic potential
 Charges from ESP fit, RMS=   0.00830 RRMS=   0.04809:
 Charge=   1.00000 Dipole=    -6.2374   -11.3553     0.0063 Tot=    12.9556
              1
     1  O   -0.544711
     2  O   -1.020431
     3  O   -1.021468
     4  P    0.419016
     5  Ca   1.606324
     6  Ca   1.561270
 -----------------------------------------------------------------

              Electrostatic Properties (Atomic Units)

 -----------------------------------------------------------------
    Center     Electric         -------- Electric Field --------
               Potential          X             Y             Z
 -----------------------------------------------------------------
    1 Atom    -22.246505
    2 Atom    -22.236930
    3 Atom    -22.238790
    4 Atom    -53.950053
    5 Atom    -79.963703
    6 Atom    -79.992804
 -----------------------------------------------------------------
 1\1\GINC-N030\SP\RB3LYP\6-31+G(d,p)\Ca2O3P1(1+)\TIMN\12-Jun-2015\0\\# 
 b3lyp/6-31+G(d,p) int=ultrafine pop=(ReadRadii,MK)\\Ca2PO3_24.mol2_plu
 sQ.out.z51544.zip.xyz\\1,1\O,0,1.68214,1.2059,-0.0001\O,0,-0.25969,0.0
 1524,1.20639\O,0,-0.2596,0.01477,-1.20632\P,0,0.11918,1.18265,-0.0001\
 Ca,0,-2.14512,-0.34349,0.\Ca,0,1.59059,-1.03787,0.00008\\Version=EM64T
 -G03RevE.01\State=1-A\HF=-1922.1049268\RMSD=5.311e-05\Thermal=0.\Dipol
 e=-2.4271785,-4.3655305,0.0025028\PG=C01 [X(Ca2O3P1)]\\@


 IT IS NOT EASY TO DESCRIBE
     THE SEA WITH THE MOUTH

                   -- KOKYU
 Job cpu time:  0 days  0 hours  0 minutes 36.2 seconds.
 File lengths (MBytes):  RWF=     22 Int=      0 D2E=      0 Chk=     10 Scr=      1
 Normal termination of Gaussian 03 at Fri Jun 12 17:34:40 2015.
