 Entering Gaussian System, Link 0=/home/timn/tmp/g03.e01/g03
 Input=Ca2PO3_20.mol2_plusQ.out.z51540.zip.xyz.gjf
 Output=Ca2PO3_20.mol2_plusQ.out.z51540.zip.xyz.out
 Initial command:
 /home/timn/tmp/g03.e01/l1.exe /home/timn/tmp/g03.e01/Gau-15714.inp -scrdir=/home/timn/tmp/g03.e01/
 Default is to use a total of   2 processors:
                                2 via shared-memory
                                1 via Linda
 Entering Link 1 = /home/timn/tmp/g03.e01/l1.exe PID=     15718.
  
 Copyright (c) 1988,1990,1992,1993,1995,1998,2003,2004,2007, Gaussian, Inc.
                  All Rights Reserved.
  
 This is the Gaussian(R) 03 program.  It is based on the
 the Gaussian(R) 98 system (copyright 1998, Gaussian, Inc.),
 the Gaussian(R) 94 system (copyright 1995, Gaussian, Inc.),
 the Gaussian 92(TM) system (copyright 1992, Gaussian, Inc.),
 the Gaussian 90(TM) system (copyright 1990, Gaussian, Inc.),
 the Gaussian 88(TM) system (copyright 1988, Gaussian, Inc.),
 the Gaussian 86(TM) system (copyright 1986, Carnegie Mellon
 University), and the Gaussian 82(TM) system (copyright 1983,
 Carnegie Mellon University). Gaussian is a federally registered
 trademark of Gaussian, Inc.
  
 This software contains proprietary and confidential information,
 including trade secrets, belonging to Gaussian, Inc.
  
 This software is provided under written license and may be
 used, copied, transmitted, or stored only in accord with that
 written license.
  
 The following legend is applicable only to US Government
 contracts under FAR:
  
                    RESTRICTED RIGHTS LEGEND
  
 Use, reproduction and disclosure by the US Government is
 subject to restrictions as set forth in subparagraphs (a)
 and (c) of the Commercial Computer Software - Restricted
 Rights clause in FAR 52.227-19.
  
 Gaussian, Inc.
 340 Quinnipiac St., Bldg. 40, Wallingford CT 06492
  
  
 ---------------------------------------------------------------
 Warning -- This program may not be used in any manner that
 competes with the business of Gaussian, Inc. or will provide
 assistance to any competitor of Gaussian, Inc.  The licensee
 of this program is prohibited from giving any competitor of
 Gaussian, Inc. access to this program.  By using this program,
 the user acknowledges that Gaussian, Inc. is engaged in the
 business of creating and licensing software in the field of
 computational chemistry and represents and warrants to the
 licensee that it is not a competitor of Gaussian, Inc. and that
 it will not use this program in any manner prohibited above.
 ---------------------------------------------------------------
  

 Cite this work as:
 Gaussian 03, Revision E.01,
 M. J. Frisch, G. W. Trucks, H. B. Schlegel, G. E. Scuseria, 
 M. A. Robb, J. R. Cheeseman, J. A. Montgomery, Jr., T. Vreven, 
 K. N. Kudin, J. C. Burant, J. M. Millam, S. S. Iyengar, J. Tomasi, 
 V. Barone, B. Mennucci, M. Cossi, G. Scalmani, N. Rega, 
 G. A. Petersson, H. Nakatsuji, M. Hada, M. Ehara, K. Toyota, 
 R. Fukuda, J. Hasegawa, M. Ishida, T. Nakajima, Y. Honda, O. Kitao, 
 H. Nakai, M. Klene, X. Li, J. E. Knox, H. P. Hratchian, J. B. Cross, 
 V. Bakken, C. Adamo, J. Jaramillo, R. Gomperts, R. E. Stratmann, 
 O. Yazyev, A. J. Austin, R. Cammi, C. Pomelli, J. W. Ochterski, 
 P. Y. Ayala, K. Morokuma, G. A. Voth, P. Salvador, J. J. Dannenberg, 
 V. G. Zakrzewski, S. Dapprich, A. D. Daniels, M. C. Strain, 
 O. Farkas, D. K. Malick, A. D. Rabuck, K. Raghavachari, 
 J. B. Foresman, J. V. Ortiz, Q. Cui, A. G. Baboul, S. Clifford, 
 J. Cioslowski, B. B. Stefanov, G. Liu, A. Liashenko, P. Piskorz, 
 I. Komaromi, R. L. Martin, D. J. Fox, T. Keith, M. A. Al-Laham, 
 C. Y. Peng, A. Nanayakkara, M. Challacombe, P. M. W. Gill, 
 B. Johnson, W. Chen, M. W. Wong, C. Gonzalez, and J. A. Pople, 
 Gaussian, Inc., Wallingford CT, 2004.
 
 ******************************************
 Gaussian 03:  EM64T-G03RevE.01 11-Sep-2007
                12-Jun-2015 
 ******************************************
 %nproc=2
 Will use up to    2 processors via shared memory.
 Default route:  MP2=Direct MaxDisk=2000MB
 ----------------------------------------------------
 # b3lyp/6-31+G(d,p) int=ultrafine pop=(ReadRadii,MK)
 ----------------------------------------------------

 Warning!  SCF SP cutoffs with diffuse functions may be unreliable.
 Consider SCF=Tight

 1/38=1/1;
 2/17=6,18=5,40=1/2;
 3/5=1,6=6,7=111,11=2,16=1,25=1,30=1,74=-5,75=5/1,2,3;
 4//1;
 5/5=2,32=1,38=5/2;
 6/7=2,8=2,9=2,10=2,15=8,20=101,28=1/1,2;
 99/5=1,9=1/99;
 ---------------------------------------
 Ca2PO3_20.mol2_plusQ.out.z51540.zip.xyz
 ---------------------------------------
 Symbolic Z-matrix:
 Charge =  1 Multiplicity = 1
 O                     1.32766   1.24741  -0.40851 
 O                    -1.32772   1.24743  -0.40841 
 O                     0.       -0.72117   0.57497 
 P                     0.        1.11671   0.45733 
 Ca                    2.12839  -0.77348  -0.1231 
 Ca                   -2.12837  -0.77351  -0.12312 
 
                          Input orientation:                          
 ---------------------------------------------------------------------
 Center     Atomic     Atomic              Coordinates (Angstroms)
 Number     Number      Type              X           Y           Z
 ---------------------------------------------------------------------
    1          8             0        1.327660    1.247410   -0.408510
    2          8             0       -1.327720    1.247430   -0.408410
    3          8             0        0.000000   -0.721170    0.574970
    4         15             0        0.000000    1.116710    0.457330
    5         20             0        2.128390   -0.773480   -0.123100
    6         20             0       -2.128370   -0.773510   -0.123120
 ---------------------------------------------------------------------
                    Distance matrix (angstroms):
                    1          2          3          4          5
     1  O    0.000000
     2  O    2.655380   0.000000
     3  O    2.570062   2.570071   0.000000
     4  P    1.590422   1.590419   1.841641   0.000000
     5  Ca   2.192401   4.013748   2.240554   2.905127   0.000000
     6  Ca   4.013690   2.192403   2.240542   2.905136   4.256760
                    6
     6  Ca   0.000000
 Stoichiometry    Ca2O3P(1+)
 Framework group  C1[X(Ca2O3P)]
 Deg. of freedom    12
 Full point group                 C1
 Largest Abelian subgroup         C1      NOp   1
 Largest concise Abelian subgroup C1      NOp   1
                         Standard orientation:                         
 ---------------------------------------------------------------------
 Center     Atomic     Atomic              Coordinates (Angstroms)
 Number     Number      Type              X           Y           Z
 ---------------------------------------------------------------------
    1          8             0        1.327662    1.247406   -0.408509
    2          8             0       -1.327718    1.247429   -0.408409
    3          8             0        0.000000   -0.721173    0.574971
    4         15             0        0.000002    1.116707    0.457331
    5         20             0        2.128390   -0.773485   -0.123099
    6         20             0       -2.128370   -0.773510   -0.123119
 ---------------------------------------------------------------------
 Rotational constants (GHZ):      3.1034146      1.1571017      0.8976752
 Standard basis: 6-31+G(d,p) (6D, 7F)
 There are   134 symmetry adapted basis functions of A   symmetry.
 Integral buffers will be    131072 words long.
 Raffenetti 2 integral format.
 Two-electron integral symmetry is turned on.
   134 basis functions,   312 primitive gaussians,   134 cartesian basis functions
    39 alpha electrons       39 beta electrons
       nuclear repulsion energy       507.4680353021 Hartrees.
 NAtoms=    6 NActive=    6 NUniq=    6 SFac= 7.50D-01 NAtFMM=   80 NAOKFM=F Big=F
 One-electron integrals computed using PRISM.
 NBasis=   134 RedAO= T  NBF=   134
 NBsUse=   134 1.00D-06 NBFU=   134
 Harris functional with IExCor=  402 diagonalized for initial guess.
 ExpMin= 7.10D-03 ExpMax= 3.53D+04 ExpMxC= 5.30D+03 IAcc=3 IRadAn=         5 AccDes= 0.00D+00
 HarFok:  IExCor= 402 AccDes= 0.00D+00 IRadAn=         5 IDoV=1
 ScaDFX=  1.000000  1.000000  1.000000  1.000000
 Initial guess orbital symmetries:
       Occupied  (A) (A) (A) (A) (A) (A) (A) (A) (A) (A) (A) (A)
                 (A) (A) (A) (A) (A) (A) (A) (A) (A) (A) (A) (A)
                 (A) (A) (A) (A) (A) (A) (A) (A) (A) (A) (A) (A)
                 (A) (A) (A)
       Virtual   (A) (A) (A) (A) (A) (A) (A) (A) (A) (A) (A) (A)
                 (A) (A) (A) (A) (A) (A) (A) (A) (A) (A) (A) (A)
                 (A) (A) (A) (A) (A) (A) (A) (A) (A) (A) (A) (A)
                 (A) (A) (A) (A) (A) (A) (A) (A) (A) (A) (A) (A)
                 (A) (A) (A) (A) (A) (A) (A) (A) (A) (A) (A) (A)
                 (A) (A) (A) (A) (A) (A) (A) (A) (A) (A) (A) (A)
                 (A) (A) (A) (A) (A) (A) (A) (A) (A) (A) (A) (A)
                 (A) (A) (A) (A) (A) (A) (A) (A) (A) (A) (A)
 The electronic state of the initial guess is 1-A.
 Requested convergence on RMS density matrix=1.00D-04 within 128 cycles.
 Requested convergence on MAX density matrix=1.00D-02.
 Requested convergence on             energy=1.00D-02.
 No special actions if energy rises.
 Keep R1 integrals in memory in canonical form, NReq=    43203134.
 SCF Done:  E(RB+HF-LYP) =  -1922.11511370     A.U. after    9 cycles
             Convg  =    0.2837D-04             -V/T =  2.0029
             S**2   =   0.0000

 **********************************************************************

            Population analysis using the SCF density.

 **********************************************************************

 Orbital symmetries:
       Occupied  (A) (A) (A) (A) (A) (A) (A) (A) (A) (A) (A) (A)
                 (A) (A) (A) (A) (A) (A) (A) (A) (A) (A) (A) (A)
                 (A) (A) (A) (A) (A) (A) (A) (A) (A) (A) (A) (A)
                 (A) (A) (A)
       Virtual   (A) (A) (A) (A) (A) (A) (A) (A) (A) (A) (A) (A)
                 (A) (A) (A) (A) (A) (A) (A) (A) (A) (A) (A) (A)
                 (A) (A) (A) (A) (A) (A) (A) (A) (A) (A) (A) (A)
                 (A) (A) (A) (A) (A) (A) (A) (A) (A) (A) (A) (A)
                 (A) (A) (A) (A) (A) (A) (A) (A) (A) (A) (A) (A)
                 (A) (A) (A) (A) (A) (A) (A) (A) (A) (A) (A) (A)
                 (A) (A) (A) (A) (A) (A) (A) (A) (A) (A) (A) (A)
                 (A) (A) (A) (A) (A) (A) (A) (A) (A) (A) (A)
 The electronic state is 1-A.
 Alpha  occ. eigenvalues -- -145.55272-145.55270 -77.25384 -19.23141 -19.21316
 Alpha  occ. eigenvalues --  -19.21316 -15.62140 -15.62138 -12.75372 -12.75371
 Alpha  occ. eigenvalues --  -12.75275 -12.75275 -12.75270 -12.75269  -6.70504
 Alpha  occ. eigenvalues --   -4.86944  -4.86777  -4.86359  -1.99230  -1.99225
 Alpha  occ. eigenvalues --   -1.26943  -1.26887  -1.26839  -1.26571  -1.26407
 Alpha  occ. eigenvalues --   -1.26254  -1.07538  -1.02033  -1.00083  -0.62168
 Alpha  occ. eigenvalues --   -0.50903  -0.50210  -0.47840  -0.45092  -0.41420
 Alpha  occ. eigenvalues --   -0.38981  -0.38569  -0.38420  -0.30783
 Alpha virt. eigenvalues --   -0.22947  -0.22550  -0.15340  -0.13956  -0.13386
 Alpha virt. eigenvalues --   -0.12394  -0.11226  -0.09575  -0.07966  -0.06776
 Alpha virt. eigenvalues --   -0.05846  -0.05586  -0.05239  -0.04658  -0.04653
 Alpha virt. eigenvalues --   -0.04397  -0.03670  -0.02880  -0.02285  -0.01341
 Alpha virt. eigenvalues --   -0.00728   0.00923   0.01009   0.01541   0.02550
 Alpha virt. eigenvalues --    0.02832   0.03283   0.03329   0.03987   0.04122
 Alpha virt. eigenvalues --    0.04948   0.05624   0.05940   0.07319   0.07535
 Alpha virt. eigenvalues --    0.08489   0.09904   0.11133   0.14694   0.16356
 Alpha virt. eigenvalues --    0.18833   0.19195   0.20681   0.21501   0.22029
 Alpha virt. eigenvalues --    0.23210   0.25387   0.28519   0.29878   0.31309
 Alpha virt. eigenvalues --    0.34317   0.36396   0.38482   0.40295   0.42924
 Alpha virt. eigenvalues --    0.45305   0.58190   0.62652   0.65972   0.67227
 Alpha virt. eigenvalues --    0.78930   0.83492   0.88196   0.95258   1.10584
 Alpha virt. eigenvalues --    1.15226   1.16175   1.17196   1.19169   1.20607
 Alpha virt. eigenvalues --    1.21706   1.22783   1.24253   1.47107   1.51601
 Alpha virt. eigenvalues --    1.58555   1.71411   1.74301   1.75072   1.75972
 Alpha virt. eigenvalues --    1.79042   1.82312   1.83892   1.86258   1.89018
 Alpha virt. eigenvalues --    1.94600   1.98152   2.09276   2.21415   2.60197
 Alpha virt. eigenvalues --    2.67743   3.49023   3.96638   3.99326   4.02842
          Condensed to atoms (all electrons):
              1          2          3          4          5          6
     1  O    8.863098   0.079965   0.023464  -0.332677   0.147241   0.017280
     2  O    0.079965   8.863076   0.023455  -0.332640   0.017284   0.147237
     3  O    0.023464   0.023455   9.065077  -0.232841   0.093822   0.093818
     4  P   -0.332677  -0.332640  -0.232841  15.051458   0.020039   0.020049
     5  Ca   0.147241   0.017284   0.093822   0.020039  18.285471   0.007674
     6  Ca   0.017280   0.147237   0.093818   0.020049   0.007674  18.285479
 Mulliken atomic charges:
              1
     1  O   -0.798371
     2  O   -0.798377
     3  O   -1.066794
     4  P    0.806611
     5  Ca   1.428469
     6  Ca   1.428462
 Sum of Mulliken charges=   1.00000
 Atomic charges with hydrogens summed into heavy atoms:
              1
     1  O   -0.798371
     2  O   -0.798377
     3  O   -1.066794
     4  P    0.806611
     5  Ca   1.428469
     6  Ca   1.428462
 Sum of Mulliken charges=   1.00000
 Electronic spatial extent (au):  <R**2>=  1115.1523
 Charge=     1.0000 electrons
 Dipole moment (field-independent basis, Debye):
    X=     0.0003    Y=   -13.0273    Z=    -1.2065  Tot=    13.0831
 Quadrupole moment (field-independent basis, Debye-Ang):
   XX=     4.3717   YY=   -53.9334   ZZ=   -56.6736
   XY=     0.0004   XZ=     0.0006   YZ=     6.2920
 Traceless Quadrupole moment (field-independent basis, Debye-Ang):
   XX=    39.7835   YY=   -18.5216   ZZ=   -21.2619
   XY=     0.0004   XZ=     0.0006   YZ=     6.2920
 Octapole moment (field-independent basis, Debye-Ang**2):
  XXX=     0.0041  YYY=   -35.7258  ZZZ=    -8.7243  XYY=    -0.0001
  XXY=   -81.8055  XXZ=    -2.6711  XZZ=    -0.0005  YZZ=   -12.2997
  YYZ=    -2.2713  XYZ=     0.0001
 Hexadecapole moment (field-independent basis, Debye-Ang**3):
 XXXX=  -392.9300 YYYY=  -375.9267 ZZZZ=  -126.9789 XXXY=     0.0020
 XXXZ=     0.0023 YYYX=     0.0013 YYYZ=     7.0087 ZZZX=     0.0009
 ZZZY=     0.7877 XXYY=  -160.4836 XXZZ=  -136.2197 YYZZ=   -89.3381
 XXYZ=    14.2053 YYXZ=     0.0007 ZZXY=    -0.0004
 N-N= 5.074680353021D+02 E-N=-5.557809438849D+03  KE= 1.916580519586D+03
 Merz-Kollman atomic radii used.
 Read replacement radii for each type of atom:
 Rad(20) =   1.188000000000D+00
 Atom Element Radius
    1     8    1.40
    2     8    1.40
    3     8    1.40
    4    15    1.80
    5    20    1.19
    6    20    1.19

 **********************************************************************

            Electrostatic Properties Using The SCF Density

 **********************************************************************

       Atomic Center    1 is at   1.327662  1.247406 -0.408509
       Atomic Center    2 is at  -1.327718  1.247429 -0.408409
       Atomic Center    3 is at   0.000000 -0.721173  0.574971
       Atomic Center    4 is at   0.000002  1.116707  0.457331
       Atomic Center    5 is at   2.128390 -0.773485 -0.123099
       Atomic Center    6 is at  -2.128370 -0.773510 -0.123119
     610 points will be used for fitting atomic charges
 Fitting point charges to eletrostatic potential
 Charges from ESP fit, RMS=   0.00906 RRMS=   0.05290:
 Charge=   1.00000 Dipole=    -0.0098   -13.6214    -1.3856 Tot=    13.6917
              1
     1  O   -0.718004
     2  O   -0.718739
     3  O   -1.222320
     4  P    0.478835
     5  Ca   1.589389
     6  Ca   1.590840
 -----------------------------------------------------------------

              Electrostatic Properties (Atomic Units)

 -----------------------------------------------------------------
    Center     Electric         -------- Electric Field --------
               Potential          X             Y             Z
 -----------------------------------------------------------------
    1 Atom    -22.251934
    2 Atom    -22.251927
    3 Atom    -22.234528
    4 Atom    -53.960362
    5 Atom    -79.989019
    6 Atom    -79.989021
 -----------------------------------------------------------------
 1\1\GINC-N028\SP\RB3LYP\6-31+G(d,p)\Ca2O3P1(1+)\TIMN\12-Jun-2015\0\\# 
 b3lyp/6-31+G(d,p) int=ultrafine pop=(ReadRadii,MK)\\Ca2PO3_20.mol2_plu
 sQ.out.z51540.zip.xyz\\1,1\O,0,1.32766,1.24741,-0.40851\O,0,-1.32772,1
 .24743,-0.40841\O,0,0.,-0.72117,0.57497\P,0,0.,1.11671,0.45733\Ca,0,2.
 12839,-0.77348,-0.1231\Ca,0,-2.12837,-0.77351,-0.12312\\Version=EM64T-
 G03RevE.01\State=1-A\HF=-1922.1151137\RMSD=2.837e-05\Thermal=0.\Dipole
 =0.0001056,-5.1253514,-0.4746824\PG=C01 [X(Ca2O3P1)]\\@


 THE LENGTH OF A MEETING IS PROPORTIONAL TO THE
 SQUARE OF THE PARTICIPANTS.
 Job cpu time:  0 days  0 hours  0 minutes 35.8 seconds.
 File lengths (MBytes):  RWF=     22 Int=      0 D2E=      0 Chk=     10 Scr=      1
 Normal termination of Gaussian 03 at Fri Jun 12 17:34:45 2015.
