 Entering Gaussian System, Link 0=/home/timn/tmp/g03.e01/g03
 Input=Ca2PO3_25.mol2_plusQ.out.z51545.zip.xyz.gjf
 Output=Ca2PO3_25.mol2_plusQ.out.z51545.zip.xyz.out
 Initial command:
 /home/timn/tmp/g03.e01/l1.exe /home/timn/tmp/g03.e01/Gau-11461.inp -scrdir=/home/timn/tmp/g03.e01/
 Default is to use a total of   2 processors:
                                2 via shared-memory
                                1 via Linda
 Entering Link 1 = /home/timn/tmp/g03.e01/l1.exe PID=     11463.
  
 Copyright (c) 1988,1990,1992,1993,1995,1998,2003,2004,2007, Gaussian, Inc.
                  All Rights Reserved.
  
 This is the Gaussian(R) 03 program.  It is based on the
 the Gaussian(R) 98 system (copyright 1998, Gaussian, Inc.),
 the Gaussian(R) 94 system (copyright 1995, Gaussian, Inc.),
 the Gaussian 92(TM) system (copyright 1992, Gaussian, Inc.),
 the Gaussian 90(TM) system (copyright 1990, Gaussian, Inc.),
 the Gaussian 88(TM) system (copyright 1988, Gaussian, Inc.),
 the Gaussian 86(TM) system (copyright 1986, Carnegie Mellon
 University), and the Gaussian 82(TM) system (copyright 1983,
 Carnegie Mellon University). Gaussian is a federally registered
 trademark of Gaussian, Inc.
  
 This software contains proprietary and confidential information,
 including trade secrets, belonging to Gaussian, Inc.
  
 This software is provided under written license and may be
 used, copied, transmitted, or stored only in accord with that
 written license.
  
 The following legend is applicable only to US Government
 contracts under FAR:
  
                    RESTRICTED RIGHTS LEGEND
  
 Use, reproduction and disclosure by the US Government is
 subject to restrictions as set forth in subparagraphs (a)
 and (c) of the Commercial Computer Software - Restricted
 Rights clause in FAR 52.227-19.
  
 Gaussian, Inc.
 340 Quinnipiac St., Bldg. 40, Wallingford CT 06492
  
  
 ---------------------------------------------------------------
 Warning -- This program may not be used in any manner that
 competes with the business of Gaussian, Inc. or will provide
 assistance to any competitor of Gaussian, Inc.  The licensee
 of this program is prohibited from giving any competitor of
 Gaussian, Inc. access to this program.  By using this program,
 the user acknowledges that Gaussian, Inc. is engaged in the
 business of creating and licensing software in the field of
 computational chemistry and represents and warrants to the
 licensee that it is not a competitor of Gaussian, Inc. and that
 it will not use this program in any manner prohibited above.
 ---------------------------------------------------------------
  

 Cite this work as:
 Gaussian 03, Revision E.01,
 M. J. Frisch, G. W. Trucks, H. B. Schlegel, G. E. Scuseria, 
 M. A. Robb, J. R. Cheeseman, J. A. Montgomery, Jr., T. Vreven, 
 K. N. Kudin, J. C. Burant, J. M. Millam, S. S. Iyengar, J. Tomasi, 
 V. Barone, B. Mennucci, M. Cossi, G. Scalmani, N. Rega, 
 G. A. Petersson, H. Nakatsuji, M. Hada, M. Ehara, K. Toyota, 
 R. Fukuda, J. Hasegawa, M. Ishida, T. Nakajima, Y. Honda, O. Kitao, 
 H. Nakai, M. Klene, X. Li, J. E. Knox, H. P. Hratchian, J. B. Cross, 
 V. Bakken, C. Adamo, J. Jaramillo, R. Gomperts, R. E. Stratmann, 
 O. Yazyev, A. J. Austin, R. Cammi, C. Pomelli, J. W. Ochterski, 
 P. Y. Ayala, K. Morokuma, G. A. Voth, P. Salvador, J. J. Dannenberg, 
 V. G. Zakrzewski, S. Dapprich, A. D. Daniels, M. C. Strain, 
 O. Farkas, D. K. Malick, A. D. Rabuck, K. Raghavachari, 
 J. B. Foresman, J. V. Ortiz, Q. Cui, A. G. Baboul, S. Clifford, 
 J. Cioslowski, B. B. Stefanov, G. Liu, A. Liashenko, P. Piskorz, 
 I. Komaromi, R. L. Martin, D. J. Fox, T. Keith, M. A. Al-Laham, 
 C. Y. Peng, A. Nanayakkara, M. Challacombe, P. M. W. Gill, 
 B. Johnson, W. Chen, M. W. Wong, C. Gonzalez, and J. A. Pople, 
 Gaussian, Inc., Wallingford CT, 2004.
 
 ******************************************
 Gaussian 03:  EM64T-G03RevE.01 11-Sep-2007
                12-Jun-2015 
 ******************************************
 %nproc=2
 Will use up to    2 processors via shared memory.
 Default route:  MP2=Direct MaxDisk=2000MB
 ----------------------------------------------------
 # b3lyp/6-31+G(d,p) int=ultrafine pop=(ReadRadii,MK)
 ----------------------------------------------------

 Warning!  SCF SP cutoffs with diffuse functions may be unreliable.
 Consider SCF=Tight

 1/38=1/1;
 2/17=6,18=5,40=1/2;
 3/5=1,6=6,7=111,11=2,16=1,25=1,30=1,74=-5,75=5/1,2,3;
 4//1;
 5/5=2,32=1,38=5/2;
 6/7=2,8=2,9=2,10=2,15=8,20=101,28=1/1,2;
 99/5=1,9=1/99;
 ---------------------------------------
 Ca2PO3_25.mol2_plusQ.out.z51545.zip.xyz
 ---------------------------------------
 Symbolic Z-matrix:
 Charge =  1 Multiplicity = 1
 O                     0.25985   0.01541   1.20659 
 O                    -1.68207   1.20612  -0.00013 
 O                     0.25967   0.01467  -1.20647 
 P                    -0.11922   1.18284  -0.00017 
 Ca                   -1.59091  -1.03799   0.00013 
 Ca                    2.14534  -0.34362   0. 
 
                          Input orientation:                          
 ---------------------------------------------------------------------
 Center     Atomic     Atomic              Coordinates (Angstroms)
 Number     Number      Type              X           Y           Z
 ---------------------------------------------------------------------
    1          8             0        0.259850    0.015410    1.206590
    2          8             0       -1.682070    1.206120   -0.000130
    3          8             0        0.259670    0.014670   -1.206470
    4         15             0       -0.119220    1.182840   -0.000170
    5         20             0       -1.590910   -1.037990    0.000130
    6         20             0        2.145340   -0.343620    0.000000
 ---------------------------------------------------------------------
                    Distance matrix (angstroms):
                    1          2          3          4          5
     1  O    0.000000
     2  O    2.577793   0.000000
     3  O    2.413060   2.577821   0.000000
     4  P    1.721295   1.563023   1.721435   0.000000
     5  Ca   2.447552   2.245961   2.447166   2.664199   0.000000
     6  Ca   2.267120   4.129257   2.267089   2.730991   3.800225
                    6
     6  Ca   0.000000
 Stoichiometry    Ca2O3P(1+)
 Framework group  C1[X(Ca2O3P)]
 Deg. of freedom    12
 Full point group                 C1
 Largest Abelian subgroup         C1      NOp   1
 Largest concise Abelian subgroup C1      NOp   1
                         Standard orientation:                         
 ---------------------------------------------------------------------
 Center     Atomic     Atomic              Coordinates (Angstroms)
 Number     Number      Type              X           Y           Z
 ---------------------------------------------------------------------
    1          8             0        0.259851    0.015409    1.206590
    2          8             0       -1.682065    1.206125   -0.000130
    3          8             0        0.259671    0.014669   -1.206470
    4         15             0       -0.119215    1.182840   -0.000170
    5         20             0       -1.590912   -1.037985    0.000130
    6         20             0        2.145340   -0.343627    0.000000
 ---------------------------------------------------------------------
 Rotational constants (GHZ):      3.1400671      1.3317164      1.1298343
 Standard basis: 6-31+G(d,p) (6D, 7F)
 There are   134 symmetry adapted basis functions of A   symmetry.
 Integral buffers will be    131072 words long.
 Raffenetti 2 integral format.
 Two-electron integral symmetry is turned on.
   134 basis functions,   312 primitive gaussians,   134 cartesian basis functions
    39 alpha electrons       39 beta electrons
       nuclear repulsion energy       530.2229016216 Hartrees.
 NAtoms=    6 NActive=    6 NUniq=    6 SFac= 7.50D-01 NAtFMM=   80 NAOKFM=F Big=F
 One-electron integrals computed using PRISM.
 NBasis=   134 RedAO= T  NBF=   134
 NBsUse=   134 1.00D-06 NBFU=   134
 Harris functional with IExCor=  402 diagonalized for initial guess.
 ExpMin= 7.10D-03 ExpMax= 3.53D+04 ExpMxC= 5.30D+03 IAcc=3 IRadAn=         5 AccDes= 0.00D+00
 HarFok:  IExCor= 402 AccDes= 0.00D+00 IRadAn=         5 IDoV=1
 ScaDFX=  1.000000  1.000000  1.000000  1.000000
 Initial guess orbital symmetries:
       Occupied  (A) (A) (A) (A) (A) (A) (A) (A) (A) (A) (A) (A)
                 (A) (A) (A) (A) (A) (A) (A) (A) (A) (A) (A) (A)
                 (A) (A) (A) (A) (A) (A) (A) (A) (A) (A) (A) (A)
                 (A) (A) (A)
       Virtual   (A) (A) (A) (A) (A) (A) (A) (A) (A) (A) (A) (A)
                 (A) (A) (A) (A) (A) (A) (A) (A) (A) (A) (A) (A)
                 (A) (A) (A) (A) (A) (A) (A) (A) (A) (A) (A) (A)
                 (A) (A) (A) (A) (A) (A) (A) (A) (A) (A) (A) (A)
                 (A) (A) (A) (A) (A) (A) (A) (A) (A) (A) (A) (A)
                 (A) (A) (A) (A) (A) (A) (A) (A) (A) (A) (A) (A)
                 (A) (A) (A) (A) (A) (A) (A) (A) (A) (A) (A) (A)
                 (A) (A) (A) (A) (A) (A) (A) (A) (A) (A) (A)
 The electronic state of the initial guess is 1-A.
 Requested convergence on RMS density matrix=1.00D-04 within 128 cycles.
 Requested convergence on MAX density matrix=1.00D-02.
 Requested convergence on             energy=1.00D-02.
 No special actions if energy rises.
 Keep R1 integrals in memory in canonical form, NReq=    43203127.
 SCF Done:  E(RB+HF-LYP) =  -1922.10492709     A.U. after    9 cycles
             Convg  =    0.5342D-04             -V/T =  2.0029
             S**2   =   0.0000

 **********************************************************************

            Population analysis using the SCF density.

 **********************************************************************

 Orbital symmetries:
       Occupied  (A) (A) (A) (A) (A) (A) (A) (A) (A) (A) (A) (A)
                 (A) (A) (A) (A) (A) (A) (A) (A) (A) (A) (A) (A)
                 (A) (A) (A) (A) (A) (A) (A) (A) (A) (A) (A) (A)
                 (A) (A) (A)
       Virtual   (A) (A) (A) (A) (A) (A) (A) (A) (A) (A) (A) (A)
                 (A) (A) (A) (A) (A) (A) (A) (A) (A) (A) (A) (A)
                 (A) (A) (A) (A) (A) (A) (A) (A) (A) (A) (A) (A)
                 (A) (A) (A) (A) (A) (A) (A) (A) (A) (A) (A) (A)
                 (A) (A) (A) (A) (A) (A) (A) (A) (A) (A) (A) (A)
                 (A) (A) (A) (A) (A) (A) (A) (A) (A) (A) (A) (A)
                 (A) (A) (A) (A) (A) (A) (A) (A) (A) (A) (A) (A)
                 (A) (A) (A) (A) (A) (A) (A) (A) (A) (A) (A)
 The electronic state is 1-A.
 Alpha  occ. eigenvalues -- -145.57785-145.54909 -77.26327 -19.22755 -19.22707
 Alpha  occ. eigenvalues --  -19.21830 -15.64610 -15.61718 -12.77850 -12.77755
 Alpha  occ. eigenvalues --  -12.77741 -12.74904 -12.74894 -12.74880  -6.71702
 Alpha  occ. eigenvalues --   -4.88049  -4.88013  -4.87586  -2.01596  -1.98714
 Alpha  occ. eigenvalues --   -1.29326  -1.28949  -1.28655  -1.26546  -1.25956
 Alpha  occ. eigenvalues --   -1.25953  -1.08719  -1.02507  -1.00425  -0.63344
 Alpha  occ. eigenvalues --   -0.50757  -0.50397  -0.50201  -0.44669  -0.43276
 Alpha  occ. eigenvalues --   -0.40098  -0.38489  -0.36466  -0.33907
 Alpha virt. eigenvalues --   -0.24119  -0.21783  -0.16319  -0.14445  -0.13105
 Alpha virt. eigenvalues --   -0.12337  -0.10459  -0.08308  -0.08099  -0.07089
 Alpha virt. eigenvalues --   -0.06601  -0.06404  -0.05488  -0.05411  -0.04905
 Alpha virt. eigenvalues --   -0.04524  -0.04347  -0.03608  -0.02543  -0.01873
 Alpha virt. eigenvalues --   -0.01266   0.00053   0.00727   0.02055   0.02111
 Alpha virt. eigenvalues --    0.02191   0.02750   0.03653   0.04209   0.04329
 Alpha virt. eigenvalues --    0.04859   0.05786   0.06512   0.07154   0.07720
 Alpha virt. eigenvalues --    0.08603   0.11479   0.12600   0.15250   0.16907
 Alpha virt. eigenvalues --    0.18393   0.18464   0.19272   0.20503   0.22384
 Alpha virt. eigenvalues --    0.23339   0.25945   0.28540   0.30779   0.31397
 Alpha virt. eigenvalues --    0.32034   0.36873   0.37593   0.41999   0.42201
 Alpha virt. eigenvalues --    0.45118   0.52846   0.57692   0.58750   0.74160
 Alpha virt. eigenvalues --    0.80869   0.85766   0.86257   0.94705   1.10418
 Alpha virt. eigenvalues --    1.10902   1.14896   1.17790   1.18966   1.20483
 Alpha virt. eigenvalues --    1.23352   1.25835   1.26363   1.46914   1.48411
 Alpha virt. eigenvalues --    1.68477   1.69341   1.74606   1.75828   1.77126
 Alpha virt. eigenvalues --    1.77987   1.81746   1.81761   1.83700   1.90145
 Alpha virt. eigenvalues --    1.91987   1.98939   2.08784   2.34716   2.44993
 Alpha virt. eigenvalues --    2.69366   3.49115   3.99301   4.01181   4.15373
          Condensed to atoms (all electrons):
              1          2          3          4          5          6
     1  O    8.921690   0.000493   0.063153  -0.286284   0.047317   0.153244
     2  O    0.000493   8.621658   0.000565   0.130008   0.075604   0.025460
     3  O    0.063153   0.000565   8.922676  -0.286302   0.047271   0.153136
     4  P   -0.286284   0.130008  -0.286302  14.501472   0.158853  -0.035648
     5  Ca   0.047317   0.075604   0.047271   0.158853  18.311464  -0.019148
     6  Ca   0.153244   0.025460   0.153136  -0.035648  -0.019148  18.265594
 Mulliken atomic charges:
              1
     1  O   -0.899613
     2  O   -0.853789
     3  O   -0.900498
     4  P    0.817901
     5  Ca   1.378638
     6  Ca   1.457361
 Sum of Mulliken charges=   1.00000
 Atomic charges with hydrogens summed into heavy atoms:
              1
     1  O   -0.899613
     2  O   -0.853789
     3  O   -0.900498
     4  P    0.817901
     5  Ca   1.378638
     6  Ca   1.457361
 Sum of Mulliken charges=   1.00000
 Electronic spatial extent (au):  <R**2>=   965.9260
 Charge=     1.0000 electrons
 Dipole moment (field-independent basis, Debye):
    X=     6.1660    Y=   -11.0957    Z=     0.0050  Tot=    12.6939
 Quadrupole moment (field-independent basis, Debye-Ang):
   XX=    -5.5084   YY=   -45.8935   ZZ=   -64.1637
   XY=    11.4010   XZ=    -0.0020   YZ=    -0.0028
 Traceless Quadrupole moment (field-independent basis, Debye-Ang):
   XX=    33.0134   YY=    -7.3716   ZZ=   -25.6419
   XY=    11.4010   XZ=    -0.0020   YZ=    -0.0028
 Octapole moment (field-independent basis, Debye-Ang**2):
  XXX=    75.6555  YYY=   -39.2319  ZZZ=     0.0014  XYY=    -5.5479
  XXY=   -55.9723  XXZ=     0.0030  XZZ=    -0.9327  YZZ=    -6.9464
  YYZ=     0.0042  XYZ=     0.0003
 Hexadecapole moment (field-independent basis, Debye-Ang**3):
 XXXX=  -351.4684 YYYY=  -293.7039 ZZZZ=  -208.1960 XXXY=    44.1985
 XXXZ=    -0.0113 YYYX=    29.1004 YYYZ=     0.0047 ZZZX=    -0.0053
 ZZZY=    -0.0091 XXYY=  -128.8189 XXZZ=  -124.9480 YYZZ=   -77.9776
 XXYZ=    -0.0019 YYXZ=    -0.0028 ZZXY=     5.0564
 N-N= 5.302229016216D+02 E-N=-5.602602069908D+03  KE= 1.916594446924D+03
 Merz-Kollman atomic radii used.
 Read replacement radii for each type of atom:
 Rad(20) =   1.188000000000D+00
 Atom Element Radius
    1     8    1.40
    2     8    1.40
    3     8    1.40
    4    15    1.80
    5    20    1.19
    6    20    1.19

 **********************************************************************

            Electrostatic Properties Using The SCF Density

 **********************************************************************

       Atomic Center    1 is at   0.259851  0.015409  1.206590
       Atomic Center    2 is at  -1.682065  1.206125 -0.000130
       Atomic Center    3 is at   0.259671  0.014669 -1.206470
       Atomic Center    4 is at  -0.119215  1.182840 -0.000170
       Atomic Center    5 is at  -1.590912 -1.037985  0.000130
       Atomic Center    6 is at   2.145340 -0.343627  0.000000
     582 points will be used for fitting atomic charges
 Fitting point charges to eletrostatic potential
 Charges from ESP fit, RMS=   0.00827 RRMS=   0.04758:
 Charge=   1.00000 Dipole=     6.1991   -11.3843     0.0050 Tot=    12.9627
              1
     1  O   -1.020748
     2  O   -0.545055
     3  O   -1.021552
     4  P    0.417441
     5  Ca   1.564797
     6  Ca   1.605118
 -----------------------------------------------------------------

              Electrostatic Properties (Atomic Units)

 -----------------------------------------------------------------
    Center     Electric         -------- Electric Field --------
               Potential          X             Y             Z
 -----------------------------------------------------------------
    1 Atom    -22.237203
    2 Atom    -22.246398
    3 Atom    -22.238496
    4 Atom    -53.950025
    5 Atom    -79.992746
    6 Atom    -79.963710
 -----------------------------------------------------------------
 1\1\GINC-N031\SP\RB3LYP\6-31+G(d,p)\Ca2O3P1(1+)\TIMN\12-Jun-2015\0\\# 
 b3lyp/6-31+G(d,p) int=ultrafine pop=(ReadRadii,MK)\\Ca2PO3_25.mol2_plu
 sQ.out.z51545.zip.xyz\\1,1\O,0,0.25985,0.01541,1.20659\O,0,-1.68207,1.
 20612,-0.00013\O,0,0.25967,0.01467,-1.20647\P,0,-0.11922,1.18284,-0.00
 017\Ca,0,-1.59091,-1.03799,0.00013\Ca,0,2.14534,-0.34362,0.\\Version=E
 M64T-G03RevE.01\State=1-A\HF=-1922.1049271\RMSD=5.342e-05\Thermal=0.\D
 ipole=2.4259023,-4.365394,0.0019744\PG=C01 [X(Ca2O3P1)]\\@


 IT IS NOT EASY TO DESCRIBE
     THE SEA WITH THE MOUTH

                   -- KOKYU
 Job cpu time:  0 days  0 hours  0 minutes 36.3 seconds.
 File lengths (MBytes):  RWF=     22 Int=      0 D2E=      0 Chk=     10 Scr=      1
 Normal termination of Gaussian 03 at Fri Jun 12 17:34:40 2015.
