 Entering Gaussian System, Link 0=/home/timn/tmp/g03.e01/g03
 Input=Ca2PO3_26.mol2_plusQc.out.z51546.zip.xyz.gjf
 Output=Ca2PO3_26.mol2_plusQc.out.z51546.zip.xyz.out
 Initial command:
 /home/timn/tmp/g03.e01/l1.exe /home/timn/tmp/g03.e01/Gau-11458.inp -scrdir=/home/timn/tmp/g03.e01/
 Default is to use a total of   2 processors:
                                2 via shared-memory
                                1 via Linda
 Entering Link 1 = /home/timn/tmp/g03.e01/l1.exe PID=     11462.
  
 Copyright (c) 1988,1990,1992,1993,1995,1998,2003,2004,2007, Gaussian, Inc.
                  All Rights Reserved.
  
 This is the Gaussian(R) 03 program.  It is based on the
 the Gaussian(R) 98 system (copyright 1998, Gaussian, Inc.),
 the Gaussian(R) 94 system (copyright 1995, Gaussian, Inc.),
 the Gaussian 92(TM) system (copyright 1992, Gaussian, Inc.),
 the Gaussian 90(TM) system (copyright 1990, Gaussian, Inc.),
 the Gaussian 88(TM) system (copyright 1988, Gaussian, Inc.),
 the Gaussian 86(TM) system (copyright 1986, Carnegie Mellon
 University), and the Gaussian 82(TM) system (copyright 1983,
 Carnegie Mellon University). Gaussian is a federally registered
 trademark of Gaussian, Inc.
  
 This software contains proprietary and confidential information,
 including trade secrets, belonging to Gaussian, Inc.
  
 This software is provided under written license and may be
 used, copied, transmitted, or stored only in accord with that
 written license.
  
 The following legend is applicable only to US Government
 contracts under FAR:
  
                    RESTRICTED RIGHTS LEGEND
  
 Use, reproduction and disclosure by the US Government is
 subject to restrictions as set forth in subparagraphs (a)
 and (c) of the Commercial Computer Software - Restricted
 Rights clause in FAR 52.227-19.
  
 Gaussian, Inc.
 340 Quinnipiac St., Bldg. 40, Wallingford CT 06492
  
  
 ---------------------------------------------------------------
 Warning -- This program may not be used in any manner that
 competes with the business of Gaussian, Inc. or will provide
 assistance to any competitor of Gaussian, Inc.  The licensee
 of this program is prohibited from giving any competitor of
 Gaussian, Inc. access to this program.  By using this program,
 the user acknowledges that Gaussian, Inc. is engaged in the
 business of creating and licensing software in the field of
 computational chemistry and represents and warrants to the
 licensee that it is not a competitor of Gaussian, Inc. and that
 it will not use this program in any manner prohibited above.
 ---------------------------------------------------------------
  

 Cite this work as:
 Gaussian 03, Revision E.01,
 M. J. Frisch, G. W. Trucks, H. B. Schlegel, G. E. Scuseria, 
 M. A. Robb, J. R. Cheeseman, J. A. Montgomery, Jr., T. Vreven, 
 K. N. Kudin, J. C. Burant, J. M. Millam, S. S. Iyengar, J. Tomasi, 
 V. Barone, B. Mennucci, M. Cossi, G. Scalmani, N. Rega, 
 G. A. Petersson, H. Nakatsuji, M. Hada, M. Ehara, K. Toyota, 
 R. Fukuda, J. Hasegawa, M. Ishida, T. Nakajima, Y. Honda, O. Kitao, 
 H. Nakai, M. Klene, X. Li, J. E. Knox, H. P. Hratchian, J. B. Cross, 
 V. Bakken, C. Adamo, J. Jaramillo, R. Gomperts, R. E. Stratmann, 
 O. Yazyev, A. J. Austin, R. Cammi, C. Pomelli, J. W. Ochterski, 
 P. Y. Ayala, K. Morokuma, G. A. Voth, P. Salvador, J. J. Dannenberg, 
 V. G. Zakrzewski, S. Dapprich, A. D. Daniels, M. C. Strain, 
 O. Farkas, D. K. Malick, A. D. Rabuck, K. Raghavachari, 
 J. B. Foresman, J. V. Ortiz, Q. Cui, A. G. Baboul, S. Clifford, 
 J. Cioslowski, B. B. Stefanov, G. Liu, A. Liashenko, P. Piskorz, 
 I. Komaromi, R. L. Martin, D. J. Fox, T. Keith, M. A. Al-Laham, 
 C. Y. Peng, A. Nanayakkara, M. Challacombe, P. M. W. Gill, 
 B. Johnson, W. Chen, M. W. Wong, C. Gonzalez, and J. A. Pople, 
 Gaussian, Inc., Wallingford CT, 2004.
 
 ******************************************
 Gaussian 03:  EM64T-G03RevE.01 11-Sep-2007
                12-Jun-2015 
 ******************************************
 %nproc=2
 Will use up to    2 processors via shared memory.
 Default route:  MP2=Direct MaxDisk=2000MB
 ----------------------------------------------------
 # b3lyp/6-31+G(d,p) int=ultrafine pop=(ReadRadii,MK)
 ----------------------------------------------------

 Warning!  SCF SP cutoffs with diffuse functions may be unreliable.
 Consider SCF=Tight

 1/38=1/1;
 2/17=6,18=5,40=1/2;
 3/5=1,6=6,7=111,11=2,16=1,25=1,30=1,74=-5,75=5/1,2,3;
 4//1;
 5/5=2,32=1,38=5/2;
 6/7=2,8=2,9=2,10=2,15=8,20=101,28=1/1,2;
 99/5=1,9=1/99;
 ----------------------------------------
 Ca2PO3_26.mol2_plusQc.out.z51546.zip.xyz
 ----------------------------------------
 Symbolic Z-matrix:
 Charge =  1 Multiplicity = 1
 O                     1.27367   1.28153   0.00045 
 O                    -1.2809    1.275     0.00038 
 O                     0.00518  -1.91807  -0.00008 
 P                    -0.00578   2.15066  -0.00033 
 Ca                   -1.86868  -0.93913  -0.00001 
 Ca                    1.87384  -0.92926  -0.00004 
 
                          Input orientation:                          
 ---------------------------------------------------------------------
 Center     Atomic     Atomic              Coordinates (Angstroms)
 Number     Number      Type              X           Y           Z
 ---------------------------------------------------------------------
    1          8             0        1.273670    1.281530    0.000450
    2          8             0       -1.280900    1.275000    0.000380
    3          8             0        0.005180   -1.918070   -0.000080
    4         15             0       -0.005780    2.150660   -0.000330
    5         20             0       -1.868680   -0.939130   -0.000010
    6         20             0        1.873840   -0.929260   -0.000040
 ---------------------------------------------------------------------
                    Distance matrix (angstroms):
                    1          2          3          4          5
     1  O    0.000000
     2  O    2.554578   0.000000
     3  O    3.441876   3.442339   0.000000
     4  P    1.546732   1.546839   4.068745   0.000000
     5  Ca   3.847817   2.290820   2.114161   3.607936   0.000000
     6  Ca   2.290807   3.848525   2.114151   3.608168   3.742533
                    6
     6  Ca   0.000000
 Stoichiometry    Ca2O3P(1+)
 Framework group  C1[X(Ca2O3P)]
 Deg. of freedom    12
 Full point group                 C1
 Largest Abelian subgroup         C1      NOp   1
 Largest concise Abelian subgroup C1      NOp   1
                         Standard orientation:                         
 ---------------------------------------------------------------------
 Center     Atomic     Atomic              Coordinates (Angstroms)
 Number     Number      Type              X           Y           Z
 ---------------------------------------------------------------------
    1          8             0        1.273632    1.281569    0.000449
    2          8             0       -1.280937    1.274966    0.000379
    3          8             0        0.005233   -1.918067   -0.000081
    4         15             0       -0.005842    2.150663   -0.000331
    5         20             0       -1.868655   -0.939180   -0.000011
    6         20             0        1.873865   -0.929204   -0.000041
 ---------------------------------------------------------------------
 Rotational constants (GHZ):      1.5593079      1.5219527      0.7702020
 Standard basis: 6-31+G(d,p) (6D, 7F)
 There are   134 symmetry adapted basis functions of A   symmetry.
 Integral buffers will be    131072 words long.
 Raffenetti 2 integral format.
 Two-electron integral symmetry is turned on.
   134 basis functions,   312 primitive gaussians,   134 cartesian basis functions
    39 alpha electrons       39 beta electrons
       nuclear repulsion energy       473.2287765818 Hartrees.
 NAtoms=    6 NActive=    6 NUniq=    6 SFac= 7.50D-01 NAtFMM=   80 NAOKFM=F Big=F
 One-electron integrals computed using PRISM.
 NBasis=   134 RedAO= T  NBF=   134
 NBsUse=   134 1.00D-06 NBFU=   134
 Harris functional with IExCor=  402 diagonalized for initial guess.
 ExpMin= 7.10D-03 ExpMax= 3.53D+04 ExpMxC= 5.30D+03 IAcc=3 IRadAn=         5 AccDes= 0.00D+00
 HarFok:  IExCor= 402 AccDes= 0.00D+00 IRadAn=         5 IDoV=1
 ScaDFX=  1.000000  1.000000  1.000000  1.000000
 Initial guess orbital symmetries:
       Occupied  (A) (A) (A) (A) (A) (A) (A) (A) (A) (A) (A) (A)
                 (A) (A) (A) (A) (A) (A) (A) (A) (A) (A) (A) (A)
                 (A) (A) (A) (A) (A) (A) (A) (A) (A) (A) (A) (A)
                 (A) (A) (A)
       Virtual   (A) (A) (A) (A) (A) (A) (A) (A) (A) (A) (A) (A)
                 (A) (A) (A) (A) (A) (A) (A) (A) (A) (A) (A) (A)
                 (A) (A) (A) (A) (A) (A) (A) (A) (A) (A) (A) (A)
                 (A) (A) (A) (A) (A) (A) (A) (A) (A) (A) (A) (A)
                 (A) (A) (A) (A) (A) (A) (A) (A) (A) (A) (A) (A)
                 (A) (A) (A) (A) (A) (A) (A) (A) (A) (A) (A) (A)
                 (A) (A) (A) (A) (A) (A) (A) (A) (A) (A) (A) (A)
                 (A) (A) (A) (A) (A) (A) (A) (A) (A) (A) (A)
 The electronic state of the initial guess is 1-A.
 Requested convergence on RMS density matrix=1.00D-04 within 128 cycles.
 Requested convergence on MAX density matrix=1.00D-02.
 Requested convergence on             energy=1.00D-02.
 No special actions if energy rises.
 Keep R1 integrals in memory in canonical form, NReq=    43203134.
 EnCoef did     4 forward-backward iterations
 SCF Done:  E(RB+HF-LYP) =  -1922.13413603     A.U. after    7 cycles
             Convg  =    0.4816D-04             -V/T =  2.0029
             S**2   =   0.0000

 **********************************************************************

            Population analysis using the SCF density.

 **********************************************************************

 Orbital symmetries:
       Occupied  (A) (A) (A) (A) (A) (A) (A) (A) (A) (A) (A) (A)
                 (A) (A) (A) (A) (A) (A) (A) (A) (A) (A) (A) (A)
                 (A) (A) (A) (A) (A) (A) (A) (A) (A) (A) (A) (A)
                 (A) (A) (A)
       Virtual   (A) (A) (A) (A) (A) (A) (A) (A) (A) (A) (A) (A)
                 (A) (A) (A) (A) (A) (A) (A) (A) (A) (A) (A) (A)
                 (A) (A) (A) (A) (A) (A) (A) (A) (A) (A) (A) (A)
                 (A) (A) (A) (A) (A) (A) (A) (A) (A) (A) (A) (A)
                 (A) (A) (A) (A) (A) (A) (A) (A) (A) (A) (A) (A)
                 (A) (A) (A) (A) (A) (A) (A) (A) (A) (A) (A) (A)
                 (A) (A) (A) (A) (A) (A) (A) (A) (A) (A) (A) (A)
                 (A) (A) (A) (A) (A) (A) (A) (A) (A) (A) (A)
 The electronic state is 1-A.
 Alpha  occ. eigenvalues -- -145.52214-145.52213 -77.29930 -19.27743 -19.27724
 Alpha  occ. eigenvalues --  -19.15038 -15.59102 -15.59101 -12.72352 -12.72352
 Alpha  occ. eigenvalues --  -12.72277 -12.72276 -12.72178 -12.72176  -6.75412
 Alpha  occ. eigenvalues --   -4.91854  -4.91634  -4.91194  -1.96272  -1.96252
 Alpha  occ. eigenvalues --   -1.24082  -1.24061  -1.23943  -1.23742  -1.23416
 Alpha  occ. eigenvalues --   -1.22889  -1.13627  -1.08321  -0.89406  -0.67428
 Alpha  occ. eigenvalues --   -0.56978  -0.52455  -0.52384  -0.45561  -0.43667
 Alpha  occ. eigenvalues --   -0.40565  -0.35637  -0.33624  -0.33428
 Alpha virt. eigenvalues --   -0.20920  -0.19683  -0.19651  -0.12838  -0.11779
 Alpha virt. eigenvalues --   -0.11639  -0.10826  -0.10186  -0.07820  -0.07313
 Alpha virt. eigenvalues --   -0.06401  -0.05945  -0.05385  -0.04882  -0.04595
 Alpha virt. eigenvalues --   -0.04467  -0.04405  -0.04224  -0.04053  -0.03404
 Alpha virt. eigenvalues --   -0.02373   0.00300   0.01346   0.02135   0.03098
 Alpha virt. eigenvalues --    0.03996   0.04038   0.04409   0.05016   0.05444
 Alpha virt. eigenvalues --    0.05765   0.06859   0.07325   0.07500   0.07936
 Alpha virt. eigenvalues --    0.08485   0.09738   0.10529   0.14242   0.15051
 Alpha virt. eigenvalues --    0.17274   0.18358   0.19367   0.21139   0.22042
 Alpha virt. eigenvalues --    0.23430   0.25024   0.27307   0.30128   0.31647
 Alpha virt. eigenvalues --    0.31763   0.36706   0.37707   0.44099   0.45620
 Alpha virt. eigenvalues --    0.47676   0.56674   0.57485   0.62233   0.63254
 Alpha virt. eigenvalues --    0.64967   0.82569   0.90713   0.94467   1.05952
 Alpha virt. eigenvalues --    1.06298   1.07844   1.12507   1.15938   1.16940
 Alpha virt. eigenvalues --    1.22243   1.22546   1.24768   1.37400   1.39850
 Alpha virt. eigenvalues --    1.43129   1.66270   1.66504   1.71125   1.71633
 Alpha virt. eigenvalues --    1.80315   1.81389   1.82295   1.85274   1.85673
 Alpha virt. eigenvalues --    1.86384   1.93710   1.97765   2.08896   2.53543
 Alpha virt. eigenvalues --    2.67703   3.38669   3.82230   3.89915   3.93560
          Condensed to atoms (all electrons):
              1          2          3          4          5          6
     1  O    8.836446  -0.080644   0.000946  -0.109376   0.000822   0.068038
     2  O   -0.080644   8.836791   0.000961  -0.109354   0.068046   0.000831
     3  O    0.000946   0.000961   8.751132  -0.013019   0.229792   0.229784
     4  P   -0.109376  -0.109354  -0.013019  14.594155  -0.018715  -0.018707
     5  Ca   0.000822   0.068046   0.229792  -0.018715  18.248030  -0.006696
     6  Ca   0.068038   0.000831   0.229784  -0.018707  -0.006696  18.248029
 Mulliken atomic charges:
              1
     1  O   -0.716231
     2  O   -0.716631
     3  O   -1.199597
     4  P    0.675016
     5  Ca   1.478721
     6  Ca   1.478722
 Sum of Mulliken charges=   1.00000
 Atomic charges with hydrogens summed into heavy atoms:
              1
     1  O   -0.716231
     2  O   -0.716631
     3  O   -1.199597
     4  P    0.675016
     5  Ca   1.478721
     6  Ca   1.478722
 Sum of Mulliken charges=   1.00000
 Electronic spatial extent (au):  <R**2>=  1251.4287
 Charge=     1.0000 electrons
 Dipole moment (field-independent basis, Debye):
    X=     0.0147    Y=    -3.9066    Z=    -0.0019  Tot=     3.9067
 Quadrupole moment (field-independent basis, Debye-Ang):
   XX=    -5.5664   YY=   -61.9170   ZZ=   -49.7211
   XY=     0.1551   XZ=    -0.0008   YZ=    -0.0021
 Traceless Quadrupole moment (field-independent basis, Debye-Ang):
   XX=    33.5018   YY=   -22.8489   ZZ=   -10.6529
   XY=     0.1551   XZ=    -0.0008   YZ=    -0.0021
 Octapole moment (field-independent basis, Debye-Ang**2):
  XXX=     0.6562  YYY=    16.7855  ZZZ=     0.0011  XYY=    -0.4539
  XXY=   -77.7547  XXZ=    -0.0058  XZZ=     0.0133  YZZ=    -4.6402
  YYZ=     0.0078  XYZ=     0.0000
 Hexadecapole moment (field-independent basis, Debye-Ang**3):
 XXXX=  -358.9146 YYYY=  -875.5674 ZZZZ=   -56.5324 XXXY=     0.5624
 XXXZ=    -0.0024 YYYX=     0.8991 YYYZ=     0.0214 ZZZX=    -0.0004
 ZZZY=     0.0018 XXYY=  -185.5224 XXZZ=   -96.5640 YYZZ=  -139.1617
 XXYZ=    -0.0054 YYXZ=    -0.0010 ZZXY=     0.1255
 N-N= 4.732287765818D+02 E-N=-5.489463363581D+03  KE= 1.916552748107D+03
 Merz-Kollman atomic radii used.
 Read replacement radii for each type of atom:
 Rad(20) =   1.188000000000D+00
 Atom Element Radius
    1     8    1.40
    2     8    1.40
    3     8    1.40
    4    15    1.80
    5    20    1.19
    6    20    1.19

 **********************************************************************

            Electrostatic Properties Using The SCF Density

 **********************************************************************

       Atomic Center    1 is at   1.273632  1.281569  0.000449
       Atomic Center    2 is at  -1.280937  1.274966  0.000379
       Atomic Center    3 is at   0.005233 -1.918067 -0.000081
       Atomic Center    4 is at  -0.005842  2.150663 -0.000331
       Atomic Center    5 is at  -1.868655 -0.939180 -0.000011
       Atomic Center    6 is at   1.873865 -0.929204 -0.000041
     665 points will be used for fitting atomic charges
 Fitting point charges to eletrostatic potential
 Charges from ESP fit, RMS=   0.00501 RRMS=   0.03151:
 Charge=   1.00000 Dipole=     0.0146    -3.9173    -0.0037 Tot=     3.9173
              1
     1  O   -0.739322
     2  O   -0.736095
     3  O   -1.529135
     4  P    0.608929
     5  Ca   1.696610
     6  Ca   1.699012
 -----------------------------------------------------------------

              Electrostatic Properties (Atomic Units)

 -----------------------------------------------------------------
    Center     Electric         -------- Electric Field --------
               Potential          X             Y             Z
 -----------------------------------------------------------------
    1 Atom    -22.186070
    2 Atom    -22.186655
    3 Atom    -22.310628
    4 Atom    -53.918156
    5 Atom    -80.019187
    6 Atom    -80.019142
 -----------------------------------------------------------------
 1\1\GINC-N031\SP\RB3LYP\6-31+G(d,p)\Ca2O3P1(1+)\TIMN\12-Jun-2015\0\\# 
 b3lyp/6-31+G(d,p) int=ultrafine pop=(ReadRadii,MK)\\Ca2PO3_26.mol2_plu
 sQc.out.z51546.zip.xyz\\1,1\O,0,1.27367,1.28153,0.00045\O,0,-1.2809,1.
 275,0.00038\O,0,0.00518,-1.91807,-0.00008\P,0,-0.00578,2.15066,-0.0003
 3\Ca,0,-1.86868,-0.93913,-0.00001\Ca,0,1.87384,-0.92926,-0.00004\\Vers
 ion=EM64T-G03RevE.01\State=1-A\HF=-1922.134136\RMSD=4.816e-05\Thermal=
 0.\Dipole=0.0057453,-1.536991,-0.0007655\PG=C01 [X(Ca2O3P1)]\\@


 MANHOOD BEGINS BY TRYING TO SHAVE FACE,
 AND ENDS BY TRYING TO SAVE FACE.
 Job cpu time:  0 days  0 hours  0 minutes 29.4 seconds.
 File lengths (MBytes):  RWF=     22 Int=      0 D2E=      0 Chk=     10 Scr=      1
 Normal termination of Gaussian 03 at Fri Jun 12 17:34:39 2015.
