 Entering Gaussian System, Link 0=/home/timn/tmp/g03.e01/g03
 Input=Ca2PO3_9.mol2_plusQ.out.z51560.zip.xyz.gjf
 Output=Ca2PO3_9.mol2_plusQ.out.z51560.zip.xyz.out
 Initial command:
 /home/timn/tmp/g03.e01/l1.exe /home/timn/tmp/g03.e01/Gau-12971.inp -scrdir=/home/timn/tmp/g03.e01/
 Default is to use a total of   2 processors:
                                2 via shared-memory
                                1 via Linda
 Entering Link 1 = /home/timn/tmp/g03.e01/l1.exe PID=     12972.
  
 Copyright (c) 1988,1990,1992,1993,1995,1998,2003,2004,2007, Gaussian, Inc.
                  All Rights Reserved.
  
 This is the Gaussian(R) 03 program.  It is based on the
 the Gaussian(R) 98 system (copyright 1998, Gaussian, Inc.),
 the Gaussian(R) 94 system (copyright 1995, Gaussian, Inc.),
 the Gaussian 92(TM) system (copyright 1992, Gaussian, Inc.),
 the Gaussian 90(TM) system (copyright 1990, Gaussian, Inc.),
 the Gaussian 88(TM) system (copyright 1988, Gaussian, Inc.),
 the Gaussian 86(TM) system (copyright 1986, Carnegie Mellon
 University), and the Gaussian 82(TM) system (copyright 1983,
 Carnegie Mellon University). Gaussian is a federally registered
 trademark of Gaussian, Inc.
  
 This software contains proprietary and confidential information,
 including trade secrets, belonging to Gaussian, Inc.
  
 This software is provided under written license and may be
 used, copied, transmitted, or stored only in accord with that
 written license.
  
 The following legend is applicable only to US Government
 contracts under FAR:
  
                    RESTRICTED RIGHTS LEGEND
  
 Use, reproduction and disclosure by the US Government is
 subject to restrictions as set forth in subparagraphs (a)
 and (c) of the Commercial Computer Software - Restricted
 Rights clause in FAR 52.227-19.
  
 Gaussian, Inc.
 340 Quinnipiac St., Bldg. 40, Wallingford CT 06492
  
  
 ---------------------------------------------------------------
 Warning -- This program may not be used in any manner that
 competes with the business of Gaussian, Inc. or will provide
 assistance to any competitor of Gaussian, Inc.  The licensee
 of this program is prohibited from giving any competitor of
 Gaussian, Inc. access to this program.  By using this program,
 the user acknowledges that Gaussian, Inc. is engaged in the
 business of creating and licensing software in the field of
 computational chemistry and represents and warrants to the
 licensee that it is not a competitor of Gaussian, Inc. and that
 it will not use this program in any manner prohibited above.
 ---------------------------------------------------------------
  

 Cite this work as:
 Gaussian 03, Revision E.01,
 M. J. Frisch, G. W. Trucks, H. B. Schlegel, G. E. Scuseria, 
 M. A. Robb, J. R. Cheeseman, J. A. Montgomery, Jr., T. Vreven, 
 K. N. Kudin, J. C. Burant, J. M. Millam, S. S. Iyengar, J. Tomasi, 
 V. Barone, B. Mennucci, M. Cossi, G. Scalmani, N. Rega, 
 G. A. Petersson, H. Nakatsuji, M. Hada, M. Ehara, K. Toyota, 
 R. Fukuda, J. Hasegawa, M. Ishida, T. Nakajima, Y. Honda, O. Kitao, 
 H. Nakai, M. Klene, X. Li, J. E. Knox, H. P. Hratchian, J. B. Cross, 
 V. Bakken, C. Adamo, J. Jaramillo, R. Gomperts, R. E. Stratmann, 
 O. Yazyev, A. J. Austin, R. Cammi, C. Pomelli, J. W. Ochterski, 
 P. Y. Ayala, K. Morokuma, G. A. Voth, P. Salvador, J. J. Dannenberg, 
 V. G. Zakrzewski, S. Dapprich, A. D. Daniels, M. C. Strain, 
 O. Farkas, D. K. Malick, A. D. Rabuck, K. Raghavachari, 
 J. B. Foresman, J. V. Ortiz, Q. Cui, A. G. Baboul, S. Clifford, 
 J. Cioslowski, B. B. Stefanov, G. Liu, A. Liashenko, P. Piskorz, 
 I. Komaromi, R. L. Martin, D. J. Fox, T. Keith, M. A. Al-Laham, 
 C. Y. Peng, A. Nanayakkara, M. Challacombe, P. M. W. Gill, 
 B. Johnson, W. Chen, M. W. Wong, C. Gonzalez, and J. A. Pople, 
 Gaussian, Inc., Wallingford CT, 2004.
 
 ******************************************
 Gaussian 03:  EM64T-G03RevE.01 11-Sep-2007
                12-Jun-2015 
 ******************************************
 %nproc=2
 Will use up to    2 processors via shared memory.
 Default route:  MP2=Direct MaxDisk=2000MB
 ----------------------------------------------------
 # b3lyp/6-31+G(d,p) int=ultrafine pop=(ReadRadii,MK)
 ----------------------------------------------------

 Warning!  SCF SP cutoffs with diffuse functions may be unreliable.
 Consider SCF=Tight

 1/38=1/1;
 2/17=6,18=5,40=1/2;
 3/5=1,6=6,7=111,11=2,16=1,25=1,30=1,74=-5,75=5/1,2,3;
 4//1;
 5/5=2,32=1,38=5/2;
 6/7=2,8=2,9=2,10=2,15=8,20=101,28=1/1,2;
 99/5=1,9=1/99;
 --------------------------------------
 Ca2PO3_9.mol2_plusQ.out.z51560.zip.xyz
 --------------------------------------
 Symbolic Z-matrix:
 Charge =  1 Multiplicity = 1
 O                    -1.32738   1.24773  -0.40849 
 O                     1.32758   1.24766  -0.4085 
 O                     0.00001  -0.72477   0.57386 
 P                     0.00007   1.11887   0.45747 
 Ca                   -2.1269   -0.77365  -0.12292 
 Ca                    2.12676  -0.77375  -0.12293 
 
                          Input orientation:                          
 ---------------------------------------------------------------------
 Center     Atomic     Atomic              Coordinates (Angstroms)
 Number     Number      Type              X           Y           Z
 ---------------------------------------------------------------------
    1          8             0       -1.327380    1.247730   -0.408490
    2          8             0        1.327580    1.247660   -0.408500
    3          8             0        0.000010   -0.724770    0.573860
    4         15             0        0.000070    1.118870    0.457470
    5         20             0       -2.126900   -0.773650   -0.122920
    6         20             0        2.126760   -0.773750   -0.122930
 ---------------------------------------------------------------------
                    Distance matrix (angstroms):
                    1          2          3          4          5
     1  O    0.000000
     2  O    2.654960   0.000000
     3  O    2.572495   2.572538   0.000000
     4  P    1.590162   1.590212   1.847310   0.000000
     5  Ca   2.192432   4.012566   2.238669   2.905596   0.000000
     6  Ca   4.012357   2.192336   2.238522   2.905458   4.253660
                    6
     6  Ca   0.000000
 Stoichiometry    Ca2O3P(1+)
 Framework group  C1[X(Ca2O3P)]
 Deg. of freedom    12
 Full point group                 C1
 Largest Abelian subgroup         C1      NOp   1
 Largest concise Abelian subgroup C1      NOp   1
                         Standard orientation:                         
 ---------------------------------------------------------------------
 Center     Atomic     Atomic              Coordinates (Angstroms)
 Number     Number      Type              X           Y           Z
 ---------------------------------------------------------------------
    1          8             0       -1.327377    1.247733   -0.408490
    2          8             0        1.327583    1.247657   -0.408500
    3          8             0        0.000009   -0.724770    0.573860
    4         15             0        0.000073    1.118870    0.457470
    5         20             0       -2.126901   -0.773646   -0.122920
    6         20             0        2.126759   -0.773755   -0.122930
 ---------------------------------------------------------------------
 Rotational constants (GHZ):      3.0984496      1.1585982      0.8980978
 Standard basis: 6-31+G(d,p) (6D, 7F)
 There are   134 symmetry adapted basis functions of A   symmetry.
 Integral buffers will be    131072 words long.
 Raffenetti 2 integral format.
 Two-electron integral symmetry is turned on.
   134 basis functions,   312 primitive gaussians,   134 cartesian basis functions
    39 alpha electrons       39 beta electrons
       nuclear repulsion energy       507.4520120561 Hartrees.
 NAtoms=    6 NActive=    6 NUniq=    6 SFac= 7.50D-01 NAtFMM=   80 NAOKFM=F Big=F
 One-electron integrals computed using PRISM.
 NBasis=   134 RedAO= T  NBF=   134
 NBsUse=   134 1.00D-06 NBFU=   134
 Harris functional with IExCor=  402 diagonalized for initial guess.
 ExpMin= 7.10D-03 ExpMax= 3.53D+04 ExpMxC= 5.30D+03 IAcc=3 IRadAn=         5 AccDes= 0.00D+00
 HarFok:  IExCor= 402 AccDes= 0.00D+00 IRadAn=         5 IDoV=1
 ScaDFX=  1.000000  1.000000  1.000000  1.000000
 Initial guess orbital symmetries:
       Occupied  (A) (A) (A) (A) (A) (A) (A) (A) (A) (A) (A) (A)
                 (A) (A) (A) (A) (A) (A) (A) (A) (A) (A) (A) (A)
                 (A) (A) (A) (A) (A) (A) (A) (A) (A) (A) (A) (A)
                 (A) (A) (A)
       Virtual   (A) (A) (A) (A) (A) (A) (A) (A) (A) (A) (A) (A)
                 (A) (A) (A) (A) (A) (A) (A) (A) (A) (A) (A) (A)
                 (A) (A) (A) (A) (A) (A) (A) (A) (A) (A) (A) (A)
                 (A) (A) (A) (A) (A) (A) (A) (A) (A) (A) (A) (A)
                 (A) (A) (A) (A) (A) (A) (A) (A) (A) (A) (A) (A)
                 (A) (A) (A) (A) (A) (A) (A) (A) (A) (A) (A) (A)
                 (A) (A) (A) (A) (A) (A) (A) (A) (A) (A) (A) (A)
                 (A) (A) (A) (A) (A) (A) (A) (A) (A) (A) (A)
 The electronic state of the initial guess is 1-A.
 Requested convergence on RMS density matrix=1.00D-04 within 128 cycles.
 Requested convergence on MAX density matrix=1.00D-02.
 Requested convergence on             energy=1.00D-02.
 No special actions if energy rises.
 Keep R1 integrals in memory in canonical form, NReq=    43203134.
 SCF Done:  E(RB+HF-LYP) =  -1922.11511704     A.U. after    9 cycles
             Convg  =    0.2542D-04             -V/T =  2.0029
             S**2   =   0.0000

 **********************************************************************

            Population analysis using the SCF density.

 **********************************************************************

 Orbital symmetries:
       Occupied  (A) (A) (A) (A) (A) (A) (A) (A) (A) (A) (A) (A)
                 (A) (A) (A) (A) (A) (A) (A) (A) (A) (A) (A) (A)
                 (A) (A) (A) (A) (A) (A) (A) (A) (A) (A) (A) (A)
                 (A) (A) (A)
       Virtual   (A) (A) (A) (A) (A) (A) (A) (A) (A) (A) (A) (A)
                 (A) (A) (A) (A) (A) (A) (A) (A) (A) (A) (A) (A)
                 (A) (A) (A) (A) (A) (A) (A) (A) (A) (A) (A) (A)
                 (A) (A) (A) (A) (A) (A) (A) (A) (A) (A) (A) (A)
                 (A) (A) (A) (A) (A) (A) (A) (A) (A) (A) (A) (A)
                 (A) (A) (A) (A) (A) (A) (A) (A) (A) (A) (A) (A)
                 (A) (A) (A) (A) (A) (A) (A) (A) (A) (A) (A) (A)
                 (A) (A) (A) (A) (A) (A) (A) (A) (A) (A) (A)
 The electronic state is 1-A.
 Alpha  occ. eigenvalues -- -145.55251-145.55246 -77.25375 -19.23091 -19.21325
 Alpha  occ. eigenvalues --  -19.21321 -15.62119 -15.62114 -12.75351 -12.75348
 Alpha  occ. eigenvalues --  -12.75254 -12.75251 -12.75249 -12.75246  -6.70498
 Alpha  occ. eigenvalues --   -4.86938  -4.86770  -4.86350  -1.99211  -1.99204
 Alpha  occ. eigenvalues --   -1.26924  -1.26868  -1.26820  -1.26553  -1.26387
 Alpha  occ. eigenvalues --   -1.26231  -1.07515  -1.02043  -0.99998  -0.62159
 Alpha  occ. eigenvalues --   -0.50870  -0.50191  -0.47812  -0.45056  -0.41390
 Alpha  occ. eigenvalues --   -0.38991  -0.38576  -0.38400  -0.30811
 Alpha virt. eigenvalues --   -0.22938  -0.22531  -0.15325  -0.13942  -0.13374
 Alpha virt. eigenvalues --   -0.12382  -0.11218  -0.09564  -0.07960  -0.06772
 Alpha virt. eigenvalues --   -0.05897  -0.05584  -0.05237  -0.04657  -0.04652
 Alpha virt. eigenvalues --   -0.04396  -0.03668  -0.02902  -0.02284  -0.01335
 Alpha virt. eigenvalues --   -0.00720   0.00911   0.01016   0.01553   0.02563
 Alpha virt. eigenvalues --    0.02846   0.03286   0.03339   0.04001   0.04128
 Alpha virt. eigenvalues --    0.04954   0.05635   0.05961   0.07330   0.07537
 Alpha virt. eigenvalues --    0.08501   0.09902   0.11107   0.14701   0.16356
 Alpha virt. eigenvalues --    0.18863   0.19203   0.20699   0.21509   0.22025
 Alpha virt. eigenvalues --    0.23226   0.25401   0.28517   0.29898   0.31320
 Alpha virt. eigenvalues --    0.34333   0.36365   0.38498   0.40281   0.42992
 Alpha virt. eigenvalues --    0.45350   0.58230   0.62657   0.65994   0.67324
 Alpha virt. eigenvalues --    0.78815   0.83614   0.88101   0.95270   1.10588
 Alpha virt. eigenvalues --    1.15220   1.16169   1.17253   1.19166   1.20607
 Alpha virt. eigenvalues --    1.21678   1.22789   1.24246   1.47149   1.51602
 Alpha virt. eigenvalues --    1.58540   1.71449   1.74292   1.75075   1.75956
 Alpha virt. eigenvalues --    1.79036   1.82367   1.83914   1.86250   1.89065
 Alpha virt. eigenvalues --    1.94501   1.98057   2.09248   2.20842   2.60162
 Alpha virt. eigenvalues --    2.67763   3.48946   3.96675   3.99316   4.02846
          Condensed to atoms (all electrons):
              1          2          3          4          5          6
     1  O    8.862821   0.080333   0.022849  -0.332587   0.147371   0.017485
     2  O    0.080333   8.862888   0.022861  -0.332596   0.017480   0.147372
     3  O    0.022849   0.022861   9.062145  -0.228992   0.094833   0.094839
     4  P   -0.332587  -0.332596  -0.228992  15.050933   0.018618   0.018598
     5  Ca   0.147371   0.017480   0.094833   0.018618  18.284546   0.007584
     6  Ca   0.017485   0.147372   0.094839   0.018598   0.007584  18.284564
 Mulliken atomic charges:
              1
     1  O   -0.798272
     2  O   -0.798339
     3  O   -1.068536
     4  P    0.806024
     5  Ca   1.429566
     6  Ca   1.429557
 Sum of Mulliken charges=   1.00000
 Atomic charges with hydrogens summed into heavy atoms:
              1
     1  O   -0.798272
     2  O   -0.798339
     3  O   -1.068536
     4  P    0.806024
     5  Ca   1.429566
     6  Ca   1.429557
 Sum of Mulliken charges=   1.00000
 Electronic spatial extent (au):  <R**2>=  1114.5956
 Charge=     1.0000 electrons
 Dipole moment (field-independent basis, Debye):
    X=    -0.0018    Y=   -13.0182    Z=    -1.2185  Tot=    13.0751
 Quadrupole moment (field-independent basis, Debye-Ang):
   XX=     4.3771   YY=   -53.9078   ZZ=   -56.6503
   XY=    -0.0023   XZ=     0.0003   YZ=     6.3127
 Traceless Quadrupole moment (field-independent basis, Debye-Ang):
   XX=    39.7708   YY=   -18.5141   ZZ=   -21.2566
   XY=    -0.0023   XZ=     0.0003   YZ=     6.3127
 Octapole moment (field-independent basis, Debye-Ang**2):
  XXX=    -0.0201  YYY=   -35.7449  ZZZ=    -8.7779  XYY=     0.0021
  XXY=   -81.8675  XXZ=    -2.6893  XZZ=    -0.0007  YZZ=   -12.3248
  YYZ=    -2.3154  XYZ=     0.0007
 Hexadecapole moment (field-independent basis, Debye-Ang**3):
 XXXX=  -391.8009 YYYY=  -376.1906 ZZZZ=  -126.7643 XXXY=    -0.0099
 XXXZ=     0.0024 YYYX=    -0.0075 YYYZ=     7.1014 ZZZX=    -0.0006
 ZZZY=     0.8476 XXYY=  -160.1572 XXZZ=  -135.8821 YYZZ=   -89.3765
 XXYZ=    14.2420 YYXZ=    -0.0005 ZZXY=    -0.0023
 N-N= 5.074520120561D+02 E-N=-5.557795090967D+03  KE= 1.916581382143D+03
 Merz-Kollman atomic radii used.
 Read replacement radii for each type of atom:
 Rad(20) =   1.188000000000D+00
 Atom Element Radius
    1     8    1.40
    2     8    1.40
    3     8    1.40
    4    15    1.80
    5    20    1.19
    6    20    1.19

 **********************************************************************

            Electrostatic Properties Using The SCF Density

 **********************************************************************

       Atomic Center    1 is at  -1.327377  1.247733 -0.408490
       Atomic Center    2 is at   1.327583  1.247657 -0.408500
       Atomic Center    3 is at   0.000009 -0.724770  0.573860
       Atomic Center    4 is at   0.000073  1.118870  0.457470
       Atomic Center    5 is at  -2.126901 -0.773646 -0.122920
       Atomic Center    6 is at   2.126759 -0.773755 -0.122930
     609 points will be used for fitting atomic charges
 Fitting point charges to eletrostatic potential
 Charges from ESP fit, RMS=   0.00901 RRMS=   0.05273:
 Charge=   1.00000 Dipole=    -0.0190   -13.5939    -1.3940 Tot=    13.6652
              1
     1  O   -0.719170
     2  O   -0.716839
     3  O   -1.227531
     4  P    0.478892
     5  Ca   1.593898
     6  Ca   1.590750
 -----------------------------------------------------------------

              Electrostatic Properties (Atomic Units)

 -----------------------------------------------------------------
    Center     Electric         -------- Electric Field --------
               Potential          X             Y             Z
 -----------------------------------------------------------------
    1 Atom    -22.251898
    2 Atom    -22.252025
    3 Atom    -22.235175
    4 Atom    -53.960599
    5 Atom    -79.989217
    6 Atom    -79.989247
 -----------------------------------------------------------------
 1\1\GINC-N032\SP\RB3LYP\6-31+G(d,p)\Ca2O3P1(1+)\TIMN\12-Jun-2015\0\\# 
 b3lyp/6-31+G(d,p) int=ultrafine pop=(ReadRadii,MK)\\Ca2PO3_9.mol2_plus
 Q.out.z51560.zip.xyz\\1,1\O,0,-1.32738,1.24773,-0.40849\O,0,1.32758,1.
 24766,-0.4085\O,0,0.00001,-0.72477,0.57386\P,0,0.00007,1.11887,0.45747
 \Ca,0,-2.1269,-0.77365,-0.12292\Ca,0,2.12676,-0.77375,-0.12293\\Versio
 n=EM64T-G03RevE.01\State=1-A\HF=-1922.115117\RMSD=2.542e-05\Thermal=0.
 \Dipole=-0.0007159,-5.1217432,-0.4793831\PG=C01 [X(Ca2O3P1)]\\@


 IF IT'S NOT TRUE, IT'S WELL INVENTED -- DANTE
 Job cpu time:  0 days  0 hours  0 minutes 36.5 seconds.
 File lengths (MBytes):  RWF=     22 Int=      0 D2E=      0 Chk=     10 Scr=      1
 Normal termination of Gaussian 03 at Fri Jun 12 17:35:08 2015.
