 Entering Gaussian System, Link 0=/home/timn/tmp/g03.e01/g03
 Input=Ca2PO3_23.mol2_plusQ.out.z51543.zip.xyz.gjf
 Output=Ca2PO3_23.mol2_plusQ.out.z51543.zip.xyz.out
 Initial command:
 /home/timn/tmp/g03.e01/l1.exe /home/timn/tmp/g03.e01/Gau-13341.inp -scrdir=/home/timn/tmp/g03.e01/
 Default is to use a total of   2 processors:
                                2 via shared-memory
                                1 via Linda
 Entering Link 1 = /home/timn/tmp/g03.e01/l1.exe PID=     13345.
  
 Copyright (c) 1988,1990,1992,1993,1995,1998,2003,2004,2007, Gaussian, Inc.
                  All Rights Reserved.
  
 This is the Gaussian(R) 03 program.  It is based on the
 the Gaussian(R) 98 system (copyright 1998, Gaussian, Inc.),
 the Gaussian(R) 94 system (copyright 1995, Gaussian, Inc.),
 the Gaussian 92(TM) system (copyright 1992, Gaussian, Inc.),
 the Gaussian 90(TM) system (copyright 1990, Gaussian, Inc.),
 the Gaussian 88(TM) system (copyright 1988, Gaussian, Inc.),
 the Gaussian 86(TM) system (copyright 1986, Carnegie Mellon
 University), and the Gaussian 82(TM) system (copyright 1983,
 Carnegie Mellon University). Gaussian is a federally registered
 trademark of Gaussian, Inc.
  
 This software contains proprietary and confidential information,
 including trade secrets, belonging to Gaussian, Inc.
  
 This software is provided under written license and may be
 used, copied, transmitted, or stored only in accord with that
 written license.
  
 The following legend is applicable only to US Government
 contracts under FAR:
  
                    RESTRICTED RIGHTS LEGEND
  
 Use, reproduction and disclosure by the US Government is
 subject to restrictions as set forth in subparagraphs (a)
 and (c) of the Commercial Computer Software - Restricted
 Rights clause in FAR 52.227-19.
  
 Gaussian, Inc.
 340 Quinnipiac St., Bldg. 40, Wallingford CT 06492
  
  
 ---------------------------------------------------------------
 Warning -- This program may not be used in any manner that
 competes with the business of Gaussian, Inc. or will provide
 assistance to any competitor of Gaussian, Inc.  The licensee
 of this program is prohibited from giving any competitor of
 Gaussian, Inc. access to this program.  By using this program,
 the user acknowledges that Gaussian, Inc. is engaged in the
 business of creating and licensing software in the field of
 computational chemistry and represents and warrants to the
 licensee that it is not a competitor of Gaussian, Inc. and that
 it will not use this program in any manner prohibited above.
 ---------------------------------------------------------------
  

 Cite this work as:
 Gaussian 03, Revision E.01,
 M. J. Frisch, G. W. Trucks, H. B. Schlegel, G. E. Scuseria, 
 M. A. Robb, J. R. Cheeseman, J. A. Montgomery, Jr., T. Vreven, 
 K. N. Kudin, J. C. Burant, J. M. Millam, S. S. Iyengar, J. Tomasi, 
 V. Barone, B. Mennucci, M. Cossi, G. Scalmani, N. Rega, 
 G. A. Petersson, H. Nakatsuji, M. Hada, M. Ehara, K. Toyota, 
 R. Fukuda, J. Hasegawa, M. Ishida, T. Nakajima, Y. Honda, O. Kitao, 
 H. Nakai, M. Klene, X. Li, J. E. Knox, H. P. Hratchian, J. B. Cross, 
 V. Bakken, C. Adamo, J. Jaramillo, R. Gomperts, R. E. Stratmann, 
 O. Yazyev, A. J. Austin, R. Cammi, C. Pomelli, J. W. Ochterski, 
 P. Y. Ayala, K. Morokuma, G. A. Voth, P. Salvador, J. J. Dannenberg, 
 V. G. Zakrzewski, S. Dapprich, A. D. Daniels, M. C. Strain, 
 O. Farkas, D. K. Malick, A. D. Rabuck, K. Raghavachari, 
 J. B. Foresman, J. V. Ortiz, Q. Cui, A. G. Baboul, S. Clifford, 
 J. Cioslowski, B. B. Stefanov, G. Liu, A. Liashenko, P. Piskorz, 
 I. Komaromi, R. L. Martin, D. J. Fox, T. Keith, M. A. Al-Laham, 
 C. Y. Peng, A. Nanayakkara, M. Challacombe, P. M. W. Gill, 
 B. Johnson, W. Chen, M. W. Wong, C. Gonzalez, and J. A. Pople, 
 Gaussian, Inc., Wallingford CT, 2004.
 
 ******************************************
 Gaussian 03:  EM64T-G03RevE.01 11-Sep-2007
                12-Jun-2015 
 ******************************************
 %nproc=2
 Will use up to    2 processors via shared memory.
 Default route:  MP2=Direct MaxDisk=2000MB
 ----------------------------------------------------
 # b3lyp/6-31+G(d,p) int=ultrafine pop=(ReadRadii,MK)
 ----------------------------------------------------

 Warning!  SCF SP cutoffs with diffuse functions may be unreliable.
 Consider SCF=Tight

 1/38=1/1;
 2/17=6,18=5,40=1/2;
 3/5=1,6=6,7=111,11=2,16=1,25=1,30=1,74=-5,75=5/1,2,3;
 4//1;
 5/5=2,32=1,38=5/2;
 6/7=2,8=2,9=2,10=2,15=8,20=101,28=1/1,2;
 99/5=1,9=1/99;
 ---------------------------------------
 Ca2PO3_23.mol2_plusQ.out.z51543.zip.xyz
 ---------------------------------------
 Symbolic Z-matrix:
 Charge =  1 Multiplicity = 1
 O                     0.00009  -0.72479   0.57427 
 O                    -1.32785   1.24782  -0.4079 
 O                     1.32704   1.24755  -0.40926 
 P                     0.        1.11913   0.45749 
 Ca                    2.12674  -0.7736   -0.12284 
 Ca                   -2.12645  -0.77398  -0.12312 
 
                          Input orientation:                          
 ---------------------------------------------------------------------
 Center     Atomic     Atomic              Coordinates (Angstroms)
 Number     Number      Type              X           Y           Z
 ---------------------------------------------------------------------
    1          8             0        0.000090   -0.724790    0.574270
    2          8             0       -1.327850    1.247820   -0.407900
    3          8             0        1.327040    1.247550   -0.409260
    4         15             0        0.000000    1.119130    0.457490
    5         20             0        2.126740   -0.773600   -0.122840
    6         20             0       -2.126450   -0.773980   -0.123120
 ---------------------------------------------------------------------
                    Distance matrix (angstroms):
                    1          2          3          4          5
     1  O    0.000000
     2  O    2.572795   0.000000
     3  O    2.572596   2.654890   0.000000
     4  P    1.847614   1.590172   1.590215   0.000000
     5  Ca   2.238523   4.012679   2.192397   2.905552   0.000000
     6  Ca   2.238514   2.192382   4.011864   2.905643   4.253190
                    6
     6  Ca   0.000000
 Stoichiometry    Ca2O3P(1+)
 Framework group  C1[X(Ca2O3P)]
 Deg. of freedom    12
 Full point group                 C1
 Largest Abelian subgroup         C1      NOp   1
 Largest concise Abelian subgroup C1      NOp   1
                         Standard orientation:                         
 ---------------------------------------------------------------------
 Center     Atomic     Atomic              Coordinates (Angstroms)
 Number     Number      Type              X           Y           Z
 ---------------------------------------------------------------------
    1          8             0        0.000088   -0.724790    0.574270
    2          8             0       -1.327849    1.247822   -0.407900
    3          8             0        1.327041    1.247548   -0.409260
    4         15             0        0.000001    1.119130    0.457490
    5         20             0        2.126738   -0.773603   -0.122840
    6         20             0       -2.126452   -0.773977   -0.123120
 ---------------------------------------------------------------------
 Rotational constants (GHZ):      3.0976855      1.1587880      0.8981840
 Standard basis: 6-31+G(d,p) (6D, 7F)
 There are   134 symmetry adapted basis functions of A   symmetry.
 Integral buffers will be    131072 words long.
 Raffenetti 2 integral format.
 Two-electron integral symmetry is turned on.
   134 basis functions,   312 primitive gaussians,   134 cartesian basis functions
    39 alpha electrons       39 beta electrons
       nuclear repulsion energy       507.4517932172 Hartrees.
 NAtoms=    6 NActive=    6 NUniq=    6 SFac= 7.50D-01 NAtFMM=   80 NAOKFM=F Big=F
 One-electron integrals computed using PRISM.
 NBasis=   134 RedAO= T  NBF=   134
 NBsUse=   134 1.00D-06 NBFU=   134
 Harris functional with IExCor=  402 diagonalized for initial guess.
 ExpMin= 7.10D-03 ExpMax= 3.53D+04 ExpMxC= 5.30D+03 IAcc=3 IRadAn=         5 AccDes= 0.00D+00
 HarFok:  IExCor= 402 AccDes= 0.00D+00 IRadAn=         5 IDoV=1
 ScaDFX=  1.000000  1.000000  1.000000  1.000000
 Initial guess orbital symmetries:
       Occupied  (A) (A) (A) (A) (A) (A) (A) (A) (A) (A) (A) (A)
                 (A) (A) (A) (A) (A) (A) (A) (A) (A) (A) (A) (A)
                 (A) (A) (A) (A) (A) (A) (A) (A) (A) (A) (A) (A)
                 (A) (A) (A)
       Virtual   (A) (A) (A) (A) (A) (A) (A) (A) (A) (A) (A) (A)
                 (A) (A) (A) (A) (A) (A) (A) (A) (A) (A) (A) (A)
                 (A) (A) (A) (A) (A) (A) (A) (A) (A) (A) (A) (A)
                 (A) (A) (A) (A) (A) (A) (A) (A) (A) (A) (A) (A)
                 (A) (A) (A) (A) (A) (A) (A) (A) (A) (A) (A) (A)
                 (A) (A) (A) (A) (A) (A) (A) (A) (A) (A) (A) (A)
                 (A) (A) (A) (A) (A) (A) (A) (A) (A) (A) (A) (A)
                 (A) (A) (A) (A) (A) (A) (A) (A) (A) (A) (A)
 The electronic state of the initial guess is 1-A.
 Requested convergence on RMS density matrix=1.00D-04 within 128 cycles.
 Requested convergence on MAX density matrix=1.00D-02.
 Requested convergence on             energy=1.00D-02.
 No special actions if energy rises.
 Keep R1 integrals in memory in canonical form, NReq=    43203134.
 SCF Done:  E(RB+HF-LYP) =  -1922.11511707     A.U. after    9 cycles
             Convg  =    0.2529D-04             -V/T =  2.0029
             S**2   =   0.0000

 **********************************************************************

            Population analysis using the SCF density.

 **********************************************************************

 Orbital symmetries:
       Occupied  (A) (A) (A) (A) (A) (A) (A) (A) (A) (A) (A) (A)
                 (A) (A) (A) (A) (A) (A) (A) (A) (A) (A) (A) (A)
                 (A) (A) (A) (A) (A) (A) (A) (A) (A) (A) (A) (A)
                 (A) (A) (A)
       Virtual   (A) (A) (A) (A) (A) (A) (A) (A) (A) (A) (A) (A)
                 (A) (A) (A) (A) (A) (A) (A) (A) (A) (A) (A) (A)
                 (A) (A) (A) (A) (A) (A) (A) (A) (A) (A) (A) (A)
                 (A) (A) (A) (A) (A) (A) (A) (A) (A) (A) (A) (A)
                 (A) (A) (A) (A) (A) (A) (A) (A) (A) (A) (A) (A)
                 (A) (A) (A) (A) (A) (A) (A) (A) (A) (A) (A) (A)
                 (A) (A) (A) (A) (A) (A) (A) (A) (A) (A) (A) (A)
                 (A) (A) (A) (A) (A) (A) (A) (A) (A) (A) (A)
 The electronic state is 1-A.
 Alpha  occ. eigenvalues -- -145.55249-145.55246 -77.25375 -19.23090 -19.21325
 Alpha  occ. eigenvalues --  -19.21324 -15.62117 -15.62114 -12.75349 -12.75348
 Alpha  occ. eigenvalues --  -12.75252 -12.75251 -12.75247 -12.75246  -6.70498
 Alpha  occ. eigenvalues --   -4.86939  -4.86770  -4.86350  -1.99210  -1.99204
 Alpha  occ. eigenvalues --   -1.26924  -1.26867  -1.26820  -1.26552  -1.26386
 Alpha  occ. eigenvalues --   -1.26231  -1.07514  -1.02044  -0.99994  -0.62160
 Alpha  occ. eigenvalues --   -0.50869  -0.50190  -0.47811  -0.45054  -0.41389
 Alpha  occ. eigenvalues --   -0.38992  -0.38576  -0.38399  -0.30814
 Alpha virt. eigenvalues --   -0.22939  -0.22530  -0.15326  -0.13941  -0.13374
 Alpha virt. eigenvalues --   -0.12381  -0.11218  -0.09563  -0.07960  -0.06772
 Alpha virt. eigenvalues --   -0.05899  -0.05584  -0.05237  -0.04657  -0.04652
 Alpha virt. eigenvalues --   -0.04396  -0.03668  -0.02904  -0.02284  -0.01334
 Alpha virt. eigenvalues --   -0.00720   0.00911   0.01016   0.01554   0.02564
 Alpha virt. eigenvalues --    0.02845   0.03286   0.03339   0.04001   0.04129
 Alpha virt. eigenvalues --    0.04954   0.05636   0.05960   0.07331   0.07537
 Alpha virt. eigenvalues --    0.08500   0.09901   0.11104   0.14700   0.16356
 Alpha virt. eigenvalues --    0.18865   0.19202   0.20700   0.21508   0.22024
 Alpha virt. eigenvalues --    0.23226   0.25402   0.28515   0.29898   0.31321
 Alpha virt. eigenvalues --    0.34333   0.36362   0.38500   0.40284   0.42990
 Alpha virt. eigenvalues --    0.45351   0.58234   0.62658   0.65992   0.67340
 Alpha virt. eigenvalues --    0.78807   0.83607   0.88094   0.95270   1.10589
 Alpha virt. eigenvalues --    1.15218   1.16168   1.17257   1.19169   1.20606
 Alpha virt. eigenvalues --    1.21678   1.22785   1.24245   1.47152   1.51603
 Alpha virt. eigenvalues --    1.58538   1.71450   1.74291   1.75073   1.75954
 Alpha virt. eigenvalues --    1.79035   1.82375   1.83914   1.86251   1.89063
 Alpha virt. eigenvalues --    1.94496   1.98052   2.09244   2.20811   2.60156
 Alpha virt. eigenvalues --    2.67762   3.48942   3.96679   3.99315   4.02848
          Condensed to atoms (all electrons):
              1          2          3          4          5          6
     1  O    9.061903   0.022749   0.022851  -0.228641   0.094912   0.094863
     2  O    0.022749   8.862651   0.080330  -0.332221   0.017507   0.147354
     3  O    0.022851   0.080330   8.862893  -0.332625   0.147392   0.017454
     4  P   -0.228641  -0.332221  -0.332625  15.050194   0.018499   0.018639
     5  Ca   0.094912   0.017507   0.147392   0.018499  18.284478   0.007586
     6  Ca   0.094863   0.147354   0.017454   0.018639   0.007586  18.284581
 Mulliken atomic charges:
              1
     1  O   -1.068637
     2  O   -0.798370
     3  O   -0.798295
     4  P    0.806155
     5  Ca   1.429625
     6  Ca   1.429523
 Sum of Mulliken charges=   1.00000
 Atomic charges with hydrogens summed into heavy atoms:
              1
     1  O   -1.068637
     2  O   -0.798370
     3  O   -0.798295
     4  P    0.806155
     5  Ca   1.429625
     6  Ca   1.429523
 Sum of Mulliken charges=   1.00000
 Electronic spatial extent (au):  <R**2>=  1114.5227
 Charge=     1.0000 electrons
 Dipole moment (field-independent basis, Debye):
    X=     0.0035    Y=   -13.0186    Z=    -1.2205  Tot=    13.0756
 Quadrupole moment (field-independent basis, Debye-Ang):
   XX=     4.3674   YY=   -53.9034   ZZ=   -56.6511
   XY=     0.0064   XZ=     0.0082   YZ=     6.3167
 Traceless Quadrupole moment (field-independent basis, Debye-Ang):
   XX=    39.7631   YY=   -18.5077   ZZ=   -21.2554
   XY=     0.0064   XZ=     0.0082   YZ=     6.3167
 Octapole moment (field-independent basis, Debye-Ang**2):
  XXX=     0.0579  YYY=   -35.7486  ZZZ=    -8.7818  XYY=    -0.0021
  XXY=   -81.8669  XXZ=    -2.6921  XZZ=    -0.0068  YZZ=   -12.3252
  YYZ=    -2.3195  XYZ=     0.0016
 Hexadecapole moment (field-independent basis, Debye-Ang**3):
 XXXX=  -391.7576 YYYY=  -376.2294 ZZZZ=  -126.7823 XXXY=     0.0314
 XXXZ=     0.0310 YYYX=     0.0176 YYYZ=     7.1075 ZZZX=     0.0109
 ZZZY=     0.8565 XXYY=  -160.1288 XXZZ=  -135.8580 YYZZ=   -89.3901
 XXYZ=    14.2484 YYXZ=     0.0101 ZZXY=    -0.0046
 N-N= 5.074517932172D+02 E-N=-5.557795067981D+03  KE= 1.916581325681D+03
 Merz-Kollman atomic radii used.
 Read replacement radii for each type of atom:
 Rad(20) =   1.188000000000D+00
 Atom Element Radius
    1     8    1.40
    2     8    1.40
    3     8    1.40
    4    15    1.80
    5    20    1.19
    6    20    1.19

 **********************************************************************

            Electrostatic Properties Using The SCF Density

 **********************************************************************

       Atomic Center    1 is at   0.000088 -0.724790  0.574270
       Atomic Center    2 is at  -1.327849  1.247822 -0.407900
       Atomic Center    3 is at   1.327041  1.247548 -0.409260
       Atomic Center    4 is at   0.000001  1.119130  0.457490
       Atomic Center    5 is at   2.126738 -0.773603 -0.122840
       Atomic Center    6 is at  -2.126452 -0.773977 -0.123120
     609 points will be used for fitting atomic charges
 Fitting point charges to eletrostatic potential
 Charges from ESP fit, RMS=   0.00901 RRMS=   0.05273:
 Charge=   1.00000 Dipole=    -0.0137   -13.5941    -1.3961 Tot=    13.6656
              1
     1  O   -1.227681
     2  O   -0.719169
     3  O   -0.717047
     4  P    0.479159
     5  Ca   1.590818
     6  Ca   1.593920
 -----------------------------------------------------------------

              Electrostatic Properties (Atomic Units)

 -----------------------------------------------------------------
    Center     Electric         -------- Electric Field --------
               Potential          X             Y             Z
 -----------------------------------------------------------------
    1 Atom    -22.235196
    2 Atom    -22.251926
    3 Atom    -22.251988
    4 Atom    -53.960603
    5 Atom    -79.989230
    6 Atom    -79.989247
 -----------------------------------------------------------------
 1\1\GINC-N030\SP\RB3LYP\6-31+G(d,p)\Ca2O3P1(1+)\TIMN\12-Jun-2015\0\\# 
 b3lyp/6-31+G(d,p) int=ultrafine pop=(ReadRadii,MK)\\Ca2PO3_23.mol2_plu
 sQ.out.z51543.zip.xyz\\1,1\O,0,0.00009,-0.72479,0.57427\O,0,-1.32785,1
 .24782,-0.4079\O,0,1.32704,1.24755,-0.40926\P,0,0.,1.11913,0.45749\Ca,
 0,2.12674,-0.7736,-0.12284\Ca,0,-2.12645,-0.77398,-0.12312\\Version=EM
 64T-G03RevE.01\State=1-A\HF=-1922.1151171\RMSD=2.529e-05\Thermal=0.\Di
 pole=0.0013748,-5.1218984,-0.4801679\PG=C01 [X(Ca2O3P1)]\\@


 In the race for quality, there is no finish line.
                               -- David T. Kearns
 Job cpu time:  0 days  0 hours  0 minutes 36.2 seconds.
 File lengths (MBytes):  RWF=     22 Int=      0 D2E=      0 Chk=     10 Scr=      1
 Normal termination of Gaussian 03 at Fri Jun 12 17:34:44 2015.
