 Entering Gaussian System, Link 0=/home/timn/tmp/g03.e01/g03
 Input=Ca2PO3_5.mol2_plusQ.out.z51556.zip.xyz.gjf
 Output=Ca2PO3_5.mol2_plusQ.out.z51556.zip.xyz.out
 Initial command:
 /home/timn/tmp/g03.e01/l1.exe /home/timn/tmp/g03.e01/Gau-13378.inp -scrdir=/home/timn/tmp/g03.e01/
 Default is to use a total of   2 processors:
                                2 via shared-memory
                                1 via Linda
 Entering Link 1 = /home/timn/tmp/g03.e01/l1.exe PID=     13379.
  
 Copyright (c) 1988,1990,1992,1993,1995,1998,2003,2004,2007, Gaussian, Inc.
                  All Rights Reserved.
  
 This is the Gaussian(R) 03 program.  It is based on the
 the Gaussian(R) 98 system (copyright 1998, Gaussian, Inc.),
 the Gaussian(R) 94 system (copyright 1995, Gaussian, Inc.),
 the Gaussian 92(TM) system (copyright 1992, Gaussian, Inc.),
 the Gaussian 90(TM) system (copyright 1990, Gaussian, Inc.),
 the Gaussian 88(TM) system (copyright 1988, Gaussian, Inc.),
 the Gaussian 86(TM) system (copyright 1986, Carnegie Mellon
 University), and the Gaussian 82(TM) system (copyright 1983,
 Carnegie Mellon University). Gaussian is a federally registered
 trademark of Gaussian, Inc.
  
 This software contains proprietary and confidential information,
 including trade secrets, belonging to Gaussian, Inc.
  
 This software is provided under written license and may be
 used, copied, transmitted, or stored only in accord with that
 written license.
  
 The following legend is applicable only to US Government
 contracts under FAR:
  
                    RESTRICTED RIGHTS LEGEND
  
 Use, reproduction and disclosure by the US Government is
 subject to restrictions as set forth in subparagraphs (a)
 and (c) of the Commercial Computer Software - Restricted
 Rights clause in FAR 52.227-19.
  
 Gaussian, Inc.
 340 Quinnipiac St., Bldg. 40, Wallingford CT 06492
  
  
 ---------------------------------------------------------------
 Warning -- This program may not be used in any manner that
 competes with the business of Gaussian, Inc. or will provide
 assistance to any competitor of Gaussian, Inc.  The licensee
 of this program is prohibited from giving any competitor of
 Gaussian, Inc. access to this program.  By using this program,
 the user acknowledges that Gaussian, Inc. is engaged in the
 business of creating and licensing software in the field of
 computational chemistry and represents and warrants to the
 licensee that it is not a competitor of Gaussian, Inc. and that
 it will not use this program in any manner prohibited above.
 ---------------------------------------------------------------
  

 Cite this work as:
 Gaussian 03, Revision E.01,
 M. J. Frisch, G. W. Trucks, H. B. Schlegel, G. E. Scuseria, 
 M. A. Robb, J. R. Cheeseman, J. A. Montgomery, Jr., T. Vreven, 
 K. N. Kudin, J. C. Burant, J. M. Millam, S. S. Iyengar, J. Tomasi, 
 V. Barone, B. Mennucci, M. Cossi, G. Scalmani, N. Rega, 
 G. A. Petersson, H. Nakatsuji, M. Hada, M. Ehara, K. Toyota, 
 R. Fukuda, J. Hasegawa, M. Ishida, T. Nakajima, Y. Honda, O. Kitao, 
 H. Nakai, M. Klene, X. Li, J. E. Knox, H. P. Hratchian, J. B. Cross, 
 V. Bakken, C. Adamo, J. Jaramillo, R. Gomperts, R. E. Stratmann, 
 O. Yazyev, A. J. Austin, R. Cammi, C. Pomelli, J. W. Ochterski, 
 P. Y. Ayala, K. Morokuma, G. A. Voth, P. Salvador, J. J. Dannenberg, 
 V. G. Zakrzewski, S. Dapprich, A. D. Daniels, M. C. Strain, 
 O. Farkas, D. K. Malick, A. D. Rabuck, K. Raghavachari, 
 J. B. Foresman, J. V. Ortiz, Q. Cui, A. G. Baboul, S. Clifford, 
 J. Cioslowski, B. B. Stefanov, G. Liu, A. Liashenko, P. Piskorz, 
 I. Komaromi, R. L. Martin, D. J. Fox, T. Keith, M. A. Al-Laham, 
 C. Y. Peng, A. Nanayakkara, M. Challacombe, P. M. W. Gill, 
 B. Johnson, W. Chen, M. W. Wong, C. Gonzalez, and J. A. Pople, 
 Gaussian, Inc., Wallingford CT, 2004.
 
 ******************************************
 Gaussian 03:  EM64T-G03RevE.01 11-Sep-2007
                12-Jun-2015 
 ******************************************
 %nproc=2
 Will use up to    2 processors via shared memory.
 Default route:  MP2=Direct MaxDisk=2000MB
 ----------------------------------------------------
 # b3lyp/6-31+G(d,p) int=ultrafine pop=(ReadRadii,MK)
 ----------------------------------------------------

 Warning!  SCF SP cutoffs with diffuse functions may be unreliable.
 Consider SCF=Tight

 1/38=1/1;
 2/17=6,18=5,40=1/2;
 3/5=1,6=6,7=111,11=2,16=1,25=1,30=1,74=-5,75=5/1,2,3;
 4//1;
 5/5=2,32=1,38=5/2;
 6/7=2,8=2,9=2,10=2,15=8,20=101,28=1/1,2;
 99/5=1,9=1/99;
 --------------------------------------
 Ca2PO3_5.mol2_plusQ.out.z51556.zip.xyz
 --------------------------------------
 Symbolic Z-matrix:
 Charge =  1 Multiplicity = 1
 O                    -0.25971   0.01532   1.2064 
 O                    -0.25957   0.01468  -1.2063 
 O                     1.68215   1.2059   -0.00013 
 P                     0.11919   1.18265  -0.00014 
 Ca                    1.59058  -1.03787   0.00012 
 Ca                   -2.14512  -0.34348   0. 
 
                          Input orientation:                          
 ---------------------------------------------------------------------
 Center     Atomic     Atomic              Coordinates (Angstroms)
 Number     Number      Type              X           Y           Z
 ---------------------------------------------------------------------
    1          8             0       -0.259710    0.015320    1.206400
    2          8             0       -0.259570    0.014680   -1.206300
    3          8             0        1.682150    1.205900   -0.000130
    4         15             0        0.119190    1.182650   -0.000140
    5         20             0        1.590580   -1.037870    0.000120
    6         20             0       -2.145120   -0.343480    0.000000
 ---------------------------------------------------------------------
                    Distance matrix (angstroms):
                    1          2          3          4          5
     1  O    0.000000
     2  O    2.412700   0.000000
     3  O    2.577599   2.577621   0.000000
     4  P    1.721036   1.721173   1.563133   0.000000
     5  Ca   2.447017   2.446705   2.245638   2.663775   0.000000
     6  Ca   2.266916   2.266878   4.128992   2.730599   3.799688
                    6
     6  Ca   0.000000
 Stoichiometry    Ca2O3P(1+)
 Framework group  C1[X(Ca2O3P)]
 Deg. of freedom    12
 Full point group                 C1
 Largest Abelian subgroup         C1      NOp   1
 Largest concise Abelian subgroup C1      NOp   1
                         Standard orientation:                         
 ---------------------------------------------------------------------
 Center     Atomic     Atomic              Coordinates (Angstroms)
 Number     Number      Type              X           Y           Z
 ---------------------------------------------------------------------
    1          8             0       -0.259710    0.015320    1.206399
    2          8             0       -0.259570    0.014680   -1.206301
    3          8             0        1.682149    1.205902   -0.000131
    4         15             0        0.119189    1.182651   -0.000141
    5         20             0        1.590580   -1.037868    0.000119
    6         20             0       -2.145120   -0.343481    0.000000
 ---------------------------------------------------------------------
 Rotational constants (GHZ):      3.1410456      1.3320375      1.1301219
 Standard basis: 6-31+G(d,p) (6D, 7F)
 There are   134 symmetry adapted basis functions of A   symmetry.
 Integral buffers will be    131072 words long.
 Raffenetti 2 integral format.
 Two-electron integral symmetry is turned on.
   134 basis functions,   312 primitive gaussians,   134 cartesian basis functions
    39 alpha electrons       39 beta electrons
       nuclear repulsion energy       530.2887021792 Hartrees.
 NAtoms=    6 NActive=    6 NUniq=    6 SFac= 7.50D-01 NAtFMM=   80 NAOKFM=F Big=F
 One-electron integrals computed using PRISM.
 NBasis=   134 RedAO= T  NBF=   134
 NBsUse=   134 1.00D-06 NBFU=   134
 Harris functional with IExCor=  402 diagonalized for initial guess.
 ExpMin= 7.10D-03 ExpMax= 3.53D+04 ExpMxC= 5.30D+03 IAcc=3 IRadAn=         5 AccDes= 0.00D+00
 HarFok:  IExCor= 402 AccDes= 0.00D+00 IRadAn=         5 IDoV=1
 ScaDFX=  1.000000  1.000000  1.000000  1.000000
 Initial guess orbital symmetries:
       Occupied  (A) (A) (A) (A) (A) (A) (A) (A) (A) (A) (A) (A)
                 (A) (A) (A) (A) (A) (A) (A) (A) (A) (A) (A) (A)
                 (A) (A) (A) (A) (A) (A) (A) (A) (A) (A) (A) (A)
                 (A) (A) (A)
       Virtual   (A) (A) (A) (A) (A) (A) (A) (A) (A) (A) (A) (A)
                 (A) (A) (A) (A) (A) (A) (A) (A) (A) (A) (A) (A)
                 (A) (A) (A) (A) (A) (A) (A) (A) (A) (A) (A) (A)
                 (A) (A) (A) (A) (A) (A) (A) (A) (A) (A) (A) (A)
                 (A) (A) (A) (A) (A) (A) (A) (A) (A) (A) (A) (A)
                 (A) (A) (A) (A) (A) (A) (A) (A) (A) (A) (A) (A)
                 (A) (A) (A) (A) (A) (A) (A) (A) (A) (A) (A) (A)
                 (A) (A) (A) (A) (A) (A) (A) (A) (A) (A) (A)
 The electronic state of the initial guess is 1-A.
 Requested convergence on RMS density matrix=1.00D-04 within 128 cycles.
 Requested convergence on MAX density matrix=1.00D-02.
 Requested convergence on             energy=1.00D-02.
 No special actions if energy rises.
 Keep R1 integrals in memory in canonical form, NReq=    43203127.
 SCF Done:  E(RB+HF-LYP) =  -1922.10492674     A.U. after    9 cycles
             Convg  =    0.5286D-04             -V/T =  2.0029
             S**2   =   0.0000

 **********************************************************************

            Population analysis using the SCF density.

 **********************************************************************

 Orbital symmetries:
       Occupied  (A) (A) (A) (A) (A) (A) (A) (A) (A) (A) (A) (A)
                 (A) (A) (A) (A) (A) (A) (A) (A) (A) (A) (A) (A)
                 (A) (A) (A) (A) (A) (A) (A) (A) (A) (A) (A) (A)
                 (A) (A) (A)
       Virtual   (A) (A) (A) (A) (A) (A) (A) (A) (A) (A) (A) (A)
                 (A) (A) (A) (A) (A) (A) (A) (A) (A) (A) (A) (A)
                 (A) (A) (A) (A) (A) (A) (A) (A) (A) (A) (A) (A)
                 (A) (A) (A) (A) (A) (A) (A) (A) (A) (A) (A) (A)
                 (A) (A) (A) (A) (A) (A) (A) (A) (A) (A) (A) (A)
                 (A) (A) (A) (A) (A) (A) (A) (A) (A) (A) (A) (A)
                 (A) (A) (A) (A) (A) (A) (A) (A) (A) (A) (A) (A)
                 (A) (A) (A) (A) (A) (A) (A) (A) (A) (A) (A)
 The electronic state is 1-A.
 Alpha  occ. eigenvalues -- -145.57785-145.54903 -77.26331 -19.22773 -19.22696
 Alpha  occ. eigenvalues --  -19.21832 -15.64610 -15.61712 -12.77851 -12.77756
 Alpha  occ. eigenvalues --  -12.77741 -12.74898 -12.74888 -12.74874  -6.71706
 Alpha  occ. eigenvalues --   -4.88053  -4.88018  -4.87590  -2.01597  -1.98709
 Alpha  occ. eigenvalues --   -1.29328  -1.28952  -1.28656  -1.26544  -1.25952
 Alpha  occ. eigenvalues --   -1.25949  -1.08725  -1.02512  -1.00435  -0.63349
 Alpha  occ. eigenvalues --   -0.50762  -0.50404  -0.50207  -0.44677  -0.43284
 Alpha  occ. eigenvalues --   -0.40101  -0.38493  -0.36472  -0.33911
 Alpha virt. eigenvalues --   -0.24120  -0.21781  -0.16319  -0.14446  -0.13105
 Alpha virt. eigenvalues --   -0.12336  -0.10459  -0.08307  -0.08100  -0.07091
 Alpha virt. eigenvalues --   -0.06602  -0.06403  -0.05488  -0.05411  -0.04906
 Alpha virt. eigenvalues --   -0.04524  -0.04346  -0.03608  -0.02543  -0.01875
 Alpha virt. eigenvalues --   -0.01266   0.00051   0.00727   0.02055   0.02110
 Alpha virt. eigenvalues --    0.02190   0.02750   0.03654   0.04210   0.04329
 Alpha virt. eigenvalues --    0.04859   0.05787   0.06513   0.07158   0.07721
 Alpha virt. eigenvalues --    0.08604   0.11482   0.12602   0.15249   0.16908
 Alpha virt. eigenvalues --    0.18399   0.18465   0.19276   0.20504   0.22388
 Alpha virt. eigenvalues --    0.23341   0.25947   0.28542   0.30779   0.31403
 Alpha virt. eigenvalues --    0.32038   0.36875   0.37594   0.42001   0.42206
 Alpha virt. eigenvalues --    0.45118   0.52860   0.57690   0.58744   0.74169
 Alpha virt. eigenvalues --    0.80874   0.85781   0.86274   0.94698   1.10410
 Alpha virt. eigenvalues --    1.10896   1.14895   1.17787   1.18964   1.20476
 Alpha virt. eigenvalues --    1.23348   1.25838   1.26361   1.46917   1.48411
 Alpha virt. eigenvalues --    1.68476   1.69335   1.74604   1.75822   1.77127
 Alpha virt. eigenvalues --    1.77983   1.81743   1.81765   1.83706   1.90145
 Alpha virt. eigenvalues --    1.91988   1.98936   2.08796   2.34747   2.45029
 Alpha virt. eigenvalues --    2.69351   3.49115   3.99302   4.01186   4.15376
          Condensed to atoms (all electrons):
              1          2          3          4          5          6
     1  O    8.921495   0.063296   0.000560  -0.286594   0.047314   0.153291
     2  O    0.063296   8.923071   0.000665  -0.286667   0.047213   0.153114
     3  O    0.000560   0.000665   8.621642   0.130044   0.075595   0.025447
     4  P   -0.286594  -0.286667   0.130044  14.502312   0.158839  -0.035753
     5  Ca   0.047314   0.047213   0.075595   0.158839  18.311495  -0.019178
     6  Ca   0.153291   0.153114   0.025447  -0.035753  -0.019178  18.265613
 Mulliken atomic charges:
              1
     1  O   -0.899362
     2  O   -0.900693
     3  O   -0.853953
     4  P    0.817820
     5  Ca   1.378722
     6  Ca   1.457466
 Sum of Mulliken charges=   1.00000
 Atomic charges with hydrogens summed into heavy atoms:
              1
     1  O   -0.899362
     2  O   -0.900693
     3  O   -0.853953
     4  P    0.817820
     5  Ca   1.378722
     6  Ca   1.457466
 Sum of Mulliken charges=   1.00000
 Electronic spatial extent (au):  <R**2>=   965.7023
 Charge=     1.0000 electrons
 Dipole moment (field-independent basis, Debye):
    X=    -6.1697    Y=   -11.0967    Z=     0.0073  Tot=    12.6965
 Quadrupole moment (field-independent basis, Debye-Ang):
   XX=    -5.5206   YY=   -45.8936   ZZ=   -64.1564
   XY=   -11.4006   XZ=     0.0014   YZ=    -0.0016
 Traceless Quadrupole moment (field-independent basis, Debye-Ang):
   XX=    33.0029   YY=    -7.3700   ZZ=   -25.6328
   XY=   -11.4006   XZ=     0.0014   YZ=    -0.0016
 Octapole moment (field-independent basis, Debye-Ang**2):
  XXX=   -75.6668  YYY=   -39.2362  ZZZ=     0.0017  XYY=     5.5437
  XXY=   -55.9586  XXZ=     0.0022  XZZ=     0.9278  YZZ=    -6.9474
  YYZ=     0.0034  XYZ=    -0.0001
 Hexadecapole moment (field-independent basis, Debye-Ang**3):
 XXXX=  -351.4416 YYYY=  -293.6147 ZZZZ=  -208.1214 XXXY=   -44.1951
 XXXZ=     0.0115 YYYX=   -29.0950 YYYZ=     0.0079 ZZZX=     0.0046
 ZZZY=    -0.0063 XXYY=  -128.7960 XXZZ=  -124.9116 YYZZ=   -77.9512
 XXYZ=    -0.0009 YYXZ=     0.0033 ZZXY=    -5.0573
 N-N= 5.302887021792D+02 E-N=-5.602737041049D+03  KE= 1.916596662361D+03
 Merz-Kollman atomic radii used.
 Read replacement radii for each type of atom:
 Rad(20) =   1.188000000000D+00
 Atom Element Radius
    1     8    1.40
    2     8    1.40
    3     8    1.40
    4    15    1.80
    5    20    1.19
    6    20    1.19

 **********************************************************************

            Electrostatic Properties Using The SCF Density

 **********************************************************************

       Atomic Center    1 is at  -0.259710  0.015320  1.206399
       Atomic Center    2 is at  -0.259570  0.014680 -1.206301
       Atomic Center    3 is at   1.682149  1.205902 -0.000131
       Atomic Center    4 is at   0.119189  1.182651 -0.000141
       Atomic Center    5 is at   1.590580 -1.037868  0.000119
       Atomic Center    6 is at  -2.145120 -0.343481  0.000000
     582 points will be used for fitting atomic charges
 Fitting point charges to eletrostatic potential
 Charges from ESP fit, RMS=   0.00829 RRMS=   0.04809:
 Charge=   1.00000 Dipole=    -6.2378   -11.3558     0.0073 Tot=    12.9563
              1
     1  O   -1.020358
     2  O   -1.021539
     3  O   -0.544731
     4  P    0.418963
     5  Ca   1.561307
     6  Ca   1.606358
 -----------------------------------------------------------------

              Electrostatic Properties (Atomic Units)

 -----------------------------------------------------------------
    Center     Electric         -------- Electric Field --------
               Potential          X             Y             Z
 -----------------------------------------------------------------
    1 Atom    -22.236835
    2 Atom    -22.238922
    3 Atom    -22.246551
    4 Atom    -53.950075
    5 Atom    -79.992803
    6 Atom    -79.963699
 -----------------------------------------------------------------
 1\1\GINC-N035\SP\RB3LYP\6-31+G(d,p)\Ca2O3P1(1+)\TIMN\12-Jun-2015\0\\# 
 b3lyp/6-31+G(d,p) int=ultrafine pop=(ReadRadii,MK)\\Ca2PO3_5.mol2_plus
 Q.out.z51556.zip.xyz\\1,1\O,0,-0.25971,0.01532,1.2064\O,0,-0.25957,0.0
 1468,-1.2063\O,0,1.68215,1.2059,-0.00013\P,0,0.11919,1.18265,-0.00014\
 Ca,0,1.59058,-1.03787,0.00012\Ca,0,-2.14512,-0.34348,0.\\Version=EM64T
 -G03RevE.01\State=1-A\HF=-1922.1049267\RMSD=5.286e-05\Thermal=0.\Dipol
 e=-2.4273464,-4.365775,0.002887\PG=C01 [X(Ca2O3P1)]\\@


 IF IT'S NOT TRUE, IT'S WELL INVENTED -- DANTE
 Job cpu time:  0 days  0 hours  0 minutes 37.0 seconds.
 File lengths (MBytes):  RWF=     22 Int=      0 D2E=      0 Chk=     10 Scr=      1
 Normal termination of Gaussian 03 at Fri Jun 12 17:35:08 2015.
