 Entering Gaussian System, Link 0=/home/timn/tmp/g03.e01/g03
 Input=Ca2PO3_29.mol2_plusQ.out.z51549.zip.xyz.gjf
 Output=Ca2PO3_29.mol2_plusQ.out.z51549.zip.xyz.out
 Initial command:
 /home/timn/tmp/g03.e01/l1.exe /home/timn/tmp/g03.e01/Gau-11292.inp -scrdir=/home/timn/tmp/g03.e01/
 Default is to use a total of   2 processors:
                                2 via shared-memory
                                1 via Linda
 Entering Link 1 = /home/timn/tmp/g03.e01/l1.exe PID=     11294.
  
 Copyright (c) 1988,1990,1992,1993,1995,1998,2003,2004,2007, Gaussian, Inc.
                  All Rights Reserved.
  
 This is the Gaussian(R) 03 program.  It is based on the
 the Gaussian(R) 98 system (copyright 1998, Gaussian, Inc.),
 the Gaussian(R) 94 system (copyright 1995, Gaussian, Inc.),
 the Gaussian 92(TM) system (copyright 1992, Gaussian, Inc.),
 the Gaussian 90(TM) system (copyright 1990, Gaussian, Inc.),
 the Gaussian 88(TM) system (copyright 1988, Gaussian, Inc.),
 the Gaussian 86(TM) system (copyright 1986, Carnegie Mellon
 University), and the Gaussian 82(TM) system (copyright 1983,
 Carnegie Mellon University). Gaussian is a federally registered
 trademark of Gaussian, Inc.
  
 This software contains proprietary and confidential information,
 including trade secrets, belonging to Gaussian, Inc.
  
 This software is provided under written license and may be
 used, copied, transmitted, or stored only in accord with that
 written license.
  
 The following legend is applicable only to US Government
 contracts under FAR:
  
                    RESTRICTED RIGHTS LEGEND
  
 Use, reproduction and disclosure by the US Government is
 subject to restrictions as set forth in subparagraphs (a)
 and (c) of the Commercial Computer Software - Restricted
 Rights clause in FAR 52.227-19.
  
 Gaussian, Inc.
 340 Quinnipiac St., Bldg. 40, Wallingford CT 06492
  
  
 ---------------------------------------------------------------
 Warning -- This program may not be used in any manner that
 competes with the business of Gaussian, Inc. or will provide
 assistance to any competitor of Gaussian, Inc.  The licensee
 of this program is prohibited from giving any competitor of
 Gaussian, Inc. access to this program.  By using this program,
 the user acknowledges that Gaussian, Inc. is engaged in the
 business of creating and licensing software in the field of
 computational chemistry and represents and warrants to the
 licensee that it is not a competitor of Gaussian, Inc. and that
 it will not use this program in any manner prohibited above.
 ---------------------------------------------------------------
  

 Cite this work as:
 Gaussian 03, Revision E.01,
 M. J. Frisch, G. W. Trucks, H. B. Schlegel, G. E. Scuseria, 
 M. A. Robb, J. R. Cheeseman, J. A. Montgomery, Jr., T. Vreven, 
 K. N. Kudin, J. C. Burant, J. M. Millam, S. S. Iyengar, J. Tomasi, 
 V. Barone, B. Mennucci, M. Cossi, G. Scalmani, N. Rega, 
 G. A. Petersson, H. Nakatsuji, M. Hada, M. Ehara, K. Toyota, 
 R. Fukuda, J. Hasegawa, M. Ishida, T. Nakajima, Y. Honda, O. Kitao, 
 H. Nakai, M. Klene, X. Li, J. E. Knox, H. P. Hratchian, J. B. Cross, 
 V. Bakken, C. Adamo, J. Jaramillo, R. Gomperts, R. E. Stratmann, 
 O. Yazyev, A. J. Austin, R. Cammi, C. Pomelli, J. W. Ochterski, 
 P. Y. Ayala, K. Morokuma, G. A. Voth, P. Salvador, J. J. Dannenberg, 
 V. G. Zakrzewski, S. Dapprich, A. D. Daniels, M. C. Strain, 
 O. Farkas, D. K. Malick, A. D. Rabuck, K. Raghavachari, 
 J. B. Foresman, J. V. Ortiz, Q. Cui, A. G. Baboul, S. Clifford, 
 J. Cioslowski, B. B. Stefanov, G. Liu, A. Liashenko, P. Piskorz, 
 I. Komaromi, R. L. Martin, D. J. Fox, T. Keith, M. A. Al-Laham, 
 C. Y. Peng, A. Nanayakkara, M. Challacombe, P. M. W. Gill, 
 B. Johnson, W. Chen, M. W. Wong, C. Gonzalez, and J. A. Pople, 
 Gaussian, Inc., Wallingford CT, 2004.
 
 ******************************************
 Gaussian 03:  EM64T-G03RevE.01 11-Sep-2007
                12-Jun-2015 
 ******************************************
 %nproc=2
 Will use up to    2 processors via shared memory.
 Default route:  MP2=Direct MaxDisk=2000MB
 ----------------------------------------------------
 # b3lyp/6-31+G(d,p) int=ultrafine pop=(ReadRadii,MK)
 ----------------------------------------------------

 Warning!  SCF SP cutoffs with diffuse functions may be unreliable.
 Consider SCF=Tight

 1/38=1/1;
 2/17=6,18=5,40=1/2;
 3/5=1,6=6,7=111,11=2,16=1,25=1,30=1,74=-5,75=5/1,2,3;
 4//1;
 5/5=2,32=1,38=5/2;
 6/7=2,8=2,9=2,10=2,15=8,20=101,28=1/1,2;
 99/5=1,9=1/99;
 ---------------------------------------
 Ca2PO3_29.mol2_plusQ.out.z51549.zip.xyz
 ---------------------------------------
 Symbolic Z-matrix:
 Charge =  1 Multiplicity = 1
 O                     0.00002  -0.72475   0.57437 
 O                     1.32744   1.24761  -0.40873 
 O                    -1.3275    1.24766  -0.40855 
 P                    -0.00004   1.11917   0.45753 
 Ca                   -2.1266   -0.77382  -0.12302 
 Ca                    2.12664  -0.77376  -0.12297 
 
                          Input orientation:                          
 ---------------------------------------------------------------------
 Center     Atomic     Atomic              Coordinates (Angstroms)
 Number     Number      Type              X           Y           Z
 ---------------------------------------------------------------------
    1          8             0        0.000020   -0.724750    0.574370
    2          8             0        1.327440    1.247610   -0.408730
    3          8             0       -1.327500    1.247660   -0.408550
    4         15             0       -0.000040    1.119170    0.457530
    5         20             0       -2.126600   -0.773820   -0.123020
    6         20             0        2.126640   -0.773760   -0.122970
 ---------------------------------------------------------------------
                    Distance matrix (angstroms):
                    1          2          3          4          5
     1  O    0.000000
     2  O    2.572690   0.000000
     3  O    2.572711   2.654940   0.000000
     4  P    1.847618   1.590316   1.590206   0.000000
     5  Ca   2.238587   4.012256   2.192366   2.905634   0.000000
     6  Ca   2.238570   2.192331   4.012328   2.905672   4.253240
                    6
     6  Ca   0.000000
 Stoichiometry    Ca2O3P(1+)
 Framework group  C1[X(Ca2O3P)]
 Deg. of freedom    12
 Full point group                 C1
 Largest Abelian subgroup         C1      NOp   1
 Largest concise Abelian subgroup C1      NOp   1
                         Standard orientation:                         
 ---------------------------------------------------------------------
 Center     Atomic     Atomic              Coordinates (Angstroms)
 Number     Number      Type              X           Y           Z
 ---------------------------------------------------------------------
    1          8             0        0.000021   -0.724751    0.574372
    2          8             0        1.327442    1.247608   -0.408728
    3          8             0       -1.327498    1.247659   -0.408548
    4         15             0       -0.000038    1.119169    0.457532
    5         20             0       -2.126599   -0.773821   -0.123018
    6         20             0        2.126641   -0.773762   -0.122968
 ---------------------------------------------------------------------
 Rotational constants (GHZ):      3.0976348      1.1587470      0.8981705
 Standard basis: 6-31+G(d,p) (6D, 7F)
 There are   134 symmetry adapted basis functions of A   symmetry.
 Integral buffers will be    131072 words long.
 Raffenetti 2 integral format.
 Two-electron integral symmetry is turned on.
   134 basis functions,   312 primitive gaussians,   134 cartesian basis functions
    39 alpha electrons       39 beta electrons
       nuclear repulsion energy       507.4445229525 Hartrees.
 NAtoms=    6 NActive=    6 NUniq=    6 SFac= 7.50D-01 NAtFMM=   80 NAOKFM=F Big=F
 One-electron integrals computed using PRISM.
 NBasis=   134 RedAO= T  NBF=   134
 NBsUse=   134 1.00D-06 NBFU=   134
 Harris functional with IExCor=  402 diagonalized for initial guess.
 ExpMin= 7.10D-03 ExpMax= 3.53D+04 ExpMxC= 5.30D+03 IAcc=3 IRadAn=         5 AccDes= 0.00D+00
 HarFok:  IExCor= 402 AccDes= 0.00D+00 IRadAn=         5 IDoV=1
 ScaDFX=  1.000000  1.000000  1.000000  1.000000
 Initial guess orbital symmetries:
       Occupied  (A) (A) (A) (A) (A) (A) (A) (A) (A) (A) (A) (A)
                 (A) (A) (A) (A) (A) (A) (A) (A) (A) (A) (A) (A)
                 (A) (A) (A) (A) (A) (A) (A) (A) (A) (A) (A) (A)
                 (A) (A) (A)
       Virtual   (A) (A) (A) (A) (A) (A) (A) (A) (A) (A) (A) (A)
                 (A) (A) (A) (A) (A) (A) (A) (A) (A) (A) (A) (A)
                 (A) (A) (A) (A) (A) (A) (A) (A) (A) (A) (A) (A)
                 (A) (A) (A) (A) (A) (A) (A) (A) (A) (A) (A) (A)
                 (A) (A) (A) (A) (A) (A) (A) (A) (A) (A) (A) (A)
                 (A) (A) (A) (A) (A) (A) (A) (A) (A) (A) (A) (A)
                 (A) (A) (A) (A) (A) (A) (A) (A) (A) (A) (A) (A)
                 (A) (A) (A) (A) (A) (A) (A) (A) (A) (A) (A)
 The electronic state of the initial guess is 1-A.
 Requested convergence on RMS density matrix=1.00D-04 within 128 cycles.
 Requested convergence on MAX density matrix=1.00D-02.
 Requested convergence on             energy=1.00D-02.
 No special actions if energy rises.
 Keep R1 integrals in memory in canonical form, NReq=    43203134.
 SCF Done:  E(RB+HF-LYP) =  -1922.11511707     A.U. after    9 cycles
             Convg  =    0.2532D-04             -V/T =  2.0029
             S**2   =   0.0000

 **********************************************************************

            Population analysis using the SCF density.

 **********************************************************************

 Orbital symmetries:
       Occupied  (A) (A) (A) (A) (A) (A) (A) (A) (A) (A) (A) (A)
                 (A) (A) (A) (A) (A) (A) (A) (A) (A) (A) (A) (A)
                 (A) (A) (A) (A) (A) (A) (A) (A) (A) (A) (A) (A)
                 (A) (A) (A)
       Virtual   (A) (A) (A) (A) (A) (A) (A) (A) (A) (A) (A) (A)
                 (A) (A) (A) (A) (A) (A) (A) (A) (A) (A) (A) (A)
                 (A) (A) (A) (A) (A) (A) (A) (A) (A) (A) (A) (A)
                 (A) (A) (A) (A) (A) (A) (A) (A) (A) (A) (A) (A)
                 (A) (A) (A) (A) (A) (A) (A) (A) (A) (A) (A) (A)
                 (A) (A) (A) (A) (A) (A) (A) (A) (A) (A) (A) (A)
                 (A) (A) (A) (A) (A) (A) (A) (A) (A) (A) (A) (A)
                 (A) (A) (A) (A) (A) (A) (A) (A) (A) (A) (A)
 The electronic state is 1-A.
 Alpha  occ. eigenvalues -- -145.55249-145.55246 -77.25375 -19.23090 -19.21328
 Alpha  occ. eigenvalues --  -19.21319 -15.62117 -15.62114 -12.75350 -12.75347
 Alpha  occ. eigenvalues --  -12.75253 -12.75251 -12.75248 -12.75245  -6.70498
 Alpha  occ. eigenvalues --   -4.86938  -4.86770  -4.86350  -1.99210  -1.99204
 Alpha  occ. eigenvalues --   -1.26923  -1.26867  -1.26820  -1.26552  -1.26386
 Alpha  occ. eigenvalues --   -1.26230  -1.07511  -1.02041  -0.99993  -0.62159
 Alpha  occ. eigenvalues --   -0.50867  -0.50189  -0.47809  -0.45052  -0.41388
 Alpha  occ. eigenvalues --   -0.38991  -0.38574  -0.38398  -0.30815
 Alpha virt. eigenvalues --   -0.22939  -0.22530  -0.15326  -0.13941  -0.13374
 Alpha virt. eigenvalues --   -0.12381  -0.11218  -0.09563  -0.07960  -0.06772
 Alpha virt. eigenvalues --   -0.05900  -0.05584  -0.05237  -0.04657  -0.04652
 Alpha virt. eigenvalues --   -0.04395  -0.03668  -0.02904  -0.02284  -0.01334
 Alpha virt. eigenvalues --   -0.00719   0.00911   0.01016   0.01555   0.02563
 Alpha virt. eigenvalues --    0.02845   0.03286   0.03339   0.04001   0.04129
 Alpha virt. eigenvalues --    0.04954   0.05637   0.05960   0.07332   0.07537
 Alpha virt. eigenvalues --    0.08499   0.09901   0.11105   0.14700   0.16356
 Alpha virt. eigenvalues --    0.18865   0.19202   0.20700   0.21508   0.22024
 Alpha virt. eigenvalues --    0.23226   0.25402   0.28515   0.29898   0.31322
 Alpha virt. eigenvalues --    0.34333   0.36362   0.38501   0.40284   0.42988
 Alpha virt. eigenvalues --    0.45350   0.58235   0.62657   0.65990   0.67341
 Alpha virt. eigenvalues --    0.78806   0.83603   0.88090   0.95267   1.10590
 Alpha virt. eigenvalues --    1.15219   1.16169   1.17258   1.19170   1.20606
 Alpha virt. eigenvalues --    1.21678   1.22785   1.24246   1.47153   1.51606
 Alpha virt. eigenvalues --    1.58540   1.71451   1.74293   1.75075   1.75955
 Alpha virt. eigenvalues --    1.79034   1.82377   1.83915   1.86253   1.89063
 Alpha virt. eigenvalues --    1.94494   1.98047   2.09238   2.20811   2.60145
 Alpha virt. eigenvalues --    2.67753   3.48945   3.96680   3.99317   4.02850
          Condensed to atoms (all electrons):
              1          2          3          4          5          6
     1  O    9.061874   0.022787   0.022771  -0.228531   0.094891   0.094890
     2  O    0.022787   8.862823   0.080316  -0.332311   0.017478   0.147391
     3  O    0.022771   0.080316   8.862629  -0.332309   0.147399   0.017486
     4  P   -0.228531  -0.332311  -0.332309  15.049791   0.018553   0.018537
     5  Ca   0.094891   0.017478   0.147399   0.018553  18.284524   0.007586
     6  Ca   0.094890   0.147391   0.017486   0.018537   0.007586  18.284491
 Mulliken atomic charges:
              1
     1  O   -1.068683
     2  O   -0.798484
     3  O   -0.798291
     4  P    0.806270
     5  Ca   1.429569
     6  Ca   1.429618
 Sum of Mulliken charges=   1.00000
 Atomic charges with hydrogens summed into heavy atoms:
              1
     1  O   -1.068683
     2  O   -0.798484
     3  O   -0.798291
     4  P    0.806270
     5  Ca   1.429569
     6  Ca   1.429618
 Sum of Mulliken charges=   1.00000
 Electronic spatial extent (au):  <R**2>=  1114.5439
 Charge=     1.0000 electrons
 Dipole moment (field-independent basis, Debye):
    X=    -0.0007    Y=   -13.0192    Z=    -1.2205  Tot=    13.0763
 Quadrupole moment (field-independent basis, Debye-Ang):
   XX=     4.3695   YY=   -53.9022   ZZ=   -56.6512
   XY=    -0.0012   XZ=     0.0018   YZ=     6.3182
 Traceless Quadrupole moment (field-independent basis, Debye-Ang):
   XX=    39.7641   YY=   -18.5076   ZZ=   -21.2565
   XY=    -0.0012   XZ=     0.0018   YZ=     6.3182
 Octapole moment (field-independent basis, Debye-Ang**2):
  XXX=     0.0077  YYY=   -35.7524  ZZZ=    -8.7825  XYY=    -0.0020
  XXY=   -81.8721  XXZ=    -2.6929  XZZ=    -0.0006  YZZ=   -12.3262
  YYZ=    -2.3202  XYZ=     0.0008
 Hexadecapole moment (field-independent basis, Debye-Ang**3):
 XXXX=  -391.7393 YYYY=  -376.2185 ZZZZ=  -126.7895 XXXY=    -0.0022
 XXXZ=     0.0056 YYYX=    -0.0019 YYYZ=     7.1095 ZZZX=     0.0015
 ZZZY=     0.8596 XXYY=  -160.1258 XXZZ=  -135.8596 YYZZ=   -89.3905
 XXYZ=    14.2520 YYXZ=     0.0022 ZZXY=    -0.0013
 N-N= 5.074445229525D+02 E-N=-5.557780738962D+03  KE= 1.916581030338D+03
 Merz-Kollman atomic radii used.
 Read replacement radii for each type of atom:
 Rad(20) =   1.188000000000D+00
 Atom Element Radius
    1     8    1.40
    2     8    1.40
    3     8    1.40
    4    15    1.80
    5    20    1.19
    6    20    1.19

 **********************************************************************

            Electrostatic Properties Using The SCF Density

 **********************************************************************

       Atomic Center    1 is at   0.000021 -0.724751  0.574372
       Atomic Center    2 is at   1.327442  1.247608 -0.408728
       Atomic Center    3 is at  -1.327498  1.247659 -0.408548
       Atomic Center    4 is at  -0.000038  1.119169  0.457532
       Atomic Center    5 is at  -2.126599 -0.773821 -0.123018
       Atomic Center    6 is at   2.126641 -0.773762 -0.122968
     609 points will be used for fitting atomic charges
 Fitting point charges to eletrostatic potential
 Charges from ESP fit, RMS=   0.00901 RRMS=   0.05272:
 Charge=   1.00000 Dipole=    -0.0178   -13.5946    -1.3961 Tot=    13.6661
              1
     1  O   -1.227666
     2  O   -0.717075
     3  O   -0.719251
     4  P    0.479200
     5  Ca   1.593961
     6  Ca   1.590831
 -----------------------------------------------------------------

              Electrostatic Properties (Atomic Units)

 -----------------------------------------------------------------
    Center     Electric         -------- Electric Field --------
               Potential          X             Y             Z
 -----------------------------------------------------------------
    1 Atom    -22.235202
    2 Atom    -22.252109
    3 Atom    -22.251822
    4 Atom    -53.960604
    5 Atom    -79.989231
    6 Atom    -79.989246
 -----------------------------------------------------------------
 1\1\GINC-N033\SP\RB3LYP\6-31+G(d,p)\Ca2O3P1(1+)\TIMN\12-Jun-2015\0\\# 
 b3lyp/6-31+G(d,p) int=ultrafine pop=(ReadRadii,MK)\\Ca2PO3_29.mol2_plu
 sQ.out.z51549.zip.xyz\\1,1\O,0,0.00002,-0.72475,0.57437\O,0,1.32744,1.
 24761,-0.40873\O,0,-1.3275,1.24766,-0.40855\P,0,-0.00004,1.11917,0.457
 53\Ca,0,-2.1266,-0.77382,-0.12302\Ca,0,2.12664,-0.77376,-0.12297\\Vers
 ion=EM64T-G03RevE.01\State=1-A\HF=-1922.1151171\RMSD=2.532e-05\Thermal
 =0.\Dipole=-0.0002601,-5.1221545,-0.4801808\PG=C01 [X(Ca2O3P1)]\\@


 THE RED LIGHT IS ALWAYS LONGER THAN THE GREEN LIGHT.

                     -- PETER'S THEORY OF RELATIVITY
 Job cpu time:  0 days  0 hours  0 minutes 35.7 seconds.
 File lengths (MBytes):  RWF=     22 Int=      0 D2E=      0 Chk=     10 Scr=      1
 Normal termination of Gaussian 03 at Fri Jun 12 17:34:41 2015.
