 Entering Gaussian System, Link 0=/home/timn/tmp/g03.e01/g03
 Input=Ca2PO3_28.mol2_plusQ.out.z51548.zip.xyz.gjf
 Output=Ca2PO3_28.mol2_plusQ.out.z51548.zip.xyz.out
 Initial command:
 /home/timn/tmp/g03.e01/l1.exe /home/timn/tmp/g03.e01/Gau-12905.inp -scrdir=/home/timn/tmp/g03.e01/
 Default is to use a total of   2 processors:
                                2 via shared-memory
                                1 via Linda
 Entering Link 1 = /home/timn/tmp/g03.e01/l1.exe PID=     12907.
  
 Copyright (c) 1988,1990,1992,1993,1995,1998,2003,2004,2007, Gaussian, Inc.
                  All Rights Reserved.
  
 This is the Gaussian(R) 03 program.  It is based on the
 the Gaussian(R) 98 system (copyright 1998, Gaussian, Inc.),
 the Gaussian(R) 94 system (copyright 1995, Gaussian, Inc.),
 the Gaussian 92(TM) system (copyright 1992, Gaussian, Inc.),
 the Gaussian 90(TM) system (copyright 1990, Gaussian, Inc.),
 the Gaussian 88(TM) system (copyright 1988, Gaussian, Inc.),
 the Gaussian 86(TM) system (copyright 1986, Carnegie Mellon
 University), and the Gaussian 82(TM) system (copyright 1983,
 Carnegie Mellon University). Gaussian is a federally registered
 trademark of Gaussian, Inc.
  
 This software contains proprietary and confidential information,
 including trade secrets, belonging to Gaussian, Inc.
  
 This software is provided under written license and may be
 used, copied, transmitted, or stored only in accord with that
 written license.
  
 The following legend is applicable only to US Government
 contracts under FAR:
  
                    RESTRICTED RIGHTS LEGEND
  
 Use, reproduction and disclosure by the US Government is
 subject to restrictions as set forth in subparagraphs (a)
 and (c) of the Commercial Computer Software - Restricted
 Rights clause in FAR 52.227-19.
  
 Gaussian, Inc.
 340 Quinnipiac St., Bldg. 40, Wallingford CT 06492
  
  
 ---------------------------------------------------------------
 Warning -- This program may not be used in any manner that
 competes with the business of Gaussian, Inc. or will provide
 assistance to any competitor of Gaussian, Inc.  The licensee
 of this program is prohibited from giving any competitor of
 Gaussian, Inc. access to this program.  By using this program,
 the user acknowledges that Gaussian, Inc. is engaged in the
 business of creating and licensing software in the field of
 computational chemistry and represents and warrants to the
 licensee that it is not a competitor of Gaussian, Inc. and that
 it will not use this program in any manner prohibited above.
 ---------------------------------------------------------------
  

 Cite this work as:
 Gaussian 03, Revision E.01,
 M. J. Frisch, G. W. Trucks, H. B. Schlegel, G. E. Scuseria, 
 M. A. Robb, J. R. Cheeseman, J. A. Montgomery, Jr., T. Vreven, 
 K. N. Kudin, J. C. Burant, J. M. Millam, S. S. Iyengar, J. Tomasi, 
 V. Barone, B. Mennucci, M. Cossi, G. Scalmani, N. Rega, 
 G. A. Petersson, H. Nakatsuji, M. Hada, M. Ehara, K. Toyota, 
 R. Fukuda, J. Hasegawa, M. Ishida, T. Nakajima, Y. Honda, O. Kitao, 
 H. Nakai, M. Klene, X. Li, J. E. Knox, H. P. Hratchian, J. B. Cross, 
 V. Bakken, C. Adamo, J. Jaramillo, R. Gomperts, R. E. Stratmann, 
 O. Yazyev, A. J. Austin, R. Cammi, C. Pomelli, J. W. Ochterski, 
 P. Y. Ayala, K. Morokuma, G. A. Voth, P. Salvador, J. J. Dannenberg, 
 V. G. Zakrzewski, S. Dapprich, A. D. Daniels, M. C. Strain, 
 O. Farkas, D. K. Malick, A. D. Rabuck, K. Raghavachari, 
 J. B. Foresman, J. V. Ortiz, Q. Cui, A. G. Baboul, S. Clifford, 
 J. Cioslowski, B. B. Stefanov, G. Liu, A. Liashenko, P. Piskorz, 
 I. Komaromi, R. L. Martin, D. J. Fox, T. Keith, M. A. Al-Laham, 
 C. Y. Peng, A. Nanayakkara, M. Challacombe, P. M. W. Gill, 
 B. Johnson, W. Chen, M. W. Wong, C. Gonzalez, and J. A. Pople, 
 Gaussian, Inc., Wallingford CT, 2004.
 
 ******************************************
 Gaussian 03:  EM64T-G03RevE.01 11-Sep-2007
                12-Jun-2015 
 ******************************************
 %nproc=2
 Will use up to    2 processors via shared memory.
 Default route:  MP2=Direct MaxDisk=2000MB
 ----------------------------------------------------
 # b3lyp/6-31+G(d,p) int=ultrafine pop=(ReadRadii,MK)
 ----------------------------------------------------

 Warning!  SCF SP cutoffs with diffuse functions may be unreliable.
 Consider SCF=Tight

 1/38=1/1;
 2/17=6,18=5,40=1/2;
 3/5=1,6=6,7=111,11=2,16=1,25=1,30=1,74=-5,75=5/1,2,3;
 4//1;
 5/5=2,32=1,38=5/2;
 6/7=2,8=2,9=2,10=2,15=8,20=101,28=1/1,2;
 99/5=1,9=1/99;
 ---------------------------------------
 Ca2PO3_28.mol2_plusQ.out.z51548.zip.xyz
 ---------------------------------------
 Symbolic Z-matrix:
 Charge =  1 Multiplicity = 1
 O                     0.2596    0.0141   -1.20637 
 O                     0.26011   0.01541   1.2065 
 O                    -1.68132   1.20682   0.00004 
 P                    -0.11844   1.18234  -0.00045 
 Ca                    2.14554  -0.34394   0.00004 
 Ca                   -1.59207  -1.03735   0.00023 
 
                          Input orientation:                          
 ---------------------------------------------------------------------
 Center     Atomic     Atomic              Coordinates (Angstroms)
 Number     Number      Type              X           Y           Z
 ---------------------------------------------------------------------
    1          8             0        0.259600    0.014100   -1.206370
    2          8             0        0.260110    0.015410    1.206500
    3          8             0       -1.681320    1.206820    0.000040
    4         15             0       -0.118440    1.182340   -0.000450
    5         20             0        2.145540   -0.343940    0.000040
    6         20             0       -1.592070   -1.037350    0.000230
 ---------------------------------------------------------------------
                    Distance matrix (angstroms):
                    1          2          3          4          5
     1  O    0.000000
     2  O    2.412870   0.000000
     3  O    2.577824   2.577626   0.000000
     4  P    1.721029   1.720975   1.563072   0.000000
     5  Ca   2.267242   2.267052   4.129130   2.730410   0.000000
     6  Ca   2.447471   2.448257   2.245944   2.664322   3.801387
                    6
     6  Ca   0.000000
 Stoichiometry    Ca2O3P(1+)
 Framework group  C1[X(Ca2O3P)]
 Deg. of freedom    12
 Full point group                 C1
 Largest Abelian subgroup         C1      NOp   1
 Largest concise Abelian subgroup C1      NOp   1
                         Standard orientation:                         
 ---------------------------------------------------------------------
 Center     Atomic     Atomic              Coordinates (Angstroms)
 Number     Number      Type              X           Y           Z
 ---------------------------------------------------------------------
    1          8             0        0.259601    0.014100   -1.206370
    2          8             0        0.260111    0.015410    1.206500
    3          8             0       -1.681315    1.206826    0.000040
    4         15             0       -0.118435    1.182341   -0.000450
    5         20             0        2.145540   -0.343946    0.000040
    6         20             0       -1.592072   -1.037344    0.000230
 ---------------------------------------------------------------------
 Rotational constants (GHZ):      3.1412670      1.3312603      1.1296243
 Standard basis: 6-31+G(d,p) (6D, 7F)
 There are   134 symmetry adapted basis functions of A   symmetry.
 Integral buffers will be    131072 words long.
 Raffenetti 2 integral format.
 Two-electron integral symmetry is turned on.
   134 basis functions,   312 primitive gaussians,   134 cartesian basis functions
    39 alpha electrons       39 beta electrons
       nuclear repulsion energy       530.2170176562 Hartrees.
 NAtoms=    6 NActive=    6 NUniq=    6 SFac= 7.50D-01 NAtFMM=   80 NAOKFM=F Big=F
 One-electron integrals computed using PRISM.
 NBasis=   134 RedAO= T  NBF=   134
 NBsUse=   134 1.00D-06 NBFU=   134
 Harris functional with IExCor=  402 diagonalized for initial guess.
 ExpMin= 7.10D-03 ExpMax= 3.53D+04 ExpMxC= 5.30D+03 IAcc=3 IRadAn=         5 AccDes= 0.00D+00
 HarFok:  IExCor= 402 AccDes= 0.00D+00 IRadAn=         5 IDoV=1
 ScaDFX=  1.000000  1.000000  1.000000  1.000000
 Initial guess orbital symmetries:
       Occupied  (A) (A) (A) (A) (A) (A) (A) (A) (A) (A) (A) (A)
                 (A) (A) (A) (A) (A) (A) (A) (A) (A) (A) (A) (A)
                 (A) (A) (A) (A) (A) (A) (A) (A) (A) (A) (A) (A)
                 (A) (A) (A)
       Virtual   (A) (A) (A) (A) (A) (A) (A) (A) (A) (A) (A) (A)
                 (A) (A) (A) (A) (A) (A) (A) (A) (A) (A) (A) (A)
                 (A) (A) (A) (A) (A) (A) (A) (A) (A) (A) (A) (A)
                 (A) (A) (A) (A) (A) (A) (A) (A) (A) (A) (A) (A)
                 (A) (A) (A) (A) (A) (A) (A) (A) (A) (A) (A) (A)
                 (A) (A) (A) (A) (A) (A) (A) (A) (A) (A) (A) (A)
                 (A) (A) (A) (A) (A) (A) (A) (A) (A) (A) (A) (A)
                 (A) (A) (A) (A) (A) (A) (A) (A) (A) (A) (A)
 The electronic state of the initial guess is 1-A.
 Requested convergence on RMS density matrix=1.00D-04 within 128 cycles.
 Requested convergence on MAX density matrix=1.00D-02.
 Requested convergence on             energy=1.00D-02.
 No special actions if energy rises.
 Keep R1 integrals in memory in canonical form, NReq=    43203127.
 SCF Done:  E(RB+HF-LYP) =  -1922.10492105     A.U. after    9 cycles
             Convg  =    0.4476D-04             -V/T =  2.0029
             S**2   =   0.0000

 **********************************************************************

            Population analysis using the SCF density.

 **********************************************************************

 Orbital symmetries:
       Occupied  (A) (A) (A) (A) (A) (A) (A) (A) (A) (A) (A) (A)
                 (A) (A) (A) (A) (A) (A) (A) (A) (A) (A) (A) (A)
                 (A) (A) (A) (A) (A) (A) (A) (A) (A) (A) (A) (A)
                 (A) (A) (A)
       Virtual   (A) (A) (A) (A) (A) (A) (A) (A) (A) (A) (A) (A)
                 (A) (A) (A) (A) (A) (A) (A) (A) (A) (A) (A) (A)
                 (A) (A) (A) (A) (A) (A) (A) (A) (A) (A) (A) (A)
                 (A) (A) (A) (A) (A) (A) (A) (A) (A) (A) (A) (A)
                 (A) (A) (A) (A) (A) (A) (A) (A) (A) (A) (A) (A)
                 (A) (A) (A) (A) (A) (A) (A) (A) (A) (A) (A) (A)
                 (A) (A) (A) (A) (A) (A) (A) (A) (A) (A) (A) (A)
                 (A) (A) (A) (A) (A) (A) (A) (A) (A) (A) (A)
 The electronic state is 1-A.
 Alpha  occ. eigenvalues -- -145.57785-145.54915 -77.26374 -19.22837 -19.22679
 Alpha  occ. eigenvalues --  -19.21900 -15.64611 -15.61723 -12.77852 -12.77757
 Alpha  occ. eigenvalues --  -12.77742 -12.74909 -12.74900 -12.74886  -6.71744
 Alpha  occ. eigenvalues --   -4.88092  -4.88056  -4.87629  -2.01599  -1.98718
 Alpha  occ. eigenvalues --   -1.29331  -1.28954  -1.28659  -1.26552  -1.25961
 Alpha  occ. eigenvalues --   -1.25958  -1.08759  -1.02547  -1.00459  -0.63379
 Alpha  occ. eigenvalues --   -0.50798  -0.50430  -0.50236  -0.44699  -0.43307
 Alpha  occ. eigenvalues --   -0.40134  -0.38525  -0.36492  -0.33934
 Alpha virt. eigenvalues --   -0.24118  -0.21788  -0.16319  -0.14447  -0.13109
 Alpha virt. eigenvalues --   -0.12342  -0.10462  -0.08315  -0.08102  -0.07103
 Alpha virt. eigenvalues --   -0.06620  -0.06407  -0.05489  -0.05413  -0.04909
 Alpha virt. eigenvalues --   -0.04526  -0.04349  -0.03611  -0.02552  -0.01883
 Alpha virt. eigenvalues --   -0.01266   0.00047   0.00727   0.02048   0.02108
 Alpha virt. eigenvalues --    0.02191   0.02743   0.03644   0.04201   0.04323
 Alpha virt. eigenvalues --    0.04851   0.05775   0.06502   0.07145   0.07711
 Alpha virt. eigenvalues --    0.08589   0.11462   0.12583   0.15238   0.16893
 Alpha virt. eigenvalues --    0.18375   0.18447   0.19254   0.20489   0.22366
 Alpha virt. eigenvalues --    0.23328   0.25924   0.28523   0.30769   0.31385
 Alpha virt. eigenvalues --    0.32024   0.36857   0.37578   0.41981   0.42184
 Alpha virt. eigenvalues --    0.45094   0.52822   0.57663   0.58711   0.74127
 Alpha virt. eigenvalues --    0.80854   0.85759   0.86226   0.94671   1.10389
 Alpha virt. eigenvalues --    1.10874   1.14861   1.17759   1.18941   1.20452
 Alpha virt. eigenvalues --    1.23325   1.25800   1.26325   1.46877   1.48382
 Alpha virt. eigenvalues --    1.68451   1.69308   1.74577   1.75803   1.77088
 Alpha virt. eigenvalues --    1.77955   1.81709   1.81737   1.83673   1.90117
 Alpha virt. eigenvalues --    1.91959   1.98909   2.08760   2.34736   2.45024
 Alpha virt. eigenvalues --    2.69320   3.49079   3.99271   4.01137   4.15352
          Condensed to atoms (all electrons):
              1          2          3          4          5          6
     1  O    8.921046   0.063204   0.000499  -0.286391   0.153394   0.047466
     2  O    0.063204   8.924185   0.000660  -0.286627   0.153049   0.047151
     3  O    0.000499   0.000660   8.623243   0.129758   0.025476   0.075515
     4  P   -0.286391  -0.286627   0.129758  14.503907  -0.036271   0.158444
     5  Ca   0.153394   0.153049   0.025476  -0.036271  18.265032  -0.019204
     6  Ca   0.047466   0.047151   0.075515   0.158444  -0.019204  18.310344
 Mulliken atomic charges:
              1
     1  O   -0.899217
     2  O   -0.901621
     3  O   -0.855151
     4  P    0.817180
     5  Ca   1.458524
     6  Ca   1.380284
 Sum of Mulliken charges=   1.00000
 Atomic charges with hydrogens summed into heavy atoms:
              1
     1  O   -0.899217
     2  O   -0.901621
     3  O   -0.855151
     4  P    0.817180
     5  Ca   1.458524
     6  Ca   1.380284
 Sum of Mulliken charges=   1.00000
 Electronic spatial extent (au):  <R**2>=   965.9828
 Charge=     1.0000 electrons
 Dipole moment (field-independent basis, Debye):
    X=     6.1708    Y=   -11.1259    Z=    -0.0116  Tot=    12.7226
 Quadrupole moment (field-independent basis, Debye-Ang):
   XX=    -5.4206   YY=   -45.8923   ZZ=   -64.1434
   XY=    11.4097   XZ=    -0.0058   YZ=    -0.0119
 Traceless Quadrupole moment (field-independent basis, Debye-Ang):
   XX=    33.0648   YY=    -7.4069   ZZ=   -25.6580
   XY=    11.4097   XZ=    -0.0058   YZ=    -0.0119
 Octapole moment (field-independent basis, Debye-Ang**2):
  XXX=    75.6668  YYY=   -39.3283  ZZZ=     0.0015  XYY=    -5.5189
  XXY=   -56.0767  XXZ=     0.0099  XZZ=    -0.9321  YZZ=    -6.9634
  YYZ=     0.0097  XYZ=     0.0033
 Hexadecapole moment (field-independent basis, Debye-Ang**3):
 XXXX=  -350.7864 YYYY=  -293.4603 ZZZZ=  -208.0500 XXXY=    44.2034
 XXXZ=    -0.0030 YYYX=    29.1147 YYYZ=    -0.0147 ZZZX=    -0.0081
 ZZZY=    -0.0243 XXYY=  -128.7214 XXZZ=  -124.8756 YYZZ=   -77.9057
 XXYZ=    -0.0096 YYXZ=     0.0025 ZZXY=     5.0530
 N-N= 5.302170176562D+02 E-N=-5.602626921798D+03  KE= 1.916605297638D+03
 Merz-Kollman atomic radii used.
 Read replacement radii for each type of atom:
 Rad(20) =   1.188000000000D+00
 Atom Element Radius
    1     8    1.40
    2     8    1.40
    3     8    1.40
    4    15    1.80
    5    20    1.19
    6    20    1.19

 **********************************************************************

            Electrostatic Properties Using The SCF Density

 **********************************************************************

       Atomic Center    1 is at   0.259601  0.014100 -1.206370
       Atomic Center    2 is at   0.260111  0.015410  1.206500
       Atomic Center    3 is at  -1.681315  1.206826  0.000040
       Atomic Center    4 is at  -0.118435  1.182341 -0.000450
       Atomic Center    5 is at   2.145540 -0.343946  0.000040
       Atomic Center    6 is at  -1.592072 -1.037344  0.000230
     583 points will be used for fitting atomic charges
 Fitting point charges to eletrostatic potential
 Charges from ESP fit, RMS=   0.00826 RRMS=   0.04749:
 Charge=   1.00000 Dipole=     6.1980   -11.4165    -0.0054 Tot=    12.9905
              1
     1  O   -1.020017
     2  O   -1.021024
     3  O   -0.546426
     4  P    0.414735
     5  Ca   1.605944
     6  Ca   1.566788
 -----------------------------------------------------------------

              Electrostatic Properties (Atomic Units)

 -----------------------------------------------------------------
    Center     Electric         -------- Electric Field --------
               Potential          X             Y             Z
 -----------------------------------------------------------------
    1 Atom    -22.236451
    2 Atom    -22.240828
    3 Atom    -22.248390
    4 Atom    -53.950967
    5 Atom    -79.963568
    6 Atom    -79.992583
 -----------------------------------------------------------------
 1\1\GINC-N032\SP\RB3LYP\6-31+G(d,p)\Ca2O3P1(1+)\TIMN\12-Jun-2015\0\\# 
 b3lyp/6-31+G(d,p) int=ultrafine pop=(ReadRadii,MK)\\Ca2PO3_28.mol2_plu
 sQ.out.z51548.zip.xyz\\1,1\O,0,0.2596,0.0141,-1.20637\O,0,0.26011,0.01
 541,1.2065\O,0,-1.68132,1.20682,0.00004\P,0,-0.11844,1.18234,-0.00045\
 Ca,0,2.14554,-0.34394,0.00004\Ca,0,-1.59207,-1.03735,0.00023\\Version=
 EM64T-G03RevE.01\State=1-A\HF=-1922.1049211\RMSD=4.476e-05\Thermal=0.\
 Dipole=2.4277868,-4.377263,-0.004573\PG=C01 [X(Ca2O3P1)]\\@


 MANHOOD BEGINS BY TRYING TO SHAVE FACE,
 AND ENDS BY TRYING TO SAVE FACE.
 Job cpu time:  0 days  0 hours  0 minutes 36.6 seconds.
 File lengths (MBytes):  RWF=     22 Int=      0 D2E=      0 Chk=     10 Scr=      1
 Normal termination of Gaussian 03 at Fri Jun 12 17:34:40 2015.
