 Entering Gaussian System, Link 0=/home/timn/tmp/g03.e01/g03
 Input=Ca2PO3_18.mol2c_plusQ.out.z51537.zip.xyz.gjf
 Output=Ca2PO3_18.mol2c_plusQ.out.z51537.zip.xyz.out
 Initial command:
 /home/timn/tmp/g03.e01/l1.exe /home/timn/tmp/g03.e01/Gau-17702.inp -scrdir=/home/timn/tmp/g03.e01/
 Default is to use a total of   2 processors:
                                2 via shared-memory
                                1 via Linda
 Entering Link 1 = /home/timn/tmp/g03.e01/l1.exe PID=     17704.
  
 Copyright (c) 1988,1990,1992,1993,1995,1998,2003,2004,2007, Gaussian, Inc.
                  All Rights Reserved.
  
 This is the Gaussian(R) 03 program.  It is based on the
 the Gaussian(R) 98 system (copyright 1998, Gaussian, Inc.),
 the Gaussian(R) 94 system (copyright 1995, Gaussian, Inc.),
 the Gaussian 92(TM) system (copyright 1992, Gaussian, Inc.),
 the Gaussian 90(TM) system (copyright 1990, Gaussian, Inc.),
 the Gaussian 88(TM) system (copyright 1988, Gaussian, Inc.),
 the Gaussian 86(TM) system (copyright 1986, Carnegie Mellon
 University), and the Gaussian 82(TM) system (copyright 1983,
 Carnegie Mellon University). Gaussian is a federally registered
 trademark of Gaussian, Inc.
  
 This software contains proprietary and confidential information,
 including trade secrets, belonging to Gaussian, Inc.
  
 This software is provided under written license and may be
 used, copied, transmitted, or stored only in accord with that
 written license.
  
 The following legend is applicable only to US Government
 contracts under FAR:
  
                    RESTRICTED RIGHTS LEGEND
  
 Use, reproduction and disclosure by the US Government is
 subject to restrictions as set forth in subparagraphs (a)
 and (c) of the Commercial Computer Software - Restricted
 Rights clause in FAR 52.227-19.
  
 Gaussian, Inc.
 340 Quinnipiac St., Bldg. 40, Wallingford CT 06492
  
  
 ---------------------------------------------------------------
 Warning -- This program may not be used in any manner that
 competes with the business of Gaussian, Inc. or will provide
 assistance to any competitor of Gaussian, Inc.  The licensee
 of this program is prohibited from giving any competitor of
 Gaussian, Inc. access to this program.  By using this program,
 the user acknowledges that Gaussian, Inc. is engaged in the
 business of creating and licensing software in the field of
 computational chemistry and represents and warrants to the
 licensee that it is not a competitor of Gaussian, Inc. and that
 it will not use this program in any manner prohibited above.
 ---------------------------------------------------------------
  

 Cite this work as:
 Gaussian 03, Revision E.01,
 M. J. Frisch, G. W. Trucks, H. B. Schlegel, G. E. Scuseria, 
 M. A. Robb, J. R. Cheeseman, J. A. Montgomery, Jr., T. Vreven, 
 K. N. Kudin, J. C. Burant, J. M. Millam, S. S. Iyengar, J. Tomasi, 
 V. Barone, B. Mennucci, M. Cossi, G. Scalmani, N. Rega, 
 G. A. Petersson, H. Nakatsuji, M. Hada, M. Ehara, K. Toyota, 
 R. Fukuda, J. Hasegawa, M. Ishida, T. Nakajima, Y. Honda, O. Kitao, 
 H. Nakai, M. Klene, X. Li, J. E. Knox, H. P. Hratchian, J. B. Cross, 
 V. Bakken, C. Adamo, J. Jaramillo, R. Gomperts, R. E. Stratmann, 
 O. Yazyev, A. J. Austin, R. Cammi, C. Pomelli, J. W. Ochterski, 
 P. Y. Ayala, K. Morokuma, G. A. Voth, P. Salvador, J. J. Dannenberg, 
 V. G. Zakrzewski, S. Dapprich, A. D. Daniels, M. C. Strain, 
 O. Farkas, D. K. Malick, A. D. Rabuck, K. Raghavachari, 
 J. B. Foresman, J. V. Ortiz, Q. Cui, A. G. Baboul, S. Clifford, 
 J. Cioslowski, B. B. Stefanov, G. Liu, A. Liashenko, P. Piskorz, 
 I. Komaromi, R. L. Martin, D. J. Fox, T. Keith, M. A. Al-Laham, 
 C. Y. Peng, A. Nanayakkara, M. Challacombe, P. M. W. Gill, 
 B. Johnson, W. Chen, M. W. Wong, C. Gonzalez, and J. A. Pople, 
 Gaussian, Inc., Wallingford CT, 2004.
 
 ******************************************
 Gaussian 03:  EM64T-G03RevE.01 11-Sep-2007
                12-Jun-2015 
 ******************************************
 %nproc=2
 Will use up to    2 processors via shared memory.
 Default route:  MP2=Direct MaxDisk=2000MB
 ----------------------------------------------------
 # b3lyp/6-31+G(d,p) int=ultrafine pop=(ReadRadii,MK)
 ----------------------------------------------------

 Warning!  SCF SP cutoffs with diffuse functions may be unreliable.
 Consider SCF=Tight

 1/38=1/1;
 2/17=6,18=5,40=1/2;
 3/5=1,6=6,7=111,11=2,16=1,25=1,30=1,74=-5,75=5/1,2,3;
 4//1;
 5/5=2,32=1,38=5/2;
 6/7=2,8=2,9=2,10=2,15=8,20=101,28=1/1,2;
 99/5=1,9=1/99;
 ----------------------------------------
 Ca2PO3_18.mol2c_plusQ.out.z51537.zip.xyz
 ----------------------------------------
 Symbolic Z-matrix:
 Charge =  1 Multiplicity = 1
 O                     1.95354  -0.09564  -0.76557 
 O                     1.95282  -0.09492   0.76588 
 O                    -0.37807  -0.84921  -0.00055 
 P                     1.08416  -1.40829   0.00018 
 Ca                    0.39184   1.66784  -0.00011 
 Ca                   -2.61628  -0.19571   0.00008 
 
                          Input orientation:                          
 ---------------------------------------------------------------------
 Center     Atomic     Atomic              Coordinates (Angstroms)
 Number     Number      Type              X           Y           Z
 ---------------------------------------------------------------------
    1          8             0        1.953540   -0.095640   -0.765570
    2          8             0        1.952820   -0.094920    0.765880
    3          8             0       -0.378070   -0.849210   -0.000550
    4         15             0        1.084160   -1.408290    0.000180
    5         20             0        0.391840    1.667840   -0.000110
    6         20             0       -2.616280   -0.195710    0.000080
 ---------------------------------------------------------------------
                    Distance matrix (angstroms):
                    1          2          3          4          5
     1  O    0.000000
     2  O    1.531450   0.000000
     3  O    2.567008   2.566986   0.000000
     4  P    1.750784   1.750945   1.565467   0.000000
     5  Ca   2.476832   2.476029   2.632167   3.153075   0.000000
     6  Ca   4.634597   4.633927   2.331662   3.894048   3.538588
                    6
     6  Ca   0.000000
 Stoichiometry    Ca2O3P(1+)
 Framework group  C1[X(Ca2O3P)]
 Deg. of freedom    12
 Full point group                 C1
 Largest Abelian subgroup         C1      NOp   1
 Largest concise Abelian subgroup C1      NOp   1
                         Standard orientation:                         
 ---------------------------------------------------------------------
 Center     Atomic     Atomic              Coordinates (Angstroms)
 Number     Number      Type              X           Y           Z
 ---------------------------------------------------------------------
    1          8             0        1.953541   -0.095640   -0.765572
    2          8             0        1.952821   -0.094920    0.765878
    3          8             0       -0.378068   -0.849211   -0.000552
    4         15             0        1.084162   -1.408290    0.000178
    5         20             0        0.391840    1.667839   -0.000112
    6         20             0       -2.616279   -0.195713    0.000078
 ---------------------------------------------------------------------
 Rotational constants (GHZ):      2.4690680      1.1006460      0.8068811
 Standard basis: 6-31+G(d,p) (6D, 7F)
 There are   134 symmetry adapted basis functions of A   symmetry.
 Integral buffers will be    131072 words long.
 Raffenetti 2 integral format.
 Two-electron integral symmetry is turned on.
   134 basis functions,   312 primitive gaussians,   134 cartesian basis functions
    39 alpha electrons       39 beta electrons
       nuclear repulsion energy       485.9356028686 Hartrees.
 NAtoms=    6 NActive=    6 NUniq=    6 SFac= 7.50D-01 NAtFMM=   80 NAOKFM=F Big=F
 One-electron integrals computed using PRISM.
 NBasis=   134 RedAO= T  NBF=   134
 NBsUse=   134 1.00D-06 NBFU=   134
 Harris functional with IExCor=  402 diagonalized for initial guess.
 ExpMin= 7.10D-03 ExpMax= 3.53D+04 ExpMxC= 5.30D+03 IAcc=3 IRadAn=         5 AccDes= 0.00D+00
 HarFok:  IExCor= 402 AccDes= 0.00D+00 IRadAn=         5 IDoV=1
 ScaDFX=  1.000000  1.000000  1.000000  1.000000
 Initial guess orbital symmetries:
       Occupied  (A) (A) (A) (A) (A) (A) (A) (A) (A) (A) (A) (A)
                 (A) (A) (A) (A) (A) (A) (A) (A) (A) (A) (A) (A)
                 (A) (A) (A) (A) (A) (A) (A) (A) (A) (A) (A) (A)
                 (A) (A) (A)
       Virtual   (A) (A) (A) (A) (A) (A) (A) (A) (A) (A) (A) (A)
                 (A) (A) (A) (A) (A) (A) (A) (A) (A) (A) (A) (A)
                 (A) (A) (A) (A) (A) (A) (A) (A) (A) (A) (A) (A)
                 (A) (A) (A) (A) (A) (A) (A) (A) (A) (A) (A) (A)
                 (A) (A) (A) (A) (A) (A) (A) (A) (A) (A) (A) (A)
                 (A) (A) (A) (A) (A) (A) (A) (A) (A) (A) (A) (A)
                 (A) (A) (A) (A) (A) (A) (A) (A) (A) (A) (A) (A)
                 (A) (A) (A) (A) (A) (A) (A) (A) (A) (A) (A)
 The electronic state of the initial guess is 1-A.
 Requested convergence on RMS density matrix=1.00D-04 within 128 cycles.
 Requested convergence on MAX density matrix=1.00D-02.
 Requested convergence on             energy=1.00D-02.
 No special actions if energy rises.
 Keep R1 integrals in memory in canonical form, NReq=    43203134.
 EnCoef did     7 forward-backward iterations
 EnCoef did     9 forward-backward iterations
 EnCoef did     9 forward-backward iterations
 SCF Done:  E(RB+HF-LYP) =  -1921.95709998     A.U. after   10 cycles
             Convg  =    0.3322D-04             -V/T =  2.0028
             S**2   =   0.0000

 **********************************************************************

            Population analysis using the SCF density.

 **********************************************************************

 Orbital symmetries:
       Occupied  (A) (A) (A) (A) (A) (A) (A) (A) (A) (A) (A) (A)
                 (A) (A) (A) (A) (A) (A) (A) (A) (A) (A) (A) (A)
                 (A) (A) (A) (A) (A) (A) (A) (A) (A) (A) (A) (A)
                 (A) (A) (A)
       Virtual   (A) (A) (A) (A) (A) (A) (A) (A) (A) (A) (A) (A)
                 (A) (A) (A) (A) (A) (A) (A) (A) (A) (A) (A) (A)
                 (A) (A) (A) (A) (A) (A) (A) (A) (A) (A) (A) (A)
                 (A) (A) (A) (A) (A) (A) (A) (A) (A) (A) (A) (A)
                 (A) (A) (A) (A) (A) (A) (A) (A) (A) (A) (A) (A)
                 (A) (A) (A) (A) (A) (A) (A) (A) (A) (A) (A) (A)
                 (A) (A) (A) (A) (A) (A) (A) (A) (A) (A) (A) (A)
                 (A) (A) (A) (A) (A) (A) (A) (A) (A) (A) (A)
 The electronic state is 1-A.
 Alpha  occ. eigenvalues -- -145.56728-145.55575 -77.35270 -19.38085 -19.37918
 Alpha  occ. eigenvalues --  -19.30936 -15.63629 -15.62508 -12.76827 -12.76820
 Alpha  occ. eigenvalues --  -12.76737 -12.75693 -12.75677 -12.75616  -6.80526
 Alpha  occ. eigenvalues --   -4.96889  -4.96801  -4.96289  -2.00585  -1.99498
 Alpha  occ. eigenvalues --   -1.30278  -1.27992  -1.27973  -1.26879  -1.26861
 Alpha  occ. eigenvalues --   -1.26675  -1.26272  -1.14272  -1.02072  -0.75115
 Alpha  occ. eigenvalues --   -0.63129  -0.61333  -0.60053  -0.55800  -0.51003
 Alpha  occ. eigenvalues --   -0.48812  -0.45378  -0.44300  -0.29679
 Alpha virt. eigenvalues --   -0.22690  -0.21257  -0.18584  -0.16725  -0.16630
 Alpha virt. eigenvalues --   -0.14556  -0.13154  -0.12039  -0.10609  -0.09490
 Alpha virt. eigenvalues --   -0.09128  -0.07387  -0.06348  -0.06217  -0.06026
 Alpha virt. eigenvalues --   -0.05067  -0.04903  -0.04639  -0.04599  -0.03763
 Alpha virt. eigenvalues --   -0.03481  -0.03071  -0.01244  -0.01020  -0.00235
 Alpha virt. eigenvalues --    0.01452   0.01579   0.02183   0.02790   0.03041
 Alpha virt. eigenvalues --    0.03347   0.03617   0.03809   0.04529   0.04962
 Alpha virt. eigenvalues --    0.05452   0.07025   0.07112   0.08996   0.09461
 Alpha virt. eigenvalues --    0.12478   0.14213   0.14876   0.15136   0.16052
 Alpha virt. eigenvalues --    0.18464   0.20891   0.21493   0.25170   0.26418
 Alpha virt. eigenvalues --    0.26833   0.28056   0.33545   0.36081   0.37642
 Alpha virt. eigenvalues --    0.38305   0.43910   0.53070   0.53108   0.55355
 Alpha virt. eigenvalues --    0.69194   0.69527   0.82079   0.91881   1.00766
 Alpha virt. eigenvalues --    1.05135   1.05333   1.07535   1.09115   1.09167
 Alpha virt. eigenvalues --    1.13073   1.20904   1.22323   1.38670   1.41132
 Alpha virt. eigenvalues --    1.49389   1.49791   1.57025   1.62997   1.65230
 Alpha virt. eigenvalues --    1.65429   1.67195   1.72878   1.81998   1.90211
 Alpha virt. eigenvalues --    1.91555   2.11228   2.23159   2.30118   2.58050
 Alpha virt. eigenvalues --    2.97863   3.42307   3.85685   4.01242   4.05839
          Condensed to atoms (all electrons):
              1          2          3          4          5          6
     1  O    8.217543   0.050287   0.012597   0.085203   0.007391  -0.011813
     2  O    0.050287   8.213132   0.012308   0.085980   0.007441  -0.011877
     3  O    0.012597   0.012308   9.058716  -0.088601  -0.158835  -0.153652
     4  P    0.085203   0.085980  -0.088601  14.123138  -0.062073  -0.040374
     5  Ca   0.007391   0.007441  -0.158835  -0.062073  18.944903   0.424930
     6  Ca  -0.011813  -0.011877  -0.153652  -0.040374   0.424930  19.124745
 Mulliken atomic charges:
              1
     1  O   -0.361207
     2  O   -0.357271
     3  O   -0.682532
     4  P    0.896728
     5  Ca   0.836242
     6  Ca   0.668041
 Sum of Mulliken charges=   1.00000
 Atomic charges with hydrogens summed into heavy atoms:
              1
     1  O   -0.361207
     2  O   -0.357271
     3  O   -0.682532
     4  P    0.896728
     5  Ca   0.836242
     6  Ca   0.668041
 Sum of Mulliken charges=   1.00000
 Electronic spatial extent (au):  <R**2>=  1255.4526
 Charge=     1.0000 electrons
 Dipole moment (field-independent basis, Debye):
    X=    -5.2118    Y=     2.3491    Z=     0.0209  Tot=     5.7168
 Quadrupole moment (field-independent basis, Debye-Ang):
   XX=   -39.8322   YY=   -45.8818   ZZ=   -59.9925
   XY=    12.0159   XZ=     0.0271   YZ=    -0.0062
 Traceless Quadrupole moment (field-independent basis, Debye-Ang):
   XX=     8.7367   YY=     2.6870   ZZ=   -11.4236
   XY=    12.0159   XZ=     0.0271   YZ=    -0.0062
 Octapole moment (field-independent basis, Debye-Ang**2):
  XXX=   -66.0509  YYY=    10.9060  ZZZ=     0.0271  XYY=    29.4450
  XXY=   -23.0462  XXZ=     0.0680  XZZ=     8.3410  YZZ=    -5.2308
  YYZ=     0.0122  XYZ=    -0.0072
 Hexadecapole moment (field-independent basis, Debye-Ang**3):
 XXXX=  -920.6914 YYYY=  -489.8575 ZZZZ=  -147.3912 XXXY=    84.8770
 XXXZ=     0.0828 YYYX=    72.5473 YYYZ=    -0.0001 ZZZX=     0.0190
 ZZZY=     0.0030 XXYY=  -269.1705 XXZZ=  -215.5075 YYZZ=  -110.2192
 XXYZ=    -0.0110 YYXZ=    -0.0015 ZZXY=    14.7680
 N-N= 4.859356028686D+02 E-N=-5.509898271548D+03  KE= 1.916520336896D+03
 Merz-Kollman atomic radii used.
 Read replacement radii for each type of atom:
 Rad(20) =   1.188000000000D+00
 Atom Element Radius
    1     8    1.40
    2     8    1.40
    3     8    1.40
    4    15    1.80
    5    20    1.19
    6    20    1.19

 **********************************************************************

            Electrostatic Properties Using The SCF Density

 **********************************************************************

       Atomic Center    1 is at   1.953541 -0.095640 -0.765572
       Atomic Center    2 is at   1.952821 -0.094920  0.765878
       Atomic Center    3 is at  -0.378068 -0.849211 -0.000552
       Atomic Center    4 is at   1.084162 -1.408290  0.000178
       Atomic Center    5 is at   0.391840  1.667839 -0.000112
       Atomic Center    6 is at  -2.616279 -0.195713  0.000078
     640 points will be used for fitting atomic charges
 Fitting point charges to eletrostatic potential
 Charges from ESP fit, RMS=   0.02886 RRMS=   0.17320:
 Charge=   1.00000 Dipole=    -7.3937     5.1034     0.0194 Tot=     8.9840
              1
     1  O   -0.140029
     2  O   -0.134991
     3  O   -0.362866
     4  P    0.256817
     5  Ca   0.729851
     6  Ca   0.651218
 -----------------------------------------------------------------

              Electrostatic Properties (Atomic Units)

 -----------------------------------------------------------------
    Center     Electric         -------- Electric Field --------
               Potential          X             Y             Z
 -----------------------------------------------------------------
    1 Atom    -22.097688
    2 Atom    -22.092670
    3 Atom    -22.155030
    4 Atom    -53.865902
    5 Atom    -79.975961
    6 Atom    -79.987809
 -----------------------------------------------------------------
 1\1\GINC-N027\SP\RB3LYP\6-31+G(d,p)\Ca2O3P1(1+)\TIMN\12-Jun-2015\0\\# 
 b3lyp/6-31+G(d,p) int=ultrafine pop=(ReadRadii,MK)\\Ca2PO3_18.mol2c_pl
 usQ.out.z51537.zip.xyz\\1,1\O,0,1.95354,-0.09564,-0.76557\O,0,1.95282,
 -0.09492,0.76588\O,0,-0.37807,-0.84921,-0.00055\P,0,1.08416,-1.40829,0
 .00018\Ca,0,0.39184,1.66784,-0.00011\Ca,0,-2.61628,-0.19571,0.00008\\V
 ersion=EM64T-G03RevE.01\State=1-A\HF=-1921.9571\RMSD=3.322e-05\Thermal
 =0.\Dipole=-2.0504796,0.9242218,0.0082381\PG=C01 [X(Ca2O3P1)]\\@


 KEEP CLOSE TO NATURES HEART, YOURSELF;
 AND BREAK CLEAR AWAY, ONCE IN A WHILE, AND
 CLIMB A MOUNTAIN OR SPEND A WEEK IN THE
 WOODS.  WASH YOUR SPIRIT CLEAN...
                                         -- JOHN MUIR
 Job cpu time:  0 days  0 hours  0 minutes 38.2 seconds.
 File lengths (MBytes):  RWF=     22 Int=      0 D2E=      0 Chk=     10 Scr=      1
 Normal termination of Gaussian 03 at Fri Jun 12 17:34:42 2015.
