 Entering Gaussian System, Link 0=/home/timn/tmp/g03.e01/g03
 Input=Ca2PO3_10.mol2c_plusQ.out.z51528.zip.xyz.gjf
 Output=Ca2PO3_10.mol2c_plusQ.out.z51528.zip.xyz.out
 Initial command:
 /home/timn/tmp/g03.e01/l1.exe /home/timn/tmp/g03.e01/Gau-13023.inp -scrdir=/home/timn/tmp/g03.e01/
 Default is to use a total of   2 processors:
                                2 via shared-memory
                                1 via Linda
 Entering Link 1 = /home/timn/tmp/g03.e01/l1.exe PID=     13024.
  
 Copyright (c) 1988,1990,1992,1993,1995,1998,2003,2004,2007, Gaussian, Inc.
                  All Rights Reserved.
  
 This is the Gaussian(R) 03 program.  It is based on the
 the Gaussian(R) 98 system (copyright 1998, Gaussian, Inc.),
 the Gaussian(R) 94 system (copyright 1995, Gaussian, Inc.),
 the Gaussian 92(TM) system (copyright 1992, Gaussian, Inc.),
 the Gaussian 90(TM) system (copyright 1990, Gaussian, Inc.),
 the Gaussian 88(TM) system (copyright 1988, Gaussian, Inc.),
 the Gaussian 86(TM) system (copyright 1986, Carnegie Mellon
 University), and the Gaussian 82(TM) system (copyright 1983,
 Carnegie Mellon University). Gaussian is a federally registered
 trademark of Gaussian, Inc.
  
 This software contains proprietary and confidential information,
 including trade secrets, belonging to Gaussian, Inc.
  
 This software is provided under written license and may be
 used, copied, transmitted, or stored only in accord with that
 written license.
  
 The following legend is applicable only to US Government
 contracts under FAR:
  
                    RESTRICTED RIGHTS LEGEND
  
 Use, reproduction and disclosure by the US Government is
 subject to restrictions as set forth in subparagraphs (a)
 and (c) of the Commercial Computer Software - Restricted
 Rights clause in FAR 52.227-19.
  
 Gaussian, Inc.
 340 Quinnipiac St., Bldg. 40, Wallingford CT 06492
  
  
 ---------------------------------------------------------------
 Warning -- This program may not be used in any manner that
 competes with the business of Gaussian, Inc. or will provide
 assistance to any competitor of Gaussian, Inc.  The licensee
 of this program is prohibited from giving any competitor of
 Gaussian, Inc. access to this program.  By using this program,
 the user acknowledges that Gaussian, Inc. is engaged in the
 business of creating and licensing software in the field of
 computational chemistry and represents and warrants to the
 licensee that it is not a competitor of Gaussian, Inc. and that
 it will not use this program in any manner prohibited above.
 ---------------------------------------------------------------
  

 Cite this work as:
 Gaussian 03, Revision E.01,
 M. J. Frisch, G. W. Trucks, H. B. Schlegel, G. E. Scuseria, 
 M. A. Robb, J. R. Cheeseman, J. A. Montgomery, Jr., T. Vreven, 
 K. N. Kudin, J. C. Burant, J. M. Millam, S. S. Iyengar, J. Tomasi, 
 V. Barone, B. Mennucci, M. Cossi, G. Scalmani, N. Rega, 
 G. A. Petersson, H. Nakatsuji, M. Hada, M. Ehara, K. Toyota, 
 R. Fukuda, J. Hasegawa, M. Ishida, T. Nakajima, Y. Honda, O. Kitao, 
 H. Nakai, M. Klene, X. Li, J. E. Knox, H. P. Hratchian, J. B. Cross, 
 V. Bakken, C. Adamo, J. Jaramillo, R. Gomperts, R. E. Stratmann, 
 O. Yazyev, A. J. Austin, R. Cammi, C. Pomelli, J. W. Ochterski, 
 P. Y. Ayala, K. Morokuma, G. A. Voth, P. Salvador, J. J. Dannenberg, 
 V. G. Zakrzewski, S. Dapprich, A. D. Daniels, M. C. Strain, 
 O. Farkas, D. K. Malick, A. D. Rabuck, K. Raghavachari, 
 J. B. Foresman, J. V. Ortiz, Q. Cui, A. G. Baboul, S. Clifford, 
 J. Cioslowski, B. B. Stefanov, G. Liu, A. Liashenko, P. Piskorz, 
 I. Komaromi, R. L. Martin, D. J. Fox, T. Keith, M. A. Al-Laham, 
 C. Y. Peng, A. Nanayakkara, M. Challacombe, P. M. W. Gill, 
 B. Johnson, W. Chen, M. W. Wong, C. Gonzalez, and J. A. Pople, 
 Gaussian, Inc., Wallingford CT, 2004.
 
 ******************************************
 Gaussian 03:  EM64T-G03RevE.01 11-Sep-2007
                12-Jun-2015 
 ******************************************
 %nproc=2
 Will use up to    2 processors via shared memory.
 Default route:  MP2=Direct MaxDisk=2000MB
 ----------------------------------------------------
 # b3lyp/6-31+G(d,p) int=ultrafine pop=(ReadRadii,MK)
 ----------------------------------------------------

 Warning!  SCF SP cutoffs with diffuse functions may be unreliable.
 Consider SCF=Tight

 1/38=1/1;
 2/17=6,18=5,40=1/2;
 3/5=1,6=6,7=111,11=2,16=1,25=1,30=1,74=-5,75=5/1,2,3;
 4//1;
 5/5=2,32=1,38=5/2;
 6/7=2,8=2,9=2,10=2,15=8,20=101,28=1/1,2;
 99/5=1,9=1/99;
 ----------------------------------------
 Ca2PO3_10.mol2c_plusQ.out.z51528.zip.xyz
 ----------------------------------------
 Symbolic Z-matrix:
 Charge =  1 Multiplicity = 1
 O                     1.27608   1.27876  -0.00111 
 O                     0.00137  -1.91745   0.00094 
 O                    -1.2782    1.27718   0.00181 
 P                    -0.0015    2.15007  -0.00011 
 Ca                   -1.87097  -0.93533  -0.00069 
 Ca                    1.87239  -0.93261   0.00011 
 
                          Input orientation:                          
 ---------------------------------------------------------------------
 Center     Atomic     Atomic              Coordinates (Angstroms)
 Number     Number      Type              X           Y           Z
 ---------------------------------------------------------------------
    1          8             0        1.276080    1.278760   -0.001110
    2          8             0        0.001370   -1.917450    0.000940
    3          8             0       -1.278200    1.277180    0.001810
    4         15             0       -0.001500    2.150070   -0.000110
    5         20             0       -1.870970   -0.935330   -0.000690
    6         20             0        1.872390   -0.932610    0.000110
 ---------------------------------------------------------------------
                    Distance matrix (angstroms):
                    1          2          3          4          5
     1  O    0.000000
     2  O    3.441024   0.000000
     3  O    2.554282   3.441360   0.000000
     4  P    1.546413   4.067521   1.546578   0.000000
     5  Ca   3.847872   2.114289   2.290542   3.607577   0.000000
     6  Ca   2.290359   2.114386   3.848297   3.607545   3.743361
                    6
     6  Ca   0.000000
 Stoichiometry    Ca2O3P(1+)
 Framework group  C1[X(Ca2O3P)]
 Deg. of freedom    12
 Full point group                 C1
 Largest Abelian subgroup         C1      NOp   1
 Largest concise Abelian subgroup C1      NOp   1
                         Standard orientation:                         
 ---------------------------------------------------------------------
 Center     Atomic     Atomic              Coordinates (Angstroms)
 Number     Number      Type              X           Y           Z
 ---------------------------------------------------------------------
    1          8             0        1.276155    1.278684   -0.001108
    2          8             0        0.001261   -1.917452    0.000942
    3          8             0       -1.278125    1.277252    0.001812
    4         15             0       -0.001375    2.150068   -0.000108
    5         20             0       -1.871023   -0.935224   -0.000688
    6         20             0        1.872338   -0.932720    0.000112
 ---------------------------------------------------------------------
 Rotational constants (GHZ):      1.5601569      1.5214412      0.7702782
 Standard basis: 6-31+G(d,p) (6D, 7F)
 There are   134 symmetry adapted basis functions of A   symmetry.
 Integral buffers will be    131072 words long.
 Raffenetti 2 integral format.
 Two-electron integral symmetry is turned on.
   134 basis functions,   312 primitive gaussians,   134 cartesian basis functions
    39 alpha electrons       39 beta electrons
       nuclear repulsion energy       473.2609435409 Hartrees.
 NAtoms=    6 NActive=    6 NUniq=    6 SFac= 7.50D-01 NAtFMM=   80 NAOKFM=F Big=F
 One-electron integrals computed using PRISM.
 NBasis=   134 RedAO= T  NBF=   134
 NBsUse=   134 1.00D-06 NBFU=   134
 Harris functional with IExCor=  402 diagonalized for initial guess.
 ExpMin= 7.10D-03 ExpMax= 3.53D+04 ExpMxC= 5.30D+03 IAcc=3 IRadAn=         5 AccDes= 0.00D+00
 HarFok:  IExCor= 402 AccDes= 0.00D+00 IRadAn=         5 IDoV=1
 ScaDFX=  1.000000  1.000000  1.000000  1.000000
 Initial guess orbital symmetries:
       Occupied  (A) (A) (A) (A) (A) (A) (A) (A) (A) (A) (A) (A)
                 (A) (A) (A) (A) (A) (A) (A) (A) (A) (A) (A) (A)
                 (A) (A) (A) (A) (A) (A) (A) (A) (A) (A) (A) (A)
                 (A) (A) (A)
       Virtual   (A) (A) (A) (A) (A) (A) (A) (A) (A) (A) (A) (A)
                 (A) (A) (A) (A) (A) (A) (A) (A) (A) (A) (A) (A)
                 (A) (A) (A) (A) (A) (A) (A) (A) (A) (A) (A) (A)
                 (A) (A) (A) (A) (A) (A) (A) (A) (A) (A) (A) (A)
                 (A) (A) (A) (A) (A) (A) (A) (A) (A) (A) (A) (A)
                 (A) (A) (A) (A) (A) (A) (A) (A) (A) (A) (A) (A)
                 (A) (A) (A) (A) (A) (A) (A) (A) (A) (A) (A) (A)
                 (A) (A) (A) (A) (A) (A) (A) (A) (A) (A) (A)
 The electronic state of the initial guess is 1-A.
 Requested convergence on RMS density matrix=1.00D-04 within 128 cycles.
 Requested convergence on MAX density matrix=1.00D-02.
 Requested convergence on             energy=1.00D-02.
 No special actions if energy rises.
 Keep R1 integrals in memory in canonical form, NReq=    43203134.
 EnCoef did     4 forward-backward iterations
 SCF Done:  E(RB+HF-LYP) =  -1922.13413601     A.U. after    7 cycles
             Convg  =    0.4825D-04             -V/T =  2.0029
             S**2   =   0.0000

 **********************************************************************

            Population analysis using the SCF density.

 **********************************************************************

 Orbital symmetries:
       Occupied  (A) (A) (A) (A) (A) (A) (A) (A) (A) (A) (A) (A)
                 (A) (A) (A) (A) (A) (A) (A) (A) (A) (A) (A) (A)
                 (A) (A) (A) (A) (A) (A) (A) (A) (A) (A) (A) (A)
                 (A) (A) (A)
       Virtual   (A) (A) (A) (A) (A) (A) (A) (A) (A) (A) (A) (A)
                 (A) (A) (A) (A) (A) (A) (A) (A) (A) (A) (A) (A)
                 (A) (A) (A) (A) (A) (A) (A) (A) (A) (A) (A) (A)
                 (A) (A) (A) (A) (A) (A) (A) (A) (A) (A) (A) (A)
                 (A) (A) (A) (A) (A) (A) (A) (A) (A) (A) (A) (A)
                 (A) (A) (A) (A) (A) (A) (A) (A) (A) (A) (A) (A)
                 (A) (A) (A) (A) (A) (A) (A) (A) (A) (A) (A) (A)
                 (A) (A) (A) (A) (A) (A) (A) (A) (A) (A) (A)
 The electronic state is 1-A.
 Alpha  occ. eigenvalues -- -145.52213-145.52212 -77.29922 -19.27744 -19.27718
 Alpha  occ. eigenvalues --  -19.15033 -15.59101 -15.59100 -12.72351 -12.72351
 Alpha  occ. eigenvalues --  -12.72276 -12.72275 -12.72177 -12.72175  -6.75405
 Alpha  occ. eigenvalues --   -4.91848  -4.91628  -4.91187  -1.96271  -1.96251
 Alpha  occ. eigenvalues --   -1.24081  -1.24060  -1.23942  -1.23742  -1.23415
 Alpha  occ. eigenvalues --   -1.22888  -1.13637  -1.08328  -0.89401  -0.67426
 Alpha  occ. eigenvalues --   -0.56982  -0.52460  -0.52391  -0.45566  -0.43671
 Alpha  occ. eigenvalues --   -0.40559  -0.35632  -0.33618  -0.33422
 Alpha virt. eigenvalues --   -0.20920  -0.19675  -0.19651  -0.12837  -0.11779
 Alpha virt. eigenvalues --   -0.11637  -0.10826  -0.10187  -0.07820  -0.07313
 Alpha virt. eigenvalues --   -0.06400  -0.05944  -0.05384  -0.04880  -0.04593
 Alpha virt. eigenvalues --   -0.04467  -0.04404  -0.04223  -0.04052  -0.03404
 Alpha virt. eigenvalues --   -0.02371   0.00300   0.01351   0.02135   0.03098
 Alpha virt. eigenvalues --    0.03996   0.04042   0.04416   0.05016   0.05444
 Alpha virt. eigenvalues --    0.05772   0.06863   0.07327   0.07501   0.07937
 Alpha virt. eigenvalues --    0.08483   0.09744   0.10526   0.14242   0.15053
 Alpha virt. eigenvalues --    0.17275   0.18363   0.19371   0.21143   0.22043
 Alpha virt. eigenvalues --    0.23437   0.25026   0.27307   0.30125   0.31652
 Alpha virt. eigenvalues --    0.31765   0.36716   0.37709   0.44103   0.45640
 Alpha virt. eigenvalues --    0.47696   0.56685   0.57493   0.62244   0.63258
 Alpha virt. eigenvalues --    0.64984   0.82601   0.90730   0.94486   1.05952
 Alpha virt. eigenvalues --    1.06297   1.07841   1.12511   1.15943   1.16931
 Alpha virt. eigenvalues --    1.22242   1.22556   1.24777   1.37402   1.39838
 Alpha virt. eigenvalues --    1.43140   1.66268   1.66500   1.71130   1.71632
 Alpha virt. eigenvalues --    1.80323   1.81392   1.82300   1.85280   1.85688
 Alpha virt. eigenvalues --    1.86405   1.93720   1.97764   2.08928   2.53592
 Alpha virt. eigenvalues --    2.67744   3.38662   3.82233   3.89921   3.93563
          Condensed to atoms (all electrons):
              1          2          3          4          5          6
     1  O    8.836707   0.000966  -0.080705  -0.109984   0.000823   0.068073
     2  O    0.000966   8.751280   0.000974  -0.013068   0.229797   0.229776
     3  O   -0.080705   0.000974   8.837263  -0.109961   0.068061   0.000831
     4  P   -0.109984  -0.013068  -0.109961  14.595987  -0.018740  -0.018751
     5  Ca   0.000823   0.229797   0.068061  -0.018740  18.247996  -0.006705
     6  Ca   0.068073   0.229776   0.000831  -0.018751  -0.006705  18.247993
 Mulliken atomic charges:
              1
     1  O   -0.715879
     2  O   -1.199726
     3  O   -0.716464
     4  P    0.674517
     5  Ca   1.478768
     6  Ca   1.478784
 Sum of Mulliken charges=   1.00000
 Atomic charges with hydrogens summed into heavy atoms:
              1
     1  O   -0.715879
     2  O   -1.199726
     3  O   -0.716464
     4  P    0.674517
     5  Ca   1.478768
     6  Ca   1.478784
 Sum of Mulliken charges=   1.00000
 Electronic spatial extent (au):  <R**2>=  1251.2995
 Charge=     1.0000 electrons
 Dipole moment (field-independent basis, Debye):
    X=     0.0073    Y=    -3.9079    Z=    -0.0105  Tot=     3.9079
 Quadrupole moment (field-independent basis, Debye-Ang):
   XX=    -5.5390   YY=   -61.9200   ZZ=   -49.7211
   XY=     0.0435   XZ=     0.0259   YZ=     0.0136
 Traceless Quadrupole moment (field-independent basis, Debye-Ang):
   XX=    33.5210   YY=   -22.8600   ZZ=   -10.6611
   XY=     0.0435   XZ=     0.0259   YZ=     0.0136
 Octapole moment (field-independent basis, Debye-Ang**2):
  XXX=     0.1729  YYY=    16.7371  ZZZ=    -0.0154  XYY=    -0.1052
  XXY=   -77.7542  XXZ=    -0.0220  XZZ=     0.0037  YZZ=    -4.6376
  YYZ=    -0.0213  XYZ=     0.0062
 Hexadecapole moment (field-independent basis, Debye-Ang**3):
 XXXX=  -358.8611 YYYY=  -875.2103 ZZZZ=   -56.5362 XXXY=     0.1511
 XXXZ=     0.0987 YYYX=     0.2335 YYYZ=     0.0765 ZZZX=     0.0388
 ZZZY=     0.0260 XXYY=  -185.4746 XXZZ=   -96.5839 YYZZ=  -139.1054
 XXYZ=     0.0174 YYXZ=     0.0409 ZZXY=     0.0314
 N-N= 4.732609435409D+02 E-N=-5.489529540161D+03  KE= 1.916554000867D+03
 Merz-Kollman atomic radii used.
 Read replacement radii for each type of atom:
 Rad(20) =   1.188000000000D+00
 Atom Element Radius
    1     8    1.40
    2     8    1.40
    3     8    1.40
    4    15    1.80
    5    20    1.19
    6    20    1.19

 **********************************************************************

            Electrostatic Properties Using The SCF Density

 **********************************************************************

       Atomic Center    1 is at   1.276155  1.278684 -0.001108
       Atomic Center    2 is at   0.001261 -1.917452  0.000942
       Atomic Center    3 is at  -1.278125  1.277252  0.001812
       Atomic Center    4 is at  -0.001375  2.150068 -0.000108
       Atomic Center    5 is at  -1.871023 -0.935224 -0.000688
       Atomic Center    6 is at   1.872338 -0.932720  0.000112
     666 points will be used for fitting atomic charges
 Fitting point charges to eletrostatic potential
 Charges from ESP fit, RMS=   0.00501 RRMS=   0.03144:
 Charge=   1.00000 Dipole=     0.0077    -3.9191    -0.0144 Tot=     3.9191
              1
     1  O   -0.739008
     2  O   -1.529136
     3  O   -0.736033
     4  P    0.608573
     5  Ca   1.696605
     6  Ca   1.699000
 -----------------------------------------------------------------

              Electrostatic Properties (Atomic Units)

 -----------------------------------------------------------------
    Center     Electric         -------- Electric Field --------
               Potential          X             Y             Z
 -----------------------------------------------------------------
    1 Atom    -22.185981
    2 Atom    -22.310629
    3 Atom    -22.186791
    4 Atom    -53.918232
    5 Atom    -80.019202
    6 Atom    -80.019143
 -----------------------------------------------------------------
 1\1\GINC-N059\SP\RB3LYP\6-31+G(d,p)\Ca2O3P1(1+)\TIMN\12-Jun-2015\0\\# 
 b3lyp/6-31+G(d,p) int=ultrafine pop=(ReadRadii,MK)\\Ca2PO3_10.mol2c_pl
 usQ.out.z51528.zip.xyz\\1,1\O,0,1.27608,1.27876,-0.00111\O,0,0.00137,-
 1.91745,0.00094\O,0,-1.2782,1.27718,0.00181\P,0,-0.0015,2.15007,-0.000
 11\Ca,0,-1.87097,-0.93533,-0.00069\Ca,0,1.87239,-0.93261,0.00011\\Vers
 ion=EM64T-G03RevE.01\State=1-A\HF=-1922.134136\RMSD=4.825e-05\Thermal=
 0.\Dipole=0.0029734,-1.5374855,-0.004116\PG=C01 [X(Ca2O3P1)]\\@


 BE LIKE A POSTAGE STAMP.  STICK TO ONE THING UNTIL
 YOU GET THERE -- JOSH BILLINGS
 Job cpu time:  0 days  0 hours  0 minutes 31.3 seconds.
 File lengths (MBytes):  RWF=     22 Int=      0 D2E=      0 Chk=     10 Scr=      1
 Normal termination of Gaussian 03 at Fri Jun 12 17:34:37 2015.
