 Entering Gaussian System, Link 0=/home/timn/tmp/g03.e01/g03
 Input=Ca2PO3_7.mol2_plusQ.out.z51558.zip.xyz.gjf
 Output=Ca2PO3_7.mol2_plusQ.out.z51558.zip.xyz.out
 Initial command:
 /home/timn/tmp/g03.e01/l1.exe /home/timn/tmp/g03.e01/Gau-11361.inp -scrdir=/home/timn/tmp/g03.e01/
 Default is to use a total of   2 processors:
                                2 via shared-memory
                                1 via Linda
 Entering Link 1 = /home/timn/tmp/g03.e01/l1.exe PID=     11362.
  
 Copyright (c) 1988,1990,1992,1993,1995,1998,2003,2004,2007, Gaussian, Inc.
                  All Rights Reserved.
  
 This is the Gaussian(R) 03 program.  It is based on the
 the Gaussian(R) 98 system (copyright 1998, Gaussian, Inc.),
 the Gaussian(R) 94 system (copyright 1995, Gaussian, Inc.),
 the Gaussian 92(TM) system (copyright 1992, Gaussian, Inc.),
 the Gaussian 90(TM) system (copyright 1990, Gaussian, Inc.),
 the Gaussian 88(TM) system (copyright 1988, Gaussian, Inc.),
 the Gaussian 86(TM) system (copyright 1986, Carnegie Mellon
 University), and the Gaussian 82(TM) system (copyright 1983,
 Carnegie Mellon University). Gaussian is a federally registered
 trademark of Gaussian, Inc.
  
 This software contains proprietary and confidential information,
 including trade secrets, belonging to Gaussian, Inc.
  
 This software is provided under written license and may be
 used, copied, transmitted, or stored only in accord with that
 written license.
  
 The following legend is applicable only to US Government
 contracts under FAR:
  
                    RESTRICTED RIGHTS LEGEND
  
 Use, reproduction and disclosure by the US Government is
 subject to restrictions as set forth in subparagraphs (a)
 and (c) of the Commercial Computer Software - Restricted
 Rights clause in FAR 52.227-19.
  
 Gaussian, Inc.
 340 Quinnipiac St., Bldg. 40, Wallingford CT 06492
  
  
 ---------------------------------------------------------------
 Warning -- This program may not be used in any manner that
 competes with the business of Gaussian, Inc. or will provide
 assistance to any competitor of Gaussian, Inc.  The licensee
 of this program is prohibited from giving any competitor of
 Gaussian, Inc. access to this program.  By using this program,
 the user acknowledges that Gaussian, Inc. is engaged in the
 business of creating and licensing software in the field of
 computational chemistry and represents and warrants to the
 licensee that it is not a competitor of Gaussian, Inc. and that
 it will not use this program in any manner prohibited above.
 ---------------------------------------------------------------
  

 Cite this work as:
 Gaussian 03, Revision E.01,
 M. J. Frisch, G. W. Trucks, H. B. Schlegel, G. E. Scuseria, 
 M. A. Robb, J. R. Cheeseman, J. A. Montgomery, Jr., T. Vreven, 
 K. N. Kudin, J. C. Burant, J. M. Millam, S. S. Iyengar, J. Tomasi, 
 V. Barone, B. Mennucci, M. Cossi, G. Scalmani, N. Rega, 
 G. A. Petersson, H. Nakatsuji, M. Hada, M. Ehara, K. Toyota, 
 R. Fukuda, J. Hasegawa, M. Ishida, T. Nakajima, Y. Honda, O. Kitao, 
 H. Nakai, M. Klene, X. Li, J. E. Knox, H. P. Hratchian, J. B. Cross, 
 V. Bakken, C. Adamo, J. Jaramillo, R. Gomperts, R. E. Stratmann, 
 O. Yazyev, A. J. Austin, R. Cammi, C. Pomelli, J. W. Ochterski, 
 P. Y. Ayala, K. Morokuma, G. A. Voth, P. Salvador, J. J. Dannenberg, 
 V. G. Zakrzewski, S. Dapprich, A. D. Daniels, M. C. Strain, 
 O. Farkas, D. K. Malick, A. D. Rabuck, K. Raghavachari, 
 J. B. Foresman, J. V. Ortiz, Q. Cui, A. G. Baboul, S. Clifford, 
 J. Cioslowski, B. B. Stefanov, G. Liu, A. Liashenko, P. Piskorz, 
 I. Komaromi, R. L. Martin, D. J. Fox, T. Keith, M. A. Al-Laham, 
 C. Y. Peng, A. Nanayakkara, M. Challacombe, P. M. W. Gill, 
 B. Johnson, W. Chen, M. W. Wong, C. Gonzalez, and J. A. Pople, 
 Gaussian, Inc., Wallingford CT, 2004.
 
 ******************************************
 Gaussian 03:  EM64T-G03RevE.01 11-Sep-2007
                12-Jun-2015 
 ******************************************
 %nproc=2
 Will use up to    2 processors via shared memory.
 Default route:  MP2=Direct MaxDisk=2000MB
 ----------------------------------------------------
 # b3lyp/6-31+G(d,p) int=ultrafine pop=(ReadRadii,MK)
 ----------------------------------------------------

 Warning!  SCF SP cutoffs with diffuse functions may be unreliable.
 Consider SCF=Tight

 1/38=1/1;
 2/17=6,18=5,40=1/2;
 3/5=1,6=6,7=111,11=2,16=1,25=1,30=1,74=-5,75=5/1,2,3;
 4//1;
 5/5=2,32=1,38=5/2;
 6/7=2,8=2,9=2,10=2,15=8,20=101,28=1/1,2;
 99/5=1,9=1/99;
 --------------------------------------
 Ca2PO3_7.mol2_plusQ.out.z51558.zip.xyz
 --------------------------------------
 Symbolic Z-matrix:
 Charge =  1 Multiplicity = 1
 O                    -1.68218   1.20582  -0.00002 
 O                     0.25973   0.01507   1.20639 
 O                     0.2597    0.01494  -1.20637 
 P                    -0.11919   1.18271  -0.00003 
 Ca                    2.14518  -0.34352   0. 
 Ca                   -1.59068  -1.03785   0.00002 
 
                          Input orientation:                          
 ---------------------------------------------------------------------
 Center     Atomic     Atomic              Coordinates (Angstroms)
 Number     Number      Type              X           Y           Z
 ---------------------------------------------------------------------
    1          8             0       -1.682180    1.205820   -0.000020
    2          8             0        0.259730    0.015070    1.206390
    3          8             0        0.259700    0.014940   -1.206370
    4         15             0       -0.119190    1.182710   -0.000030
    5         20             0        2.145180   -0.343520    0.000000
    6         20             0       -1.590680   -1.037850    0.000020
 ---------------------------------------------------------------------
                    Distance matrix (angstroms):
                    1          2          3          4          5
     1  O    0.000000
     2  O    2.577659   0.000000
     3  O    2.577668   2.412760   0.000000
     4  P    1.563161   1.721166   1.721192   0.000000
     5  Ca   4.129060   2.266911   2.266905   2.730705   0.000000
     6  Ca   2.245535   2.447036   2.446967   2.663864   3.799835
                    6
     6  Ca   0.000000
 Stoichiometry    Ca2O3P(1+)
 Framework group  C1[X(Ca2O3P)]
 Deg. of freedom    12
 Full point group                 C1
 Largest Abelian subgroup         C1      NOp   1
 Largest concise Abelian subgroup C1      NOp   1
                         Standard orientation:                         
 ---------------------------------------------------------------------
 Center     Atomic     Atomic              Coordinates (Angstroms)
 Number     Number      Type              X           Y           Z
 ---------------------------------------------------------------------
    1          8             0       -1.682181    1.205823   -0.000019
    2          8             0        0.259728    0.015071    1.206391
    3          8             0        0.259698    0.014941   -1.206369
    4         15             0       -0.119191    1.182711   -0.000029
    5         20             0        2.145178   -0.343520    0.000000
    6         20             0       -1.590683   -1.037847    0.000021
 ---------------------------------------------------------------------
 Rotational constants (GHZ):      3.1409857      1.3319386      1.1300547
 Standard basis: 6-31+G(d,p) (6D, 7F)
 There are   134 symmetry adapted basis functions of A   symmetry.
 Integral buffers will be    131072 words long.
 Raffenetti 2 integral format.
 Two-electron integral symmetry is turned on.
   134 basis functions,   312 primitive gaussians,   134 cartesian basis functions
    39 alpha electrons       39 beta electrons
       nuclear repulsion energy       530.2745546946 Hartrees.
 NAtoms=    6 NActive=    6 NUniq=    6 SFac= 7.50D-01 NAtFMM=   80 NAOKFM=F Big=F
 One-electron integrals computed using PRISM.
 NBasis=   134 RedAO= T  NBF=   134
 NBsUse=   134 1.00D-06 NBFU=   134
 Harris functional with IExCor=  402 diagonalized for initial guess.
 ExpMin= 7.10D-03 ExpMax= 3.53D+04 ExpMxC= 5.30D+03 IAcc=3 IRadAn=         5 AccDes= 0.00D+00
 HarFok:  IExCor= 402 AccDes= 0.00D+00 IRadAn=         5 IDoV=1
 ScaDFX=  1.000000  1.000000  1.000000  1.000000
 Initial guess orbital symmetries:
       Occupied  (A) (A) (A) (A) (A) (A) (A) (A) (A) (A) (A) (A)
                 (A) (A) (A) (A) (A) (A) (A) (A) (A) (A) (A) (A)
                 (A) (A) (A) (A) (A) (A) (A) (A) (A) (A) (A) (A)
                 (A) (A) (A)
       Virtual   (A) (A) (A) (A) (A) (A) (A) (A) (A) (A) (A) (A)
                 (A) (A) (A) (A) (A) (A) (A) (A) (A) (A) (A) (A)
                 (A) (A) (A) (A) (A) (A) (A) (A) (A) (A) (A) (A)
                 (A) (A) (A) (A) (A) (A) (A) (A) (A) (A) (A) (A)
                 (A) (A) (A) (A) (A) (A) (A) (A) (A) (A) (A) (A)
                 (A) (A) (A) (A) (A) (A) (A) (A) (A) (A) (A) (A)
                 (A) (A) (A) (A) (A) (A) (A) (A) (A) (A) (A) (A)
                 (A) (A) (A) (A) (A) (A) (A) (A) (A) (A) (A)
 The electronic state of the initial guess is 1-A.
 Requested convergence on RMS density matrix=1.00D-04 within 128 cycles.
 Requested convergence on MAX density matrix=1.00D-02.
 Requested convergence on             energy=1.00D-02.
 No special actions if energy rises.
 Keep R1 integrals in memory in canonical form, NReq=    43203127.
 SCF Done:  E(RB+HF-LYP) =  -1922.10492709     A.U. after    9 cycles
             Convg  =    0.5400D-04             -V/T =  2.0029
             S**2   =   0.0000

 **********************************************************************

            Population analysis using the SCF density.

 **********************************************************************

 Orbital symmetries:
       Occupied  (A) (A) (A) (A) (A) (A) (A) (A) (A) (A) (A) (A)
                 (A) (A) (A) (A) (A) (A) (A) (A) (A) (A) (A) (A)
                 (A) (A) (A) (A) (A) (A) (A) (A) (A) (A) (A) (A)
                 (A) (A) (A)
       Virtual   (A) (A) (A) (A) (A) (A) (A) (A) (A) (A) (A) (A)
                 (A) (A) (A) (A) (A) (A) (A) (A) (A) (A) (A) (A)
                 (A) (A) (A) (A) (A) (A) (A) (A) (A) (A) (A) (A)
                 (A) (A) (A) (A) (A) (A) (A) (A) (A) (A) (A) (A)
                 (A) (A) (A) (A) (A) (A) (A) (A) (A) (A) (A) (A)
                 (A) (A) (A) (A) (A) (A) (A) (A) (A) (A) (A) (A)
                 (A) (A) (A) (A) (A) (A) (A) (A) (A) (A) (A) (A)
                 (A) (A) (A) (A) (A) (A) (A) (A) (A) (A) (A)
 The electronic state is 1-A.
 Alpha  occ. eigenvalues -- -145.57784-145.54903 -77.26326 -19.22734 -19.22728
 Alpha  occ. eigenvalues --  -19.21825 -15.64609 -15.61712 -12.77850 -12.77755
 Alpha  occ. eigenvalues --  -12.77740 -12.74898 -12.74888 -12.74874  -6.71701
 Alpha  occ. eigenvalues --   -4.88048  -4.88013  -4.87585  -2.01596  -1.98709
 Alpha  occ. eigenvalues --   -1.29327  -1.28950  -1.28655  -1.26543  -1.25952
 Alpha  occ. eigenvalues --   -1.25949  -1.08719  -1.02507  -1.00430  -0.63345
 Alpha  occ. eigenvalues --   -0.50757  -0.50399  -0.50202  -0.44672  -0.43279
 Alpha  occ. eigenvalues --   -0.40097  -0.38488  -0.36468  -0.33908
 Alpha virt. eigenvalues --   -0.24120  -0.21780  -0.16319  -0.14446  -0.13104
 Alpha virt. eigenvalues --   -0.12335  -0.10459  -0.08307  -0.08099  -0.07089
 Alpha virt. eigenvalues --   -0.06601  -0.06403  -0.05488  -0.05411  -0.04905
 Alpha virt. eigenvalues --   -0.04524  -0.04346  -0.03608  -0.02542  -0.01874
 Alpha virt. eigenvalues --   -0.01266   0.00052   0.00728   0.02056   0.02111
 Alpha virt. eigenvalues --    0.02191   0.02751   0.03655   0.04211   0.04330
 Alpha virt. eigenvalues --    0.04860   0.05788   0.06514   0.07158   0.07722
 Alpha virt. eigenvalues --    0.08606   0.11483   0.12603   0.15251   0.16909
 Alpha virt. eigenvalues --    0.18399   0.18466   0.19277   0.20505   0.22391
 Alpha virt. eigenvalues --    0.23342   0.25949   0.28543   0.30780   0.31404
 Alpha virt. eigenvalues --    0.32039   0.36877   0.37596   0.42001   0.42206
 Alpha virt. eigenvalues --    0.45121   0.52861   0.57693   0.58748   0.74170
 Alpha virt. eigenvalues --    0.80874   0.85779   0.86272   0.94700   1.10414
 Alpha virt. eigenvalues --    1.10900   1.14899   1.17790   1.18967   1.20480
 Alpha virt. eigenvalues --    1.23352   1.25840   1.26365   1.46920   1.48414
 Alpha virt. eigenvalues --    1.68478   1.69340   1.74608   1.75827   1.77132
 Alpha virt. eigenvalues --    1.77987   1.81747   1.81769   1.83710   1.90147
 Alpha virt. eigenvalues --    1.91991   1.98936   2.08795   2.34740   2.45021
 Alpha virt. eigenvalues --    2.69350   3.49120   3.99305   4.01189   4.15377
          Condensed to atoms (all electrons):
              1          2          3          4          5          6
     1  O    8.621515   0.000585   0.000595   0.130048   0.025446   0.075630
     2  O    0.000585   8.922124   0.063231  -0.286477   0.153208   0.047273
     3  O    0.000595   0.063231   8.922260  -0.286477   0.153194   0.047268
     4  P    0.130048  -0.286477  -0.286477  14.501815  -0.035677   0.158848
     5  Ca   0.025446   0.153208   0.153194  -0.035677  18.265659  -0.019167
     6  Ca   0.075630   0.047273   0.047268   0.158848  -0.019167  18.311571
 Mulliken atomic charges:
              1
     1  O   -0.853818
     2  O   -0.899945
     3  O   -0.900071
     4  P    0.817920
     5  Ca   1.457338
     6  Ca   1.378576
 Sum of Mulliken charges=   1.00000
 Atomic charges with hydrogens summed into heavy atoms:
              1
     1  O   -0.853818
     2  O   -0.899945
     3  O   -0.900071
     4  P    0.817920
     5  Ca   1.457338
     6  Ca   1.378576
 Sum of Mulliken charges=   1.00000
 Electronic spatial extent (au):  <R**2>=   965.7580
 Charge=     1.0000 electrons
 Dipole moment (field-independent basis, Debye):
    X=     6.1678    Y=   -11.0934    Z=     0.0007  Tot=    12.6927
 Quadrupole moment (field-independent basis, Debye-Ang):
   XX=    -5.5221   YY=   -45.8949   ZZ=   -64.1593
   XY=    11.3994   XZ=    -0.0003   YZ=    -0.0005
 Traceless Quadrupole moment (field-independent basis, Debye-Ang):
   XX=    33.0033   YY=    -7.3695   ZZ=   -25.6339
   XY=    11.3994   XZ=    -0.0003   YZ=    -0.0005
 Octapole moment (field-independent basis, Debye-Ang**2):
  XXX=    75.6570  YYY=   -39.2241  ZZZ=     0.0002  XYY=    -5.5452
  XXY=   -55.9560  XXZ=     0.0005  XZZ=    -0.9301  YZZ=    -6.9456
  YYZ=     0.0007  XYZ=     0.0000
 Hexadecapole moment (field-independent basis, Debye-Ang**3):
 XXXX=  -351.5082 YYYY=  -293.6380 ZZZZ=  -208.1456 XXXY=    44.1953
 XXXZ=    -0.0017 YYYX=    29.0893 YYYZ=     0.0005 ZZZX=    -0.0009
 ZZZY=    -0.0018 XXYY=  -128.8101 XXZZ=  -124.9301 YYZZ=   -77.9590
 XXYZ=    -0.0004 YYXZ=    -0.0004 ZZXY=     5.0573
 N-N= 5.302745546946D+02 E-N=-5.602704946969D+03  KE= 1.916595191651D+03
 Merz-Kollman atomic radii used.
 Read replacement radii for each type of atom:
 Rad(20) =   1.188000000000D+00
 Atom Element Radius
    1     8    1.40
    2     8    1.40
    3     8    1.40
    4    15    1.80
    5    20    1.19
    6    20    1.19

 **********************************************************************

            Electrostatic Properties Using The SCF Density

 **********************************************************************

       Atomic Center    1 is at  -1.682181  1.205823 -0.000019
       Atomic Center    2 is at   0.259728  0.015071  1.206391
       Atomic Center    3 is at   0.259698  0.014941 -1.206369
       Atomic Center    4 is at  -0.119191  1.182711 -0.000029
       Atomic Center    5 is at   2.145178 -0.343520  0.000000
       Atomic Center    6 is at  -1.590683 -1.037847  0.000021
     582 points will be used for fitting atomic charges
 Fitting point charges to eletrostatic potential
 Charges from ESP fit, RMS=   0.00827 RRMS=   0.04758:
 Charge=   1.00000 Dipole=     6.2009   -11.3818     0.0007 Tot=    12.9614
              1
     1  O   -0.545113
     2  O   -1.021023
     3  O   -1.021140
     4  P    0.417421
     5  Ca   1.605085
     6  Ca   1.564769
 -----------------------------------------------------------------

              Electrostatic Properties (Atomic Units)

 -----------------------------------------------------------------
    Center     Electric         -------- Electric Field --------
               Potential          X             Y             Z
 -----------------------------------------------------------------
    1 Atom    -22.246337
    2 Atom    -22.237714
    3 Atom    -22.237891
    4 Atom    -53.949975
    5 Atom    -79.963720
    6 Atom    -79.992813
 -----------------------------------------------------------------
 1\1\GINC-N033\SP\RB3LYP\6-31+G(d,p)\Ca2O3P1(1+)\TIMN\12-Jun-2015\0\\# 
 b3lyp/6-31+G(d,p) int=ultrafine pop=(ReadRadii,MK)\\Ca2PO3_7.mol2_plus
 Q.out.z51558.zip.xyz\\1,1\O,0,-1.68218,1.20582,-0.00002\O,0,0.25973,0.
 01507,1.20639\O,0,0.2597,0.01494,-1.20637\P,0,-0.11919,1.18271,-0.0000
 3\Ca,0,2.14518,-0.34352,0.\Ca,0,-1.59068,-1.03785,0.00002\\Version=EM6
 4T-G03RevE.01\State=1-A\HF=-1922.1049271\RMSD=5.400e-05\Thermal=0.\Dip
 ole=2.4265969,-4.3644823,0.000281\PG=C01 [X(Ca2O3P1)]\\@


 ALL MEN WHO EXPLORE
 DEPLORE
 THAT FRUSTRATING HURDLE
 THE GIRDLE.

         -- COLIN FLETCHER
 Job cpu time:  0 days  0 hours  0 minutes 35.4 seconds.
 File lengths (MBytes):  RWF=     22 Int=      0 D2E=      0 Chk=     10 Scr=      1
 Normal termination of Gaussian 03 at Fri Jun 12 17:35:04 2015.
