 Entering Gaussian System, Link 0=/home/timn/tmp/g03.e01/g03
 Input=Ca2PO3_21.mol2_plusQc.out.z51541.zip.xyz.gjf
 Output=Ca2PO3_21.mol2_plusQc.out.z51541.zip.xyz.out
 Initial command:
 /home/timn/tmp/g03.e01/l1.exe /home/timn/tmp/g03.e01/Gau-13133.inp -scrdir=/home/timn/tmp/g03.e01/
 Default is to use a total of   2 processors:
                                2 via shared-memory
                                1 via Linda
 Entering Link 1 = /home/timn/tmp/g03.e01/l1.exe PID=     13134.
  
 Copyright (c) 1988,1990,1992,1993,1995,1998,2003,2004,2007, Gaussian, Inc.
                  All Rights Reserved.
  
 This is the Gaussian(R) 03 program.  It is based on the
 the Gaussian(R) 98 system (copyright 1998, Gaussian, Inc.),
 the Gaussian(R) 94 system (copyright 1995, Gaussian, Inc.),
 the Gaussian 92(TM) system (copyright 1992, Gaussian, Inc.),
 the Gaussian 90(TM) system (copyright 1990, Gaussian, Inc.),
 the Gaussian 88(TM) system (copyright 1988, Gaussian, Inc.),
 the Gaussian 86(TM) system (copyright 1986, Carnegie Mellon
 University), and the Gaussian 82(TM) system (copyright 1983,
 Carnegie Mellon University). Gaussian is a federally registered
 trademark of Gaussian, Inc.
  
 This software contains proprietary and confidential information,
 including trade secrets, belonging to Gaussian, Inc.
  
 This software is provided under written license and may be
 used, copied, transmitted, or stored only in accord with that
 written license.
  
 The following legend is applicable only to US Government
 contracts under FAR:
  
                    RESTRICTED RIGHTS LEGEND
  
 Use, reproduction and disclosure by the US Government is
 subject to restrictions as set forth in subparagraphs (a)
 and (c) of the Commercial Computer Software - Restricted
 Rights clause in FAR 52.227-19.
  
 Gaussian, Inc.
 340 Quinnipiac St., Bldg. 40, Wallingford CT 06492
  
  
 ---------------------------------------------------------------
 Warning -- This program may not be used in any manner that
 competes with the business of Gaussian, Inc. or will provide
 assistance to any competitor of Gaussian, Inc.  The licensee
 of this program is prohibited from giving any competitor of
 Gaussian, Inc. access to this program.  By using this program,
 the user acknowledges that Gaussian, Inc. is engaged in the
 business of creating and licensing software in the field of
 computational chemistry and represents and warrants to the
 licensee that it is not a competitor of Gaussian, Inc. and that
 it will not use this program in any manner prohibited above.
 ---------------------------------------------------------------
  

 Cite this work as:
 Gaussian 03, Revision E.01,
 M. J. Frisch, G. W. Trucks, H. B. Schlegel, G. E. Scuseria, 
 M. A. Robb, J. R. Cheeseman, J. A. Montgomery, Jr., T. Vreven, 
 K. N. Kudin, J. C. Burant, J. M. Millam, S. S. Iyengar, J. Tomasi, 
 V. Barone, B. Mennucci, M. Cossi, G. Scalmani, N. Rega, 
 G. A. Petersson, H. Nakatsuji, M. Hada, M. Ehara, K. Toyota, 
 R. Fukuda, J. Hasegawa, M. Ishida, T. Nakajima, Y. Honda, O. Kitao, 
 H. Nakai, M. Klene, X. Li, J. E. Knox, H. P. Hratchian, J. B. Cross, 
 V. Bakken, C. Adamo, J. Jaramillo, R. Gomperts, R. E. Stratmann, 
 O. Yazyev, A. J. Austin, R. Cammi, C. Pomelli, J. W. Ochterski, 
 P. Y. Ayala, K. Morokuma, G. A. Voth, P. Salvador, J. J. Dannenberg, 
 V. G. Zakrzewski, S. Dapprich, A. D. Daniels, M. C. Strain, 
 O. Farkas, D. K. Malick, A. D. Rabuck, K. Raghavachari, 
 J. B. Foresman, J. V. Ortiz, Q. Cui, A. G. Baboul, S. Clifford, 
 J. Cioslowski, B. B. Stefanov, G. Liu, A. Liashenko, P. Piskorz, 
 I. Komaromi, R. L. Martin, D. J. Fox, T. Keith, M. A. Al-Laham, 
 C. Y. Peng, A. Nanayakkara, M. Challacombe, P. M. W. Gill, 
 B. Johnson, W. Chen, M. W. Wong, C. Gonzalez, and J. A. Pople, 
 Gaussian, Inc., Wallingford CT, 2004.
 
 ******************************************
 Gaussian 03:  EM64T-G03RevE.01 11-Sep-2007
                12-Jun-2015 
 ******************************************
 %nproc=2
 Will use up to    2 processors via shared memory.
 Default route:  MP2=Direct MaxDisk=2000MB
 ----------------------------------------------------
 # b3lyp/6-31+G(d,p) int=ultrafine pop=(ReadRadii,MK)
 ----------------------------------------------------

 Warning!  SCF SP cutoffs with diffuse functions may be unreliable.
 Consider SCF=Tight

 1/38=1/1;
 2/17=6,18=5,40=1/2;
 3/5=1,6=6,7=111,11=2,16=1,25=1,30=1,74=-5,75=5/1,2,3;
 4//1;
 5/5=2,32=1,38=5/2;
 6/7=2,8=2,9=2,10=2,15=8,20=101,28=1/1,2;
 99/5=1,9=1/99;
 ----------------------------------------
 Ca2PO3_21.mol2_plusQc.out.z51541.zip.xyz
 ----------------------------------------
 Symbolic Z-matrix:
 Charge =  1 Multiplicity = 1
 O                     1.24155   1.30955   0.00244 
 O                     0.05051  -1.9166   -0.00118 
 O                    -1.31167   1.2455    0.00074 
 P                    -0.05693   2.14979  -0.00142 
 Ca                    1.89653  -0.88554  -0.0001 
 Ca                   -1.84599  -0.98218   0.00036 
 
                          Input orientation:                          
 ---------------------------------------------------------------------
 Center     Atomic     Atomic              Coordinates (Angstroms)
 Number     Number      Type              X           Y           Z
 ---------------------------------------------------------------------
    1          8             0        1.241550    1.309550    0.002440
    2          8             0        0.050510   -1.916600   -0.001180
    3          8             0       -1.311670    1.245500    0.000740
    4         15             0       -0.056930    2.149790   -0.001420
    5         20             0        1.896530   -0.885540   -0.000100
    6         20             0       -1.845990   -0.982180    0.000360
 ---------------------------------------------------------------------
                    Distance matrix (angstroms):
                    1          2          3          4          5
     1  O    0.000000
     2  O    3.438987   0.000000
     3  O    2.554024   3.443024   0.000000
     4  P    1.546631   4.067809   1.546647   0.000000
     5  Ca   2.290726   2.114445   3.851478   3.609603   0.000000
     6  Ca   3.845118   2.114203   2.290864   3.606934   3.743768
                    6
     6  Ca   0.000000
 Stoichiometry    Ca2O3P(1+)
 Framework group  C1[X(Ca2O3P)]
 Deg. of freedom    12
 Full point group                 C1
 Largest Abelian subgroup         C1      NOp   1
 Largest concise Abelian subgroup C1      NOp   1
                         Standard orientation:                         
 ---------------------------------------------------------------------
 Center     Atomic     Atomic              Coordinates (Angstroms)
 Number     Number      Type              X           Y           Z
 ---------------------------------------------------------------------
    1          8             0        1.241560    1.309540    0.002441
    2          8             0        0.050496   -1.916601   -0.001179
    3          8             0       -1.311660    1.245509    0.000741
    4         15             0       -0.056914    2.149790   -0.001419
    5         20             0        1.896524   -0.885555   -0.000099
    6         20             0       -1.845997   -0.982167    0.000361
 ---------------------------------------------------------------------
 Rotational constants (GHZ):      1.5597943      1.5211466      0.7701145
 Standard basis: 6-31+G(d,p) (6D, 7F)
 There are   134 symmetry adapted basis functions of A   symmetry.
 Integral buffers will be    131072 words long.
 Raffenetti 2 integral format.
 Two-electron integral symmetry is turned on.
   134 basis functions,   312 primitive gaussians,   134 cartesian basis functions
    39 alpha electrons       39 beta electrons
       nuclear repulsion energy       473.2182187203 Hartrees.
 NAtoms=    6 NActive=    6 NUniq=    6 SFac= 7.50D-01 NAtFMM=   80 NAOKFM=F Big=F
 One-electron integrals computed using PRISM.
 NBasis=   134 RedAO= T  NBF=   134
 NBsUse=   134 1.00D-06 NBFU=   134
 Harris functional with IExCor=  402 diagonalized for initial guess.
 ExpMin= 7.10D-03 ExpMax= 3.53D+04 ExpMxC= 5.30D+03 IAcc=3 IRadAn=         5 AccDes= 0.00D+00
 HarFok:  IExCor= 402 AccDes= 0.00D+00 IRadAn=         5 IDoV=1
 ScaDFX=  1.000000  1.000000  1.000000  1.000000
 Initial guess orbital symmetries:
       Occupied  (A) (A) (A) (A) (A) (A) (A) (A) (A) (A) (A) (A)
                 (A) (A) (A) (A) (A) (A) (A) (A) (A) (A) (A) (A)
                 (A) (A) (A) (A) (A) (A) (A) (A) (A) (A) (A) (A)
                 (A) (A) (A)
       Virtual   (A) (A) (A) (A) (A) (A) (A) (A) (A) (A) (A) (A)
                 (A) (A) (A) (A) (A) (A) (A) (A) (A) (A) (A) (A)
                 (A) (A) (A) (A) (A) (A) (A) (A) (A) (A) (A) (A)
                 (A) (A) (A) (A) (A) (A) (A) (A) (A) (A) (A) (A)
                 (A) (A) (A) (A) (A) (A) (A) (A) (A) (A) (A) (A)
                 (A) (A) (A) (A) (A) (A) (A) (A) (A) (A) (A) (A)
                 (A) (A) (A) (A) (A) (A) (A) (A) (A) (A) (A) (A)
                 (A) (A) (A) (A) (A) (A) (A) (A) (A) (A) (A)
 The electronic state of the initial guess is 1-A.
 Requested convergence on RMS density matrix=1.00D-04 within 128 cycles.
 Requested convergence on MAX density matrix=1.00D-02.
 Requested convergence on             energy=1.00D-02.
 No special actions if energy rises.
 Keep R1 integrals in memory in canonical form, NReq=    43203134.
 EnCoef did     4 forward-backward iterations
 SCF Done:  E(RB+HF-LYP) =  -1922.13413473     A.U. after    7 cycles
             Convg  =    0.4947D-04             -V/T =  2.0029
             S**2   =   0.0000

 **********************************************************************

            Population analysis using the SCF density.

 **********************************************************************

 Orbital symmetries:
       Occupied  (A) (A) (A) (A) (A) (A) (A) (A) (A) (A) (A) (A)
                 (A) (A) (A) (A) (A) (A) (A) (A) (A) (A) (A) (A)
                 (A) (A) (A) (A) (A) (A) (A) (A) (A) (A) (A) (A)
                 (A) (A) (A)
       Virtual   (A) (A) (A) (A) (A) (A) (A) (A) (A) (A) (A) (A)
                 (A) (A) (A) (A) (A) (A) (A) (A) (A) (A) (A) (A)
                 (A) (A) (A) (A) (A) (A) (A) (A) (A) (A) (A) (A)
                 (A) (A) (A) (A) (A) (A) (A) (A) (A) (A) (A) (A)
                 (A) (A) (A) (A) (A) (A) (A) (A) (A) (A) (A) (A)
                 (A) (A) (A) (A) (A) (A) (A) (A) (A) (A) (A) (A)
                 (A) (A) (A) (A) (A) (A) (A) (A) (A) (A) (A) (A)
                 (A) (A) (A) (A) (A) (A) (A) (A) (A) (A) (A)
 The electronic state is 1-A.
 Alpha  occ. eigenvalues -- -145.52217-145.52209 -77.29923 -19.27769 -19.27680
 Alpha  occ. eigenvalues --  -19.15023 -15.59104 -15.59097 -12.72354 -12.72348
 Alpha  occ. eigenvalues --  -12.72279 -12.72272 -12.72180 -12.72173  -6.75404
 Alpha  occ. eigenvalues --   -4.91847  -4.91627  -4.91186  -1.96270  -1.96250
 Alpha  occ. eigenvalues --   -1.24080  -1.24059  -1.23940  -1.23740  -1.23413
 Alpha  occ. eigenvalues --   -1.22887  -1.13626  -1.08315  -0.89393  -0.67421
 Alpha  occ. eigenvalues --   -0.56972  -0.52451  -0.52381  -0.45555  -0.43658
 Alpha  occ. eigenvalues --   -0.40559  -0.35626  -0.33611  -0.33413
 Alpha virt. eigenvalues --   -0.20919  -0.19675  -0.19650  -0.12834  -0.11778
 Alpha virt. eigenvalues --   -0.11634  -0.10825  -0.10187  -0.07820  -0.07312
 Alpha virt. eigenvalues --   -0.06401  -0.05943  -0.05384  -0.04882  -0.04592
 Alpha virt. eigenvalues --   -0.04467  -0.04403  -0.04221  -0.04053  -0.03403
 Alpha virt. eigenvalues --   -0.02370   0.00301   0.01354   0.02135   0.03099
 Alpha virt. eigenvalues --    0.03998   0.04045   0.04411   0.05017   0.05444
 Alpha virt. eigenvalues --    0.05778   0.06866   0.07331   0.07503   0.07940
 Alpha virt. eigenvalues --    0.08482   0.09746   0.10527   0.14243   0.15055
 Alpha virt. eigenvalues --    0.17275   0.18361   0.19370   0.21142   0.22048
 Alpha virt. eigenvalues --    0.23444   0.25028   0.27306   0.30128   0.31654
 Alpha virt. eigenvalues --    0.31767   0.36714   0.37709   0.44096   0.45630
 Alpha virt. eigenvalues --    0.47694   0.56683   0.57497   0.62259   0.63256
 Alpha virt. eigenvalues --    0.64973   0.82595   0.90722   0.94491   1.05958
 Alpha virt. eigenvalues --    1.06289   1.07847   1.12517   1.15954   1.16933
 Alpha virt. eigenvalues --    1.22253   1.22566   1.24777   1.37415   1.39839
 Alpha virt. eigenvalues --    1.43149   1.66275   1.66510   1.71133   1.71645
 Alpha virt. eigenvalues --    1.80314   1.81399   1.82309   1.85284   1.85695
 Alpha virt. eigenvalues --    1.86394   1.93731   1.97764   2.08916   2.53570
 Alpha virt. eigenvalues --    2.67736   3.38672   3.82234   3.89927   3.93569
          Condensed to atoms (all electrons):
              1          2          3          4          5          6
     1  O    8.836517   0.000868  -0.080810  -0.109640   0.068018   0.000788
     2  O    0.000868   8.751114   0.000999  -0.013035   0.229787   0.229890
     3  O   -0.080810   0.000999   8.837228  -0.109435   0.000867   0.068059
     4  P   -0.109640  -0.013035  -0.109435  14.594854  -0.018663  -0.018770
     5  Ca   0.068018   0.229787   0.000867  -0.018663  18.247859  -0.006709
     6  Ca   0.000788   0.229890   0.068059  -0.018770  -0.006709  18.247999
 Mulliken atomic charges:
              1
     1  O   -0.715742
     2  O   -1.199623
     3  O   -0.716908
     4  P    0.674690
     5  Ca   1.478840
     6  Ca   1.478743
 Sum of Mulliken charges=   1.00000
 Atomic charges with hydrogens summed into heavy atoms:
              1
     1  O   -0.715742
     2  O   -1.199623
     3  O   -0.716908
     4  P    0.674690
     5  Ca   1.478840
     6  Ca   1.478743
 Sum of Mulliken charges=   1.00000
 Electronic spatial extent (au):  <R**2>=  1251.5289
 Charge=     1.0000 electrons
 Dipole moment (field-independent basis, Debye):
    X=     0.1268    Y=    -3.9091    Z=     0.0001  Tot=     3.9112
 Quadrupole moment (field-independent basis, Debye-Ang):
   XX=    -5.5698   YY=   -61.8652   ZZ=   -49.7232
   XY=     1.4747   XZ=    -0.0144   YZ=    -0.0218
 Traceless Quadrupole moment (field-independent basis, Debye-Ang):
   XX=    33.4829   YY=   -22.8125   ZZ=   -10.6704
   XY=     1.4747   XZ=    -0.0144   YZ=    -0.0218
 Octapole moment (field-independent basis, Debye-Ang**2):
  XXX=     6.3252  YYY=    16.5686  ZZZ=     0.0182  XYY=    -4.4187
  XXY=   -77.5823  XXZ=    -0.0073  XZZ=     0.1273  YZZ=    -4.6364
  YYZ=     0.0539  XYZ=    -0.0052
 Hexadecapole moment (field-independent basis, Debye-Ang**3):
 XXXX=  -359.1710 YYYY=  -874.8344 ZZZZ=   -56.5433 XXXY=     5.3826
 XXXZ=    -0.0541 YYYX=     8.6396 YYYZ=     0.0302 ZZZX=    -0.0224
 ZZZY=    -0.0146 XXYY=  -185.5767 XXZZ=   -96.6330 YYZZ=  -139.1006
 XXYZ=    -0.0397 YYXZ=    -0.0266 ZZXY=     1.2104
 N-N= 4.732182187203D+02 E-N=-5.489442835229D+03  KE= 1.916551876447D+03
 Merz-Kollman atomic radii used.
 Read replacement radii for each type of atom:
 Rad(20) =   1.188000000000D+00
 Atom Element Radius
    1     8    1.40
    2     8    1.40
    3     8    1.40
    4    15    1.80
    5    20    1.19
    6    20    1.19

 **********************************************************************

            Electrostatic Properties Using The SCF Density

 **********************************************************************

       Atomic Center    1 is at   1.241560  1.309540  0.002441
       Atomic Center    2 is at   0.050496 -1.916601 -0.001179
       Atomic Center    3 is at  -1.311660  1.245509  0.000741
       Atomic Center    4 is at  -0.056914  2.149790 -0.001419
       Atomic Center    5 is at   1.896524 -0.885555 -0.000099
       Atomic Center    6 is at  -1.845997 -0.982167  0.000361
     666 points will be used for fitting atomic charges
 Fitting point charges to eletrostatic potential
 Charges from ESP fit, RMS=   0.00501 RRMS=   0.03147:
 Charge=   1.00000 Dipole=     0.1396    -3.9176    -0.0046 Tot=     3.9200
              1
     1  O   -0.738457
     2  O   -1.528826
     3  O   -0.736771
     4  P    0.609023
     5  Ca   1.699009
     6  Ca   1.696021
 -----------------------------------------------------------------

              Electrostatic Properties (Atomic Units)

 -----------------------------------------------------------------
    Center     Electric         -------- Electric Field --------
               Potential          X             Y             Z
 -----------------------------------------------------------------
    1 Atom    -22.185206
    2 Atom    -22.310377
    3 Atom    -22.187671
    4 Atom    -53.918265
    5 Atom    -80.019033
    6 Atom    -80.019285
 -----------------------------------------------------------------
 1\1\GINC-N029\SP\RB3LYP\6-31+G(d,p)\Ca2O3P1(1+)\TIMN\12-Jun-2015\0\\# 
 b3lyp/6-31+G(d,p) int=ultrafine pop=(ReadRadii,MK)\\Ca2PO3_21.mol2_plu
 sQc.out.z51541.zip.xyz\\1,1\O,0,1.24155,1.30955,0.00244\O,0,0.05051,-1
 .9166,-0.00118\O,0,-1.31167,1.2455,0.00074\P,0,-0.05693,2.14979,-0.001
 42\Ca,0,1.89653,-0.88554,-0.0001\Ca,0,-1.84599,-0.98218,0.00036\\Versi
 on=EM64T-G03RevE.01\State=1-A\HF=-1922.1341347\RMSD=4.947e-05\Thermal=
 0.\Dipole=0.0499108,-1.5379575,0.0000456\PG=C01 [X(Ca2O3P1)]\\@


 MANHOOD BEGINS BY TRYING TO SHAVE FACE,
 AND ENDS BY TRYING TO SAVE FACE.
 Job cpu time:  0 days  0 hours  0 minutes 29.3 seconds.
 File lengths (MBytes):  RWF=     22 Int=      0 D2E=      0 Chk=     10 Scr=      1
 Normal termination of Gaussian 03 at Fri Jun 12 17:34:39 2015.
