 Entering Gaussian System, Link 0=/home/timn/tmp/g03.e01/g03
 Input=Ca2PO3_8.mol2_plusQ.out.z51559.zip.xyz.gjf
 Output=Ca2PO3_8.mol2_plusQ.out.z51559.zip.xyz.out
 Initial command:
 /home/timn/tmp/g03.e01/l1.exe /home/timn/tmp/g03.e01/Gau-18682.inp -scrdir=/home/timn/tmp/g03.e01/
 Default is to use a total of   2 processors:
                                2 via shared-memory
                                1 via Linda
 Entering Link 1 = /home/timn/tmp/g03.e01/l1.exe PID=     18683.
  
 Copyright (c) 1988,1990,1992,1993,1995,1998,2003,2004,2007, Gaussian, Inc.
                  All Rights Reserved.
  
 This is the Gaussian(R) 03 program.  It is based on the
 the Gaussian(R) 98 system (copyright 1998, Gaussian, Inc.),
 the Gaussian(R) 94 system (copyright 1995, Gaussian, Inc.),
 the Gaussian 92(TM) system (copyright 1992, Gaussian, Inc.),
 the Gaussian 90(TM) system (copyright 1990, Gaussian, Inc.),
 the Gaussian 88(TM) system (copyright 1988, Gaussian, Inc.),
 the Gaussian 86(TM) system (copyright 1986, Carnegie Mellon
 University), and the Gaussian 82(TM) system (copyright 1983,
 Carnegie Mellon University). Gaussian is a federally registered
 trademark of Gaussian, Inc.
  
 This software contains proprietary and confidential information,
 including trade secrets, belonging to Gaussian, Inc.
  
 This software is provided under written license and may be
 used, copied, transmitted, or stored only in accord with that
 written license.
  
 The following legend is applicable only to US Government
 contracts under FAR:
  
                    RESTRICTED RIGHTS LEGEND
  
 Use, reproduction and disclosure by the US Government is
 subject to restrictions as set forth in subparagraphs (a)
 and (c) of the Commercial Computer Software - Restricted
 Rights clause in FAR 52.227-19.
  
 Gaussian, Inc.
 340 Quinnipiac St., Bldg. 40, Wallingford CT 06492
  
  
 ---------------------------------------------------------------
 Warning -- This program may not be used in any manner that
 competes with the business of Gaussian, Inc. or will provide
 assistance to any competitor of Gaussian, Inc.  The licensee
 of this program is prohibited from giving any competitor of
 Gaussian, Inc. access to this program.  By using this program,
 the user acknowledges that Gaussian, Inc. is engaged in the
 business of creating and licensing software in the field of
 computational chemistry and represents and warrants to the
 licensee that it is not a competitor of Gaussian, Inc. and that
 it will not use this program in any manner prohibited above.
 ---------------------------------------------------------------
  

 Cite this work as:
 Gaussian 03, Revision E.01,
 M. J. Frisch, G. W. Trucks, H. B. Schlegel, G. E. Scuseria, 
 M. A. Robb, J. R. Cheeseman, J. A. Montgomery, Jr., T. Vreven, 
 K. N. Kudin, J. C. Burant, J. M. Millam, S. S. Iyengar, J. Tomasi, 
 V. Barone, B. Mennucci, M. Cossi, G. Scalmani, N. Rega, 
 G. A. Petersson, H. Nakatsuji, M. Hada, M. Ehara, K. Toyota, 
 R. Fukuda, J. Hasegawa, M. Ishida, T. Nakajima, Y. Honda, O. Kitao, 
 H. Nakai, M. Klene, X. Li, J. E. Knox, H. P. Hratchian, J. B. Cross, 
 V. Bakken, C. Adamo, J. Jaramillo, R. Gomperts, R. E. Stratmann, 
 O. Yazyev, A. J. Austin, R. Cammi, C. Pomelli, J. W. Ochterski, 
 P. Y. Ayala, K. Morokuma, G. A. Voth, P. Salvador, J. J. Dannenberg, 
 V. G. Zakrzewski, S. Dapprich, A. D. Daniels, M. C. Strain, 
 O. Farkas, D. K. Malick, A. D. Rabuck, K. Raghavachari, 
 J. B. Foresman, J. V. Ortiz, Q. Cui, A. G. Baboul, S. Clifford, 
 J. Cioslowski, B. B. Stefanov, G. Liu, A. Liashenko, P. Piskorz, 
 I. Komaromi, R. L. Martin, D. J. Fox, T. Keith, M. A. Al-Laham, 
 C. Y. Peng, A. Nanayakkara, M. Challacombe, P. M. W. Gill, 
 B. Johnson, W. Chen, M. W. Wong, C. Gonzalez, and J. A. Pople, 
 Gaussian, Inc., Wallingford CT, 2004.
 
 ******************************************
 Gaussian 03:  EM64T-G03RevE.01 11-Sep-2007
                12-Jun-2015 
 ******************************************
 %nproc=2
 Will use up to    2 processors via shared memory.
 Default route:  MP2=Direct MaxDisk=2000MB
 ----------------------------------------------------
 # b3lyp/6-31+G(d,p) int=ultrafine pop=(ReadRadii,MK)
 ----------------------------------------------------

 Warning!  SCF SP cutoffs with diffuse functions may be unreliable.
 Consider SCF=Tight

 1/38=1/1;
 2/17=6,18=5,40=1/2;
 3/5=1,6=6,7=111,11=2,16=1,25=1,30=1,74=-5,75=5/1,2,3;
 4//1;
 5/5=2,32=1,38=5/2;
 6/7=2,8=2,9=2,10=2,15=8,20=101,28=1/1,2;
 99/5=1,9=1/99;
 --------------------------------------
 Ca2PO3_8.mol2_plusQ.out.z51559.zip.xyz
 --------------------------------------
 Symbolic Z-matrix:
 Charge =  1 Multiplicity = 1
 O                    -1.68207   1.20613  -0.00017 
 O                     0.25986   0.01548   1.20659 
 O                     0.25967   0.0146   -1.20646 
 P                    -0.11922   1.18284  -0.0002 
 Ca                   -1.59092  -1.03798   0.00016 
 Ca                    2.14535  -0.34363   0.00001 
 
                          Input orientation:                          
 ---------------------------------------------------------------------
 Center     Atomic     Atomic              Coordinates (Angstroms)
 Number     Number      Type              X           Y           Z
 ---------------------------------------------------------------------
    1          8             0       -1.682070    1.206130   -0.000170
    2          8             0        0.259860    0.015480    1.206590
    3          8             0        0.259670    0.014600   -1.206460
    4         15             0       -0.119220    1.182840   -0.000200
    5         20             0       -1.590920   -1.037980    0.000160
    6         20             0        2.145350   -0.343630    0.000010
 ---------------------------------------------------------------------
                    Distance matrix (angstroms):
                    1          2          3          4          5
     1  O    0.000000
     2  O    2.577792   0.000000
     3  O    2.577835   2.413050   0.000000
     4  P    1.563024   1.721271   1.721454   0.000000
     5  Ca   2.245960   2.447578   2.447149   2.664196   0.000000
     6  Ca   4.129274   2.267128   2.267088   2.731005   3.800241
                    6
     6  Ca   0.000000
 Stoichiometry    Ca2O3P(1+)
 Framework group  C1[X(Ca2O3P)]
 Deg. of freedom    12
 Full point group                 C1
 Largest Abelian subgroup         C1      NOp   1
 Largest concise Abelian subgroup C1      NOp   1
                         Standard orientation:                         
 ---------------------------------------------------------------------
 Center     Atomic     Atomic              Coordinates (Angstroms)
 Number     Number      Type              X           Y           Z
 ---------------------------------------------------------------------
    1          8             0       -1.682074    1.206123   -0.000171
    2          8             0        0.259860    0.015480    1.206589
    3          8             0        0.259670    0.014600   -1.206461
    4         15             0       -0.119224    1.182839   -0.000201
    5         20             0       -1.590916   -1.037987    0.000159
    6         20             0        2.145351   -0.343623    0.000009
 ---------------------------------------------------------------------
 Rotational constants (GHZ):      3.1400780      1.3317069      1.1298270
 Standard basis: 6-31+G(d,p) (6D, 7F)
 There are   134 symmetry adapted basis functions of A   symmetry.
 Integral buffers will be    131072 words long.
 Raffenetti 2 integral format.
 Two-electron integral symmetry is turned on.
   134 basis functions,   312 primitive gaussians,   134 cartesian basis functions
    39 alpha electrons       39 beta electrons
       nuclear repulsion energy       530.2222205410 Hartrees.
 NAtoms=    6 NActive=    6 NUniq=    6 SFac= 7.50D-01 NAtFMM=   80 NAOKFM=F Big=F
 One-electron integrals computed using PRISM.
 NBasis=   134 RedAO= T  NBF=   134
 NBsUse=   134 1.00D-06 NBFU=   134
 Harris functional with IExCor=  402 diagonalized for initial guess.
 ExpMin= 7.10D-03 ExpMax= 3.53D+04 ExpMxC= 5.30D+03 IAcc=3 IRadAn=         5 AccDes= 0.00D+00
 HarFok:  IExCor= 402 AccDes= 0.00D+00 IRadAn=         5 IDoV=1
 ScaDFX=  1.000000  1.000000  1.000000  1.000000
 Initial guess orbital symmetries:
       Occupied  (A) (A) (A) (A) (A) (A) (A) (A) (A) (A) (A) (A)
                 (A) (A) (A) (A) (A) (A) (A) (A) (A) (A) (A) (A)
                 (A) (A) (A) (A) (A) (A) (A) (A) (A) (A) (A) (A)
                 (A) (A) (A)
       Virtual   (A) (A) (A) (A) (A) (A) (A) (A) (A) (A) (A) (A)
                 (A) (A) (A) (A) (A) (A) (A) (A) (A) (A) (A) (A)
                 (A) (A) (A) (A) (A) (A) (A) (A) (A) (A) (A) (A)
                 (A) (A) (A) (A) (A) (A) (A) (A) (A) (A) (A) (A)
                 (A) (A) (A) (A) (A) (A) (A) (A) (A) (A) (A) (A)
                 (A) (A) (A) (A) (A) (A) (A) (A) (A) (A) (A) (A)
                 (A) (A) (A) (A) (A) (A) (A) (A) (A) (A) (A) (A)
                 (A) (A) (A) (A) (A) (A) (A) (A) (A) (A) (A)
 The electronic state of the initial guess is 1-A.
 Requested convergence on RMS density matrix=1.00D-04 within 128 cycles.
 Requested convergence on MAX density matrix=1.00D-02.
 Requested convergence on             energy=1.00D-02.
 No special actions if energy rises.
 Keep R1 integrals in memory in canonical form, NReq=    43203127.
 SCF Done:  E(RB+HF-LYP) =  -1922.10492678     A.U. after    9 cycles
             Convg  =    0.5225D-04             -V/T =  2.0029
             S**2   =   0.0000

 **********************************************************************

            Population analysis using the SCF density.

 **********************************************************************

 Orbital symmetries:
       Occupied  (A) (A) (A) (A) (A) (A) (A) (A) (A) (A) (A) (A)
                 (A) (A) (A) (A) (A) (A) (A) (A) (A) (A) (A) (A)
                 (A) (A) (A) (A) (A) (A) (A) (A) (A) (A) (A) (A)
                 (A) (A) (A)
       Virtual   (A) (A) (A) (A) (A) (A) (A) (A) (A) (A) (A) (A)
                 (A) (A) (A) (A) (A) (A) (A) (A) (A) (A) (A) (A)
                 (A) (A) (A) (A) (A) (A) (A) (A) (A) (A) (A) (A)
                 (A) (A) (A) (A) (A) (A) (A) (A) (A) (A) (A) (A)
                 (A) (A) (A) (A) (A) (A) (A) (A) (A) (A) (A) (A)
                 (A) (A) (A) (A) (A) (A) (A) (A) (A) (A) (A) (A)
                 (A) (A) (A) (A) (A) (A) (A) (A) (A) (A) (A) (A)
                 (A) (A) (A) (A) (A) (A) (A) (A) (A) (A) (A)
 The electronic state is 1-A.
 Alpha  occ. eigenvalues -- -145.57785-145.54909 -77.26332 -19.22778 -19.22690
 Alpha  occ. eigenvalues --  -19.21838 -15.64610 -15.61718 -12.77850 -12.77756
 Alpha  occ. eigenvalues --  -12.77741 -12.74904 -12.74894 -12.74880  -6.71707
 Alpha  occ. eigenvalues --   -4.88054  -4.88018  -4.87591  -2.01596  -1.98714
 Alpha  occ. eigenvalues --   -1.29327  -1.28950  -1.28655  -1.26546  -1.25956
 Alpha  occ. eigenvalues --   -1.25953  -1.08723  -1.02512  -1.00428  -0.63348
 Alpha  occ. eigenvalues --   -0.50761  -0.50400  -0.50204  -0.44672  -0.43279
 Alpha  occ. eigenvalues --   -0.40102  -0.38493  -0.36469  -0.33910
 Alpha virt. eigenvalues --   -0.24119  -0.21783  -0.16319  -0.14446  -0.13106
 Alpha virt. eigenvalues --   -0.12337  -0.10460  -0.08309  -0.08099  -0.07090
 Alpha virt. eigenvalues --   -0.06604  -0.06404  -0.05488  -0.05411  -0.04906
 Alpha virt. eigenvalues --   -0.04524  -0.04347  -0.03609  -0.02544  -0.01875
 Alpha virt. eigenvalues --   -0.01266   0.00052   0.00727   0.02054   0.02110
 Alpha virt. eigenvalues --    0.02191   0.02749   0.03652   0.04208   0.04328
 Alpha virt. eigenvalues --    0.04858   0.05785   0.06511   0.07153   0.07719
 Alpha virt. eigenvalues --    0.08601   0.11476   0.12599   0.15249   0.16905
 Alpha virt. eigenvalues --    0.18391   0.18462   0.19270   0.20502   0.22382
 Alpha virt. eigenvalues --    0.23338   0.25943   0.28538   0.30777   0.31395
 Alpha virt. eigenvalues --    0.32033   0.36871   0.37591   0.41997   0.42199
 Alpha virt. eigenvalues --    0.45115   0.52844   0.57689   0.58746   0.74157
 Alpha virt. eigenvalues --    0.80866   0.85762   0.86256   0.94700   1.10415
 Alpha virt. eigenvalues --    1.10898   1.14892   1.17787   1.18963   1.20479
 Alpha virt. eigenvalues --    1.23349   1.25833   1.26359   1.46910   1.48408
 Alpha virt. eigenvalues --    1.68474   1.69337   1.74603   1.75824   1.77121
 Alpha virt. eigenvalues --    1.77984   1.81742   1.81758   1.83698   1.90142
 Alpha virt. eigenvalues --    1.91983   1.98935   2.08781   2.34713   2.44990
 Alpha virt. eigenvalues --    2.69361   3.49111   3.99299   4.01176   4.15370
          Condensed to atoms (all electrons):
              1          2          3          4          5          6
     1  O    8.621810   0.000473   0.000596   0.129987   0.075586   0.025461
     2  O    0.000473   8.921281   0.063144  -0.286208   0.047357   0.153289
     3  O    0.000596   0.063144   8.923102  -0.286282   0.047247   0.153085
     4  P    0.129987  -0.286208  -0.286282  14.501570   0.158796  -0.035703
     5  Ca   0.075586   0.047357   0.047247   0.158796  18.311350  -0.019151
     6  Ca   0.025461   0.153289   0.153085  -0.035703  -0.019151  18.265533
 Mulliken atomic charges:
              1
     1  O   -0.853912
     2  O   -0.899336
     3  O   -0.900892
     4  P    0.817841
     5  Ca   1.378815
     6  Ca   1.457485
 Sum of Mulliken charges=   1.00000
 Atomic charges with hydrogens summed into heavy atoms:
              1
     1  O   -0.853912
     2  O   -0.899336
     3  O   -0.900892
     4  P    0.817841
     5  Ca   1.378815
     6  Ca   1.457485
 Sum of Mulliken charges=   1.00000
 Electronic spatial extent (au):  <R**2>=   965.9230
 Charge=     1.0000 electrons
 Dipole moment (field-independent basis, Debye):
    X=     6.1674    Y=   -11.0989    Z=     0.0087  Tot=    12.6974
 Quadrupole moment (field-independent basis, Debye-Ang):
   XX=    -5.5024   YY=   -45.8912   ZZ=   -64.1619
   XY=    11.4023   XZ=    -0.0018   YZ=    -0.0026
 Traceless Quadrupole moment (field-independent basis, Debye-Ang):
   XX=    33.0161   YY=    -7.3727   ZZ=   -25.6433
   XY=    11.4023   XZ=    -0.0018   YZ=    -0.0026
 Octapole moment (field-independent basis, Debye-Ang**2):
  XXX=    75.6680  YYY=   -39.2436  ZZZ=     0.0025  XYY=    -5.5466
  XXY=   -55.9797  XXZ=     0.0036  XZZ=    -0.9322  YZZ=    -6.9488
  YYZ=     0.0048  XYZ=     0.0001
 Hexadecapole moment (field-independent basis, Debye-Ang**3):
 XXXX=  -351.4047 YYYY=  -293.6806 ZZZZ=  -208.1829 XXXY=    44.2018
 XXXZ=    -0.0145 YYYX=    29.1050 YYYZ=     0.0092 ZZZX=    -0.0065
 ZZZY=    -0.0093 XXYY=  -128.8053 XXZZ=  -124.9383 YYZZ=   -77.9710
 XXYZ=    -0.0016 YYXZ=    -0.0042 ZZXY=     5.0565
 N-N= 5.302222205410D+02 E-N=-5.602604666369D+03  KE= 1.916595574312D+03
 Merz-Kollman atomic radii used.
 Read replacement radii for each type of atom:
 Rad(20) =   1.188000000000D+00
 Atom Element Radius
    1     8    1.40
    2     8    1.40
    3     8    1.40
    4    15    1.80
    5    20    1.19
    6    20    1.19

 **********************************************************************

            Electrostatic Properties Using The SCF Density

 **********************************************************************

       Atomic Center    1 is at  -1.682074  1.206123 -0.000171
       Atomic Center    2 is at   0.259860  0.015480  1.206589
       Atomic Center    3 is at   0.259670  0.014600 -1.206461
       Atomic Center    4 is at  -0.119224  1.182839 -0.000201
       Atomic Center    5 is at  -1.590916 -1.037987  0.000159
       Atomic Center    6 is at   2.145351 -0.343623  0.000009
     582 points will be used for fitting atomic charges
 Fitting point charges to eletrostatic potential
 Charges from ESP fit, RMS=   0.00826 RRMS=   0.04757:
 Charge=   1.00000 Dipole=     6.2004   -11.3871     0.0087 Tot=    12.9658
              1
     1  O   -0.545150
     2  O   -1.020438
     3  O   -1.021830
     4  P    0.417211
     5  Ca   1.564946
     6  Ca   1.605263
 -----------------------------------------------------------------

              Electrostatic Properties (Atomic Units)

 -----------------------------------------------------------------
    Center     Electric         -------- Electric Field --------
               Potential          X             Y             Z
 -----------------------------------------------------------------
    1 Atom    -22.246610
    2 Atom    -22.236732
    3 Atom    -22.239137
    4 Atom    -53.950124
    5 Atom    -79.992733
    6 Atom    -79.963693
 -----------------------------------------------------------------
 1\1\GINC-N022\SP\RB3LYP\6-31+G(d,p)\Ca2O3P1(1+)\TIMN\12-Jun-2015\0\\# 
 b3lyp/6-31+G(d,p) int=ultrafine pop=(ReadRadii,MK)\\Ca2PO3_8.mol2_plus
 Q.out.z51559.zip.xyz\\1,1\O,0,-1.68207,1.20613,-0.00017\O,0,0.25986,0.
 01548,1.20659\O,0,0.25967,0.0146,-1.20646\P,0,-0.11922,1.18284,-0.0002
 \Ca,0,-1.59092,-1.03798,0.00016\Ca,0,2.14535,-0.34363,0.00001\\Version
 =EM64T-G03RevE.01\State=1-A\HF=-1922.1049268\RMSD=5.225e-05\Thermal=0.
 \Dipole=2.4264377,-4.366664,0.003438\PG=C01 [X(Ca2O3P1)]\\@


 FORGIVE MY NONSENSE AS I ALSO FORGIVE THOSE WHO THINK THEY TALK SENSE

                                                       -- ROBERT FROST
 Job cpu time:  0 days  0 hours  0 minutes 36.6 seconds.
 File lengths (MBytes):  RWF=     22 Int=      0 D2E=      0 Chk=     10 Scr=      1
 Normal termination of Gaussian 03 at Fri Jun 12 17:35:13 2015.
