 Entering Gaussian System, Link 0=/home/timn/tmp/g03.e01/g03
 Input=Ca2PO3_30.mol2_plusQ.out.z51551.zip.xyz.gjf
 Output=Ca2PO3_30.mol2_plusQ.out.z51551.zip.xyz.out
 Initial command:
 /home/timn/tmp/g03.e01/l1.exe /home/timn/tmp/g03.e01/Gau-11402.inp -scrdir=/home/timn/tmp/g03.e01/
 Default is to use a total of   2 processors:
                                2 via shared-memory
                                1 via Linda
 Entering Link 1 = /home/timn/tmp/g03.e01/l1.exe PID=     11404.
  
 Copyright (c) 1988,1990,1992,1993,1995,1998,2003,2004,2007, Gaussian, Inc.
                  All Rights Reserved.
  
 This is the Gaussian(R) 03 program.  It is based on the
 the Gaussian(R) 98 system (copyright 1998, Gaussian, Inc.),
 the Gaussian(R) 94 system (copyright 1995, Gaussian, Inc.),
 the Gaussian 92(TM) system (copyright 1992, Gaussian, Inc.),
 the Gaussian 90(TM) system (copyright 1990, Gaussian, Inc.),
 the Gaussian 88(TM) system (copyright 1988, Gaussian, Inc.),
 the Gaussian 86(TM) system (copyright 1986, Carnegie Mellon
 University), and the Gaussian 82(TM) system (copyright 1983,
 Carnegie Mellon University). Gaussian is a federally registered
 trademark of Gaussian, Inc.
  
 This software contains proprietary and confidential information,
 including trade secrets, belonging to Gaussian, Inc.
  
 This software is provided under written license and may be
 used, copied, transmitted, or stored only in accord with that
 written license.
  
 The following legend is applicable only to US Government
 contracts under FAR:
  
                    RESTRICTED RIGHTS LEGEND
  
 Use, reproduction and disclosure by the US Government is
 subject to restrictions as set forth in subparagraphs (a)
 and (c) of the Commercial Computer Software - Restricted
 Rights clause in FAR 52.227-19.
  
 Gaussian, Inc.
 340 Quinnipiac St., Bldg. 40, Wallingford CT 06492
  
  
 ---------------------------------------------------------------
 Warning -- This program may not be used in any manner that
 competes with the business of Gaussian, Inc. or will provide
 assistance to any competitor of Gaussian, Inc.  The licensee
 of this program is prohibited from giving any competitor of
 Gaussian, Inc. access to this program.  By using this program,
 the user acknowledges that Gaussian, Inc. is engaged in the
 business of creating and licensing software in the field of
 computational chemistry and represents and warrants to the
 licensee that it is not a competitor of Gaussian, Inc. and that
 it will not use this program in any manner prohibited above.
 ---------------------------------------------------------------
  

 Cite this work as:
 Gaussian 03, Revision E.01,
 M. J. Frisch, G. W. Trucks, H. B. Schlegel, G. E. Scuseria, 
 M. A. Robb, J. R. Cheeseman, J. A. Montgomery, Jr., T. Vreven, 
 K. N. Kudin, J. C. Burant, J. M. Millam, S. S. Iyengar, J. Tomasi, 
 V. Barone, B. Mennucci, M. Cossi, G. Scalmani, N. Rega, 
 G. A. Petersson, H. Nakatsuji, M. Hada, M. Ehara, K. Toyota, 
 R. Fukuda, J. Hasegawa, M. Ishida, T. Nakajima, Y. Honda, O. Kitao, 
 H. Nakai, M. Klene, X. Li, J. E. Knox, H. P. Hratchian, J. B. Cross, 
 V. Bakken, C. Adamo, J. Jaramillo, R. Gomperts, R. E. Stratmann, 
 O. Yazyev, A. J. Austin, R. Cammi, C. Pomelli, J. W. Ochterski, 
 P. Y. Ayala, K. Morokuma, G. A. Voth, P. Salvador, J. J. Dannenberg, 
 V. G. Zakrzewski, S. Dapprich, A. D. Daniels, M. C. Strain, 
 O. Farkas, D. K. Malick, A. D. Rabuck, K. Raghavachari, 
 J. B. Foresman, J. V. Ortiz, Q. Cui, A. G. Baboul, S. Clifford, 
 J. Cioslowski, B. B. Stefanov, G. Liu, A. Liashenko, P. Piskorz, 
 I. Komaromi, R. L. Martin, D. J. Fox, T. Keith, M. A. Al-Laham, 
 C. Y. Peng, A. Nanayakkara, M. Challacombe, P. M. W. Gill, 
 B. Johnson, W. Chen, M. W. Wong, C. Gonzalez, and J. A. Pople, 
 Gaussian, Inc., Wallingford CT, 2004.
 
 ******************************************
 Gaussian 03:  EM64T-G03RevE.01 11-Sep-2007
                12-Jun-2015 
 ******************************************
 %nproc=2
 Will use up to    2 processors via shared memory.
 Default route:  MP2=Direct MaxDisk=2000MB
 ----------------------------------------------------
 # b3lyp/6-31+G(d,p) int=ultrafine pop=(ReadRadii,MK)
 ----------------------------------------------------

 Warning!  SCF SP cutoffs with diffuse functions may be unreliable.
 Consider SCF=Tight

 1/38=1/1;
 2/17=6,18=5,40=1/2;
 3/5=1,6=6,7=111,11=2,16=1,25=1,30=1,74=-5,75=5/1,2,3;
 4//1;
 5/5=2,32=1,38=5/2;
 6/7=2,8=2,9=2,10=2,15=8,20=101,28=1/1,2;
 99/5=1,9=1/99;
 ---------------------------------------
 Ca2PO3_30.mol2_plusQ.out.z51551.zip.xyz
 ---------------------------------------
 Symbolic Z-matrix:
 Charge =  1 Multiplicity = 1
 O                    -1.32743   1.24759  -0.40878 
 O                    -0.00005  -0.72473   0.57436 
 O                     1.32755   1.24768  -0.4085 
 P                     0.00006   1.11914   0.45753 
 Ca                   -2.1267   -0.77373  -0.12296 
 Ca                    2.12662  -0.77384  -0.12303 
 
                          Input orientation:                          
 ---------------------------------------------------------------------
 Center     Atomic     Atomic              Coordinates (Angstroms)
 Number     Number      Type              X           Y           Z
 ---------------------------------------------------------------------
    1          8             0       -1.327430    1.247590   -0.408780
    2          8             0       -0.000050   -0.724730    0.574360
    3          8             0        1.327550    1.247680   -0.408500
    4         15             0        0.000060    1.119140    0.457530
    5         20             0       -2.126700   -0.773730   -0.122960
    6         20             0        2.126620   -0.773840   -0.123030
 ---------------------------------------------------------------------
                    Distance matrix (angstroms):
                    1          2          3          4          5
     1  O    0.000000
     2  O    2.572654   0.000000
     3  O    2.654980   2.572729   0.000000
     4  P    1.590353   1.847568   1.590208   0.000000
     5  Ca   2.192318   2.238593   4.012415   2.905690   0.000000
     6  Ca   4.012268   2.238636   2.192384   2.905629   4.253320
                    6
     6  Ca   0.000000
 Stoichiometry    Ca2O3P(1+)
 Framework group  C1[X(Ca2O3P)]
 Deg. of freedom    12
 Full point group                 C1
 Largest Abelian subgroup         C1      NOp   1
 Largest concise Abelian subgroup C1      NOp   1
                         Standard orientation:                         
 ---------------------------------------------------------------------
 Center     Atomic     Atomic              Coordinates (Angstroms)
 Number     Number      Type              X           Y           Z
 ---------------------------------------------------------------------
    1          8             0       -1.327428    1.247590   -0.408777
    2          8             0       -0.000048   -0.724730    0.574363
    3          8             0        1.327552    1.247680   -0.408497
    4         15             0        0.000062    1.119140    0.457533
    5         20             0       -2.126698   -0.773730   -0.122957
    6         20             0        2.126622   -0.773840   -0.123027
 ---------------------------------------------------------------------
 Rotational constants (GHZ):      3.0976983      1.1587068      0.8981511
 Standard basis: 6-31+G(d,p) (6D, 7F)
 There are   134 symmetry adapted basis functions of A   symmetry.
 Integral buffers will be    131072 words long.
 Raffenetti 2 integral format.
 Two-electron integral symmetry is turned on.
   134 basis functions,   312 primitive gaussians,   134 cartesian basis functions
    39 alpha electrons       39 beta electrons
       nuclear repulsion energy       507.4414198557 Hartrees.
 NAtoms=    6 NActive=    6 NUniq=    6 SFac= 7.50D-01 NAtFMM=   80 NAOKFM=F Big=F
 One-electron integrals computed using PRISM.
 NBasis=   134 RedAO= T  NBF=   134
 NBsUse=   134 1.00D-06 NBFU=   134
 Harris functional with IExCor=  402 diagonalized for initial guess.
 ExpMin= 7.10D-03 ExpMax= 3.53D+04 ExpMxC= 5.30D+03 IAcc=3 IRadAn=         5 AccDes= 0.00D+00
 HarFok:  IExCor= 402 AccDes= 0.00D+00 IRadAn=         5 IDoV=1
 ScaDFX=  1.000000  1.000000  1.000000  1.000000
 Initial guess orbital symmetries:
       Occupied  (A) (A) (A) (A) (A) (A) (A) (A) (A) (A) (A) (A)
                 (A) (A) (A) (A) (A) (A) (A) (A) (A) (A) (A) (A)
                 (A) (A) (A) (A) (A) (A) (A) (A) (A) (A) (A) (A)
                 (A) (A) (A)
       Virtual   (A) (A) (A) (A) (A) (A) (A) (A) (A) (A) (A) (A)
                 (A) (A) (A) (A) (A) (A) (A) (A) (A) (A) (A) (A)
                 (A) (A) (A) (A) (A) (A) (A) (A) (A) (A) (A) (A)
                 (A) (A) (A) (A) (A) (A) (A) (A) (A) (A) (A) (A)
                 (A) (A) (A) (A) (A) (A) (A) (A) (A) (A) (A) (A)
                 (A) (A) (A) (A) (A) (A) (A) (A) (A) (A) (A) (A)
                 (A) (A) (A) (A) (A) (A) (A) (A) (A) (A) (A) (A)
                 (A) (A) (A) (A) (A) (A) (A) (A) (A) (A) (A)
 The electronic state of the initial guess is 1-A.
 Requested convergence on RMS density matrix=1.00D-04 within 128 cycles.
 Requested convergence on MAX density matrix=1.00D-02.
 Requested convergence on             energy=1.00D-02.
 No special actions if energy rises.
 Keep R1 integrals in memory in canonical form, NReq=    43203134.
 SCF Done:  E(RB+HF-LYP) =  -1922.11511705     A.U. after    9 cycles
             Convg  =    0.2535D-04             -V/T =  2.0029
             S**2   =   0.0000

 **********************************************************************

            Population analysis using the SCF density.

 **********************************************************************

 Orbital symmetries:
       Occupied  (A) (A) (A) (A) (A) (A) (A) (A) (A) (A) (A) (A)
                 (A) (A) (A) (A) (A) (A) (A) (A) (A) (A) (A) (A)
                 (A) (A) (A) (A) (A) (A) (A) (A) (A) (A) (A) (A)
                 (A) (A) (A)
       Virtual   (A) (A) (A) (A) (A) (A) (A) (A) (A) (A) (A) (A)
                 (A) (A) (A) (A) (A) (A) (A) (A) (A) (A) (A) (A)
                 (A) (A) (A) (A) (A) (A) (A) (A) (A) (A) (A) (A)
                 (A) (A) (A) (A) (A) (A) (A) (A) (A) (A) (A) (A)
                 (A) (A) (A) (A) (A) (A) (A) (A) (A) (A) (A) (A)
                 (A) (A) (A) (A) (A) (A) (A) (A) (A) (A) (A) (A)
                 (A) (A) (A) (A) (A) (A) (A) (A) (A) (A) (A) (A)
                 (A) (A) (A) (A) (A) (A) (A) (A) (A) (A) (A)
 The electronic state is 1-A.
 Alpha  occ. eigenvalues -- -145.55250-145.55246 -77.25376 -19.23090 -19.21329
 Alpha  occ. eigenvalues --  -19.21317 -15.62118 -15.62114 -12.75350 -12.75347
 Alpha  occ. eigenvalues --  -12.75254 -12.75250 -12.75249 -12.75245  -6.70498
 Alpha  occ. eigenvalues --   -4.86939  -4.86770  -4.86350  -1.99210  -1.99204
 Alpha  occ. eigenvalues --   -1.26924  -1.26867  -1.26820  -1.26552  -1.26386
 Alpha  occ. eigenvalues --   -1.26231  -1.07511  -1.02040  -0.99993  -0.62159
 Alpha  occ. eigenvalues --   -0.50867  -0.50189  -0.47809  -0.45053  -0.41388
 Alpha  occ. eigenvalues --   -0.38990  -0.38574  -0.38398  -0.30814
 Alpha virt. eigenvalues --   -0.22939  -0.22530  -0.15326  -0.13941  -0.13374
 Alpha virt. eigenvalues --   -0.12381  -0.11218  -0.09563  -0.07960  -0.06772
 Alpha virt. eigenvalues --   -0.05900  -0.05584  -0.05237  -0.04657  -0.04652
 Alpha virt. eigenvalues --   -0.04395  -0.03668  -0.02904  -0.02284  -0.01334
 Alpha virt. eigenvalues --   -0.00720   0.00911   0.01016   0.01554   0.02563
 Alpha virt. eigenvalues --    0.02845   0.03286   0.03339   0.04001   0.04129
 Alpha virt. eigenvalues --    0.04954   0.05637   0.05960   0.07331   0.07537
 Alpha virt. eigenvalues --    0.08499   0.09901   0.11105   0.14700   0.16356
 Alpha virt. eigenvalues --    0.18865   0.19202   0.20699   0.21508   0.22024
 Alpha virt. eigenvalues --    0.23226   0.25402   0.28515   0.29898   0.31321
 Alpha virt. eigenvalues --    0.34333   0.36363   0.38500   0.40284   0.42987
 Alpha virt. eigenvalues --    0.45349   0.58234   0.62657   0.65990   0.67339
 Alpha virt. eigenvalues --    0.78807   0.83602   0.88090   0.95266   1.10590
 Alpha virt. eigenvalues --    1.15220   1.16169   1.17257   1.19169   1.20607
 Alpha virt. eigenvalues --    1.21679   1.22785   1.24246   1.47152   1.51606
 Alpha virt. eigenvalues --    1.58540   1.71451   1.74293   1.75075   1.75955
 Alpha virt. eigenvalues --    1.79034   1.82376   1.83915   1.86253   1.89063
 Alpha virt. eigenvalues --    1.94495   1.98048   2.09237   2.20815   2.60142
 Alpha virt. eigenvalues --    2.67750   3.48946   3.96680   3.99317   4.02849
          Condensed to atoms (all electrons):
              1          2          3          4          5          6
     1  O    8.862859   0.022795   0.080306  -0.332304   0.147391   0.017474
     2  O    0.022795   9.061903   0.022770  -0.228559   0.094880   0.094879
     3  O    0.080306   0.022770   8.862578  -0.332285   0.017485   0.147401
     4  P   -0.332304  -0.228559  -0.332285  15.049773   0.018543   0.018570
     5  Ca   0.147391   0.094880   0.017485   0.018543  18.284486   0.007586
     6  Ca   0.017474   0.094879   0.147401   0.018570   0.007586  18.284534
 Mulliken atomic charges:
              1
     1  O   -0.798520
     2  O   -1.068668
     3  O   -0.798255
     4  P    0.806261
     5  Ca   1.429628
     6  Ca   1.429554
 Sum of Mulliken charges=   1.00000
 Atomic charges with hydrogens summed into heavy atoms:
              1
     1  O   -0.798520
     2  O   -1.068668
     3  O   -0.798255
     4  P    0.806261
     5  Ca   1.429628
     6  Ca   1.429554
 Sum of Mulliken charges=   1.00000
 Electronic spatial extent (au):  <R**2>=  1114.5648
 Charge=     1.0000 electrons
 Dipole moment (field-independent basis, Debye):
    X=     0.0007    Y=   -13.0194    Z=    -1.2203  Tot=    13.0765
 Quadrupole moment (field-independent basis, Debye-Ang):
   XX=     4.3708   YY=   -53.9027   ZZ=   -56.6513
   XY=     0.0010   XZ=    -0.0025   YZ=     6.3180
 Traceless Quadrupole moment (field-independent basis, Debye-Ang):
   XX=    39.7652   YY=   -18.5083   ZZ=   -21.2569
   XY=     0.0010   XZ=    -0.0025   YZ=     6.3180
 Octapole moment (field-independent basis, Debye-Ang**2):
  XXX=    -0.0141  YYY=   -35.7529  ZZZ=    -8.7819  XYY=     0.0030
  XXY=   -81.8736  XXZ=    -2.6927  XZZ=     0.0008  YZZ=   -12.3262
  YYZ=    -2.3197  XYZ=    -0.0012
 Hexadecapole moment (field-independent basis, Debye-Ang**3):
 XXXX=  -391.7497 YYYY=  -376.2154 ZZZZ=  -126.7901 XXXY=    -0.0001
 XXXZ=    -0.0078 YYYX=     0.0006 YYYZ=     7.1093 ZZZX=    -0.0024
 ZZZY=     0.8594 XXYY=  -160.1312 XXZZ=  -135.8649 YYZZ=   -89.3897
 XXYZ=    14.2521 YYXZ=    -0.0033 ZZXY=     0.0015
 N-N= 5.074414198557D+02 E-N=-5.557774341558D+03  KE= 1.916580919867D+03
 Merz-Kollman atomic radii used.
 Read replacement radii for each type of atom:
 Rad(20) =   1.188000000000D+00
 Atom Element Radius
    1     8    1.40
    2     8    1.40
    3     8    1.40
    4    15    1.80
    5    20    1.19
    6    20    1.19

 **********************************************************************

            Electrostatic Properties Using The SCF Density

 **********************************************************************

       Atomic Center    1 is at  -1.327428  1.247590 -0.408777
       Atomic Center    2 is at  -0.000048 -0.724730  0.574363
       Atomic Center    3 is at   1.327552  1.247680 -0.408497
       Atomic Center    4 is at   0.000062  1.119140  0.457533
       Atomic Center    5 is at  -2.126698 -0.773730 -0.122957
       Atomic Center    6 is at   2.126622 -0.773840 -0.123027
     609 points will be used for fitting atomic charges
 Fitting point charges to eletrostatic potential
 Charges from ESP fit, RMS=   0.00901 RRMS=   0.05272:
 Charge=   1.00000 Dipole=    -0.0163   -13.5948    -1.3959 Tot=    13.6663
              1
     1  O   -0.719541
     2  O   -1.227632
     3  O   -0.716793
     4  P    0.479197
     5  Ca   1.594010
     6  Ca   1.590760
 -----------------------------------------------------------------

              Electrostatic Properties (Atomic Units)

 -----------------------------------------------------------------
    Center     Electric         -------- Electric Field --------
               Potential          X             Y             Z
 -----------------------------------------------------------------
    1 Atom    -22.252163
    2 Atom    -22.235199
    3 Atom    -22.251767
    4 Atom    -53.960602
    5 Atom    -79.989247
    6 Atom    -79.989224
 -----------------------------------------------------------------
 1\1\GINC-N034\SP\RB3LYP\6-31+G(d,p)\Ca2O3P1(1+)\TIMN\12-Jun-2015\0\\# 
 b3lyp/6-31+G(d,p) int=ultrafine pop=(ReadRadii,MK)\\Ca2PO3_30.mol2_plu
 sQ.out.z51551.zip.xyz\\1,1\O,0,-1.32743,1.24759,-0.40878\O,0,-0.00005,
 -0.72473,0.57436\O,0,1.32755,1.24768,-0.4085\P,0,0.00006,1.11914,0.457
 53\Ca,0,-2.1267,-0.77373,-0.12296\Ca,0,2.12662,-0.77384,-0.12303\\Vers
 ion=EM64T-G03RevE.01\State=1-A\HF=-1922.1151171\RMSD=2.535e-05\Thermal
 =0.\Dipole=0.0002859,-5.1222247,-0.4801008\PG=C01 [X(Ca2O3P1)]\\@


 IT IS NOT EASY TO DESCRIBE
     THE SEA WITH THE MOUTH

                   -- KOKYU
 Job cpu time:  0 days  0 hours  0 minutes 35.7 seconds.
 File lengths (MBytes):  RWF=     22 Int=      0 D2E=      0 Chk=     10 Scr=      1
 Normal termination of Gaussian 03 at Fri Jun 12 17:34:40 2015.
