 Entering Gaussian System, Link 0=/home/timn/tmp/g03.e01/g03
 Input=Ca2PO3_31.mol2_plusQ.out.z51552.zip.xyz.gjf
 Output=Ca2PO3_31.mol2_plusQ.out.z51552.zip.xyz.out
 Initial command:
 /home/timn/tmp/g03.e01/l1.exe /home/timn/tmp/g03.e01/Gau-11403.inp -scrdir=/home/timn/tmp/g03.e01/
 Default is to use a total of   2 processors:
                                2 via shared-memory
                                1 via Linda
 Entering Link 1 = /home/timn/tmp/g03.e01/l1.exe PID=     11405.
  
 Copyright (c) 1988,1990,1992,1993,1995,1998,2003,2004,2007, Gaussian, Inc.
                  All Rights Reserved.
  
 This is the Gaussian(R) 03 program.  It is based on the
 the Gaussian(R) 98 system (copyright 1998, Gaussian, Inc.),
 the Gaussian(R) 94 system (copyright 1995, Gaussian, Inc.),
 the Gaussian 92(TM) system (copyright 1992, Gaussian, Inc.),
 the Gaussian 90(TM) system (copyright 1990, Gaussian, Inc.),
 the Gaussian 88(TM) system (copyright 1988, Gaussian, Inc.),
 the Gaussian 86(TM) system (copyright 1986, Carnegie Mellon
 University), and the Gaussian 82(TM) system (copyright 1983,
 Carnegie Mellon University). Gaussian is a federally registered
 trademark of Gaussian, Inc.
  
 This software contains proprietary and confidential information,
 including trade secrets, belonging to Gaussian, Inc.
  
 This software is provided under written license and may be
 used, copied, transmitted, or stored only in accord with that
 written license.
  
 The following legend is applicable only to US Government
 contracts under FAR:
  
                    RESTRICTED RIGHTS LEGEND
  
 Use, reproduction and disclosure by the US Government is
 subject to restrictions as set forth in subparagraphs (a)
 and (c) of the Commercial Computer Software - Restricted
 Rights clause in FAR 52.227-19.
  
 Gaussian, Inc.
 340 Quinnipiac St., Bldg. 40, Wallingford CT 06492
  
  
 ---------------------------------------------------------------
 Warning -- This program may not be used in any manner that
 competes with the business of Gaussian, Inc. or will provide
 assistance to any competitor of Gaussian, Inc.  The licensee
 of this program is prohibited from giving any competitor of
 Gaussian, Inc. access to this program.  By using this program,
 the user acknowledges that Gaussian, Inc. is engaged in the
 business of creating and licensing software in the field of
 computational chemistry and represents and warrants to the
 licensee that it is not a competitor of Gaussian, Inc. and that
 it will not use this program in any manner prohibited above.
 ---------------------------------------------------------------
  

 Cite this work as:
 Gaussian 03, Revision E.01,
 M. J. Frisch, G. W. Trucks, H. B. Schlegel, G. E. Scuseria, 
 M. A. Robb, J. R. Cheeseman, J. A. Montgomery, Jr., T. Vreven, 
 K. N. Kudin, J. C. Burant, J. M. Millam, S. S. Iyengar, J. Tomasi, 
 V. Barone, B. Mennucci, M. Cossi, G. Scalmani, N. Rega, 
 G. A. Petersson, H. Nakatsuji, M. Hada, M. Ehara, K. Toyota, 
 R. Fukuda, J. Hasegawa, M. Ishida, T. Nakajima, Y. Honda, O. Kitao, 
 H. Nakai, M. Klene, X. Li, J. E. Knox, H. P. Hratchian, J. B. Cross, 
 V. Bakken, C. Adamo, J. Jaramillo, R. Gomperts, R. E. Stratmann, 
 O. Yazyev, A. J. Austin, R. Cammi, C. Pomelli, J. W. Ochterski, 
 P. Y. Ayala, K. Morokuma, G. A. Voth, P. Salvador, J. J. Dannenberg, 
 V. G. Zakrzewski, S. Dapprich, A. D. Daniels, M. C. Strain, 
 O. Farkas, D. K. Malick, A. D. Rabuck, K. Raghavachari, 
 J. B. Foresman, J. V. Ortiz, Q. Cui, A. G. Baboul, S. Clifford, 
 J. Cioslowski, B. B. Stefanov, G. Liu, A. Liashenko, P. Piskorz, 
 I. Komaromi, R. L. Martin, D. J. Fox, T. Keith, M. A. Al-Laham, 
 C. Y. Peng, A. Nanayakkara, M. Challacombe, P. M. W. Gill, 
 B. Johnson, W. Chen, M. W. Wong, C. Gonzalez, and J. A. Pople, 
 Gaussian, Inc., Wallingford CT, 2004.
 
 ******************************************
 Gaussian 03:  EM64T-G03RevE.01 11-Sep-2007
                12-Jun-2015 
 ******************************************
 %nproc=2
 Will use up to    2 processors via shared memory.
 Default route:  MP2=Direct MaxDisk=2000MB
 ----------------------------------------------------
 # b3lyp/6-31+G(d,p) int=ultrafine pop=(ReadRadii,MK)
 ----------------------------------------------------

 Warning!  SCF SP cutoffs with diffuse functions may be unreliable.
 Consider SCF=Tight

 1/38=1/1;
 2/17=6,18=5,40=1/2;
 3/5=1,6=6,7=111,11=2,16=1,25=1,30=1,74=-5,75=5/1,2,3;
 4//1;
 5/5=2,32=1,38=5/2;
 6/7=2,8=2,9=2,10=2,15=8,20=101,28=1/1,2;
 99/5=1,9=1/99;
 ---------------------------------------
 Ca2PO3_31.mol2_plusQ.out.z51552.zip.xyz
 ---------------------------------------
 Symbolic Z-matrix:
 Charge =  1 Multiplicity = 1
 O                     1.28179   1.274     0.00019 
 O                    -1.27272   1.28232  -0.00006 
 O                    -0.00661  -1.91771   0.00005 
 P                     0.00737   2.15041  -0.00004 
 Ca                    1.86831  -0.94038  -0.00005 
 Ca                   -1.87482  -0.92787   0.00001 
 
                          Input orientation:                          
 ---------------------------------------------------------------------
 Center     Atomic     Atomic              Coordinates (Angstroms)
 Number     Number      Type              X           Y           Z
 ---------------------------------------------------------------------
    1          8             0        1.281790    1.274000    0.000190
    2          8             0       -1.272720    1.282320   -0.000060
    3          8             0       -0.006610   -1.917710    0.000050
    4         15             0        0.007370    2.150410   -0.000040
    5         20             0        1.868310   -0.940380   -0.000050
    6         20             0       -1.874820   -0.927870    0.000010
 ---------------------------------------------------------------------
                    Distance matrix (angstroms):
                    1          2          3          4          5
     1  O    0.000000
     2  O    2.554524   0.000000
     3  O    3.441945   3.441399   0.000000
     4  P    1.546687   1.546677   4.068144   0.000000
     5  Ca   2.290739   3.847917   2.114355   3.607781   0.000000
     6  Ca   3.848690   2.290734   2.114236   3.608109   3.743151
                    6
     6  Ca   0.000000
 Stoichiometry    Ca2O3P(1+)
 Framework group  C1[X(Ca2O3P)]
 Deg. of freedom    12
 Full point group                 C1
 Largest Abelian subgroup         C1      NOp   1
 Largest concise Abelian subgroup C1      NOp   1
                         Standard orientation:                         
 ---------------------------------------------------------------------
 Center     Atomic     Atomic              Coordinates (Angstroms)
 Number     Number      Type              X           Y           Z
 ---------------------------------------------------------------------
    1          8             0        1.281834    1.273955    0.000189
    2          8             0       -1.272676    1.282364   -0.000061
    3          8             0       -0.006677   -1.917710    0.000049
    4         15             0        0.007445    2.150409   -0.000041
    5         20             0        1.868277   -0.940446   -0.000051
    6         20             0       -1.874853   -0.927805    0.000009
 ---------------------------------------------------------------------
 Rotational constants (GHZ):      1.5596595      1.5215391      0.7701818
 Standard basis: 6-31+G(d,p) (6D, 7F)
 There are   134 symmetry adapted basis functions of A   symmetry.
 Integral buffers will be    131072 words long.
 Raffenetti 2 integral format.
 Two-electron integral symmetry is turned on.
   134 basis functions,   312 primitive gaussians,   134 cartesian basis functions
    39 alpha electrons       39 beta electrons
       nuclear repulsion energy       473.2283091673 Hartrees.
 NAtoms=    6 NActive=    6 NUniq=    6 SFac= 7.50D-01 NAtFMM=   80 NAOKFM=F Big=F
 One-electron integrals computed using PRISM.
 NBasis=   134 RedAO= T  NBF=   134
 NBsUse=   134 1.00D-06 NBFU=   134
 Harris functional with IExCor=  402 diagonalized for initial guess.
 ExpMin= 7.10D-03 ExpMax= 3.53D+04 ExpMxC= 5.30D+03 IAcc=3 IRadAn=         5 AccDes= 0.00D+00
 HarFok:  IExCor= 402 AccDes= 0.00D+00 IRadAn=         5 IDoV=1
 ScaDFX=  1.000000  1.000000  1.000000  1.000000
 Initial guess orbital symmetries:
       Occupied  (A) (A) (A) (A) (A) (A) (A) (A) (A) (A) (A) (A)
                 (A) (A) (A) (A) (A) (A) (A) (A) (A) (A) (A) (A)
                 (A) (A) (A) (A) (A) (A) (A) (A) (A) (A) (A) (A)
                 (A) (A) (A)
       Virtual   (A) (A) (A) (A) (A) (A) (A) (A) (A) (A) (A) (A)
                 (A) (A) (A) (A) (A) (A) (A) (A) (A) (A) (A) (A)
                 (A) (A) (A) (A) (A) (A) (A) (A) (A) (A) (A) (A)
                 (A) (A) (A) (A) (A) (A) (A) (A) (A) (A) (A) (A)
                 (A) (A) (A) (A) (A) (A) (A) (A) (A) (A) (A) (A)
                 (A) (A) (A) (A) (A) (A) (A) (A) (A) (A) (A) (A)
                 (A) (A) (A) (A) (A) (A) (A) (A) (A) (A) (A) (A)
                 (A) (A) (A) (A) (A) (A) (A) (A) (A) (A) (A)
 The electronic state of the initial guess is 1-A.
 Requested convergence on RMS density matrix=1.00D-04 within 128 cycles.
 Requested convergence on MAX density matrix=1.00D-02.
 Requested convergence on             energy=1.00D-02.
 No special actions if energy rises.
 Keep R1 integrals in memory in canonical form, NReq=    43203134.
 EnCoef did     4 forward-backward iterations
 SCF Done:  E(RB+HF-LYP) =  -1922.13413618     A.U. after    7 cycles
             Convg  =    0.4817D-04             -V/T =  2.0029
             S**2   =   0.0000

 **********************************************************************

            Population analysis using the SCF density.

 **********************************************************************

 Orbital symmetries:
       Occupied  (A) (A) (A) (A) (A) (A) (A) (A) (A) (A) (A) (A)
                 (A) (A) (A) (A) (A) (A) (A) (A) (A) (A) (A) (A)
                 (A) (A) (A) (A) (A) (A) (A) (A) (A) (A) (A) (A)
                 (A) (A) (A)
       Virtual   (A) (A) (A) (A) (A) (A) (A) (A) (A) (A) (A) (A)
                 (A) (A) (A) (A) (A) (A) (A) (A) (A) (A) (A) (A)
                 (A) (A) (A) (A) (A) (A) (A) (A) (A) (A) (A) (A)
                 (A) (A) (A) (A) (A) (A) (A) (A) (A) (A) (A) (A)
                 (A) (A) (A) (A) (A) (A) (A) (A) (A) (A) (A) (A)
                 (A) (A) (A) (A) (A) (A) (A) (A) (A) (A) (A) (A)
                 (A) (A) (A) (A) (A) (A) (A) (A) (A) (A) (A) (A)
                 (A) (A) (A) (A) (A) (A) (A) (A) (A) (A) (A)
 The electronic state is 1-A.
 Alpha  occ. eigenvalues -- -145.52215-145.52213 -77.29926 -19.27738 -19.27726
 Alpha  occ. eigenvalues --  -19.15035 -15.59103 -15.59101 -12.72353 -12.72352
 Alpha  occ. eigenvalues --  -12.72278 -12.72276 -12.72179 -12.72176  -6.75408
 Alpha  occ. eigenvalues --   -4.91850  -4.91630  -4.91190  -1.96272  -1.96253
 Alpha  occ. eigenvalues --   -1.24082  -1.24061  -1.23943  -1.23742  -1.23416
 Alpha  occ. eigenvalues --   -1.22889  -1.13629  -1.08322  -0.89403  -0.67426
 Alpha  occ. eigenvalues --   -0.56978  -0.52455  -0.52385  -0.45562  -0.43667
 Alpha  occ. eigenvalues --   -0.40561  -0.35634  -0.33620  -0.33424
 Alpha virt. eigenvalues --   -0.20921  -0.19679  -0.19651  -0.12837  -0.11779
 Alpha virt. eigenvalues --   -0.11638  -0.10826  -0.10187  -0.07820  -0.07313
 Alpha virt. eigenvalues --   -0.06401  -0.05944  -0.05385  -0.04881  -0.04594
 Alpha virt. eigenvalues --   -0.04467  -0.04405  -0.04223  -0.04053  -0.03404
 Alpha virt. eigenvalues --   -0.02371   0.00300   0.01349   0.02135   0.03098
 Alpha virt. eigenvalues --    0.03996   0.04041   0.04413   0.05016   0.05444
 Alpha virt. eigenvalues --    0.05769   0.06860   0.07326   0.07501   0.07936
 Alpha virt. eigenvalues --    0.08483   0.09741   0.10526   0.14242   0.15052
 Alpha virt. eigenvalues --    0.17274   0.18359   0.19368   0.21140   0.22043
 Alpha virt. eigenvalues --    0.23434   0.25024   0.27306   0.30125   0.31649
 Alpha virt. eigenvalues --    0.31765   0.36711   0.37707   0.44099   0.45628
 Alpha virt. eigenvalues --    0.47684   0.56679   0.57489   0.62237   0.63254
 Alpha virt. eigenvalues --    0.64970   0.82582   0.90720   0.94475   1.05953
 Alpha virt. eigenvalues --    1.06300   1.07844   1.12509   1.15939   1.16934
 Alpha virt. eigenvalues --    1.22244   1.22553   1.24772   1.37401   1.39845
 Alpha virt. eigenvalues --    1.43134   1.66271   1.66503   1.71129   1.71632
 Alpha virt. eigenvalues --    1.80319   1.81391   1.82298   1.85276   1.85679
 Alpha virt. eigenvalues --    1.86394   1.93717   1.97763   2.08909   2.53563
 Alpha virt. eigenvalues --    2.67719   3.38668   3.82232   3.89918   3.93561
          Condensed to atoms (all electrons):
              1          2          3          4          5          6
     1  O    8.836869  -0.080670   0.000966  -0.109637   0.068058   0.000832
     2  O   -0.080670   8.836737   0.000952  -0.109634   0.000821   0.068045
     3  O    0.000966   0.000952   8.751241  -0.013043   0.229794   0.229786
     4  P   -0.109637  -0.109634  -0.013043  14.594949  -0.018728  -0.018713
     5  Ca   0.068058   0.000821   0.229794  -0.018728  18.247963  -0.006701
     6  Ca   0.000832   0.068045   0.229786  -0.018713  -0.006701  18.247983
 Mulliken atomic charges:
              1
     1  O   -0.716419
     2  O   -0.716251
     3  O   -1.199696
     4  P    0.674806
     5  Ca   1.478793
     6  Ca   1.478768
 Sum of Mulliken charges=   1.00000
 Atomic charges with hydrogens summed into heavy atoms:
              1
     1  O   -0.716419
     2  O   -0.716251
     3  O   -1.199696
     4  P    0.674806
     5  Ca   1.478793
     6  Ca   1.478768
 Sum of Mulliken charges=   1.00000
 Electronic spatial extent (au):  <R**2>=  1251.4478
 Charge=     1.0000 electrons
 Dipole moment (field-independent basis, Debye):
    X=    -0.0159    Y=    -3.9084    Z=    -0.0008  Tot=     3.9084
 Quadrupole moment (field-independent basis, Debye-Ang):
   XX=    -5.5482   YY=   -61.9164   ZZ=   -49.7216
   XY=    -0.1940   XZ=    -0.0021   YZ=     0.0006
 Traceless Quadrupole moment (field-independent basis, Debye-Ang):
   XX=    33.5139   YY=   -22.8544   ZZ=   -10.6595
   XY=    -0.1940   XZ=    -0.0021   YZ=     0.0006
 Octapole moment (field-independent basis, Debye-Ang**2):
  XXX=    -0.8231  YYY=    16.7541  ZZZ=    -0.0008  XYY=     0.5806
  XXY=   -77.7636  XXZ=    -0.0020  XZZ=    -0.0164  YZZ=    -4.6397
  YYZ=    -0.0005  XYZ=    -0.0007
 Hexadecapole moment (field-independent basis, Debye-Ang**3):
 XXXX=  -358.9019 YYYY=  -875.4060 ZZZZ=   -56.5357 XXXY=    -0.7084
 XXXZ=    -0.0084 YYYX=    -1.1352 YYYZ=     0.0069 ZZZX=    -0.0037
 ZZZY=     0.0018 XXYY=  -185.5058 XXZZ=   -96.5830 YYZZ=  -139.1387
 XXYZ=     0.0005 YYXZ=    -0.0035 ZZXY=    -0.1590
 N-N= 4.732283091673D+02 E-N=-5.489463085066D+03  KE= 1.916552861708D+03
 Merz-Kollman atomic radii used.
 Read replacement radii for each type of atom:
 Rad(20) =   1.188000000000D+00
 Atom Element Radius
    1     8    1.40
    2     8    1.40
    3     8    1.40
    4    15    1.80
    5    20    1.19
    6    20    1.19

 **********************************************************************

            Electrostatic Properties Using The SCF Density

 **********************************************************************

       Atomic Center    1 is at   1.281834  1.273955  0.000189
       Atomic Center    2 is at  -1.272676  1.282364 -0.000061
       Atomic Center    3 is at  -0.006677 -1.917710  0.000049
       Atomic Center    4 is at   0.007445  2.150409 -0.000041
       Atomic Center    5 is at   1.868277 -0.940446 -0.000051
       Atomic Center    6 is at  -1.874853 -0.927805  0.000009
     667 points will be used for fitting atomic charges
 Fitting point charges to eletrostatic potential
 Charges from ESP fit, RMS=   0.00501 RRMS=   0.03145:
 Charge=   1.00000 Dipole=    -0.0196    -3.9188    -0.0013 Tot=     3.9189
              1
     1  O   -0.739835
     2  O   -0.735763
     3  O   -1.528860
     4  P    0.609145
     5  Ca   1.698807
     6  Ca   1.696505
 -----------------------------------------------------------------

              Electrostatic Properties (Atomic Units)

 -----------------------------------------------------------------
    Center     Electric         -------- Electric Field --------
               Potential          X             Y             Z
 -----------------------------------------------------------------
    1 Atom    -22.186546
    2 Atom    -22.186219
    3 Atom    -22.310631
    4 Atom    -53.918196
    5 Atom    -80.019162
    6 Atom    -80.019153
 -----------------------------------------------------------------
 1\1\GINC-N034\SP\RB3LYP\6-31+G(d,p)\Ca2O3P1(1+)\TIMN\12-Jun-2015\0\\# 
 b3lyp/6-31+G(d,p) int=ultrafine pop=(ReadRadii,MK)\\Ca2PO3_31.mol2_plu
 sQ.out.z51552.zip.xyz\\1,1\O,0,1.28179,1.274,0.00019\O,0,-1.27272,1.28
 232,-0.00006\O,0,-0.00661,-1.91771,0.00005\P,0,0.00737,2.15041,-0.0000
 4\Ca,0,1.86831,-0.94038,-0.00005\Ca,0,-1.87482,-0.92787,0.00001\\Versi
 on=EM64T-G03RevE.01\State=1-A\HF=-1922.1341362\RMSD=4.817e-05\Thermal=
 0.\Dipole=-0.0062058,-1.5376717,-0.0003325\PG=C01 [X(Ca2O3P1)]\\@


 You don't have to suffer to be a poet.
 Adolescence is enough suffering for anyone.
                             -- John Ciardi
 Job cpu time:  0 days  0 hours  0 minutes 30.7 seconds.
 File lengths (MBytes):  RWF=     22 Int=      0 D2E=      0 Chk=     10 Scr=      1
 Normal termination of Gaussian 03 at Fri Jun 12 17:34:36 2015.
