 Entering Gaussian System, Link 0=/home/timn/tmp/g03.e01/g03
 Input=Ca2PO3_12.mol2cc_plusQc.out.z51532.zip.xyz.gjf
 Output=Ca2PO3_12.mol2cc_plusQc.out.z51532.zip.xyz.out
 Initial command:
 /home/timn/tmp/g03.e01/l1.exe /home/timn/tmp/g03.e01/Gau-18587.inp -scrdir=/home/timn/tmp/g03.e01/
 Default is to use a total of   2 processors:
                                2 via shared-memory
                                1 via Linda
 Entering Link 1 = /home/timn/tmp/g03.e01/l1.exe PID=     18589.
  
 Copyright (c) 1988,1990,1992,1993,1995,1998,2003,2004,2007, Gaussian, Inc.
                  All Rights Reserved.
  
 This is the Gaussian(R) 03 program.  It is based on the
 the Gaussian(R) 98 system (copyright 1998, Gaussian, Inc.),
 the Gaussian(R) 94 system (copyright 1995, Gaussian, Inc.),
 the Gaussian 92(TM) system (copyright 1992, Gaussian, Inc.),
 the Gaussian 90(TM) system (copyright 1990, Gaussian, Inc.),
 the Gaussian 88(TM) system (copyright 1988, Gaussian, Inc.),
 the Gaussian 86(TM) system (copyright 1986, Carnegie Mellon
 University), and the Gaussian 82(TM) system (copyright 1983,
 Carnegie Mellon University). Gaussian is a federally registered
 trademark of Gaussian, Inc.
  
 This software contains proprietary and confidential information,
 including trade secrets, belonging to Gaussian, Inc.
  
 This software is provided under written license and may be
 used, copied, transmitted, or stored only in accord with that
 written license.
  
 The following legend is applicable only to US Government
 contracts under FAR:
  
                    RESTRICTED RIGHTS LEGEND
  
 Use, reproduction and disclosure by the US Government is
 subject to restrictions as set forth in subparagraphs (a)
 and (c) of the Commercial Computer Software - Restricted
 Rights clause in FAR 52.227-19.
  
 Gaussian, Inc.
 340 Quinnipiac St., Bldg. 40, Wallingford CT 06492
  
  
 ---------------------------------------------------------------
 Warning -- This program may not be used in any manner that
 competes with the business of Gaussian, Inc. or will provide
 assistance to any competitor of Gaussian, Inc.  The licensee
 of this program is prohibited from giving any competitor of
 Gaussian, Inc. access to this program.  By using this program,
 the user acknowledges that Gaussian, Inc. is engaged in the
 business of creating and licensing software in the field of
 computational chemistry and represents and warrants to the
 licensee that it is not a competitor of Gaussian, Inc. and that
 it will not use this program in any manner prohibited above.
 ---------------------------------------------------------------
  

 Cite this work as:
 Gaussian 03, Revision E.01,
 M. J. Frisch, G. W. Trucks, H. B. Schlegel, G. E. Scuseria, 
 M. A. Robb, J. R. Cheeseman, J. A. Montgomery, Jr., T. Vreven, 
 K. N. Kudin, J. C. Burant, J. M. Millam, S. S. Iyengar, J. Tomasi, 
 V. Barone, B. Mennucci, M. Cossi, G. Scalmani, N. Rega, 
 G. A. Petersson, H. Nakatsuji, M. Hada, M. Ehara, K. Toyota, 
 R. Fukuda, J. Hasegawa, M. Ishida, T. Nakajima, Y. Honda, O. Kitao, 
 H. Nakai, M. Klene, X. Li, J. E. Knox, H. P. Hratchian, J. B. Cross, 
 V. Bakken, C. Adamo, J. Jaramillo, R. Gomperts, R. E. Stratmann, 
 O. Yazyev, A. J. Austin, R. Cammi, C. Pomelli, J. W. Ochterski, 
 P. Y. Ayala, K. Morokuma, G. A. Voth, P. Salvador, J. J. Dannenberg, 
 V. G. Zakrzewski, S. Dapprich, A. D. Daniels, M. C. Strain, 
 O. Farkas, D. K. Malick, A. D. Rabuck, K. Raghavachari, 
 J. B. Foresman, J. V. Ortiz, Q. Cui, A. G. Baboul, S. Clifford, 
 J. Cioslowski, B. B. Stefanov, G. Liu, A. Liashenko, P. Piskorz, 
 I. Komaromi, R. L. Martin, D. J. Fox, T. Keith, M. A. Al-Laham, 
 C. Y. Peng, A. Nanayakkara, M. Challacombe, P. M. W. Gill, 
 B. Johnson, W. Chen, M. W. Wong, C. Gonzalez, and J. A. Pople, 
 Gaussian, Inc., Wallingford CT, 2004.
 
 ******************************************
 Gaussian 03:  EM64T-G03RevE.01 11-Sep-2007
                12-Jun-2015 
 ******************************************
 %nproc=2
 Will use up to    2 processors via shared memory.
 Default route:  MP2=Direct MaxDisk=2000MB
 ----------------------------------------------------
 # b3lyp/6-31+G(d,p) int=ultrafine pop=(ReadRadii,MK)
 ----------------------------------------------------

 Warning!  SCF SP cutoffs with diffuse functions may be unreliable.
 Consider SCF=Tight

 1/38=1/1;
 2/17=6,18=5,40=1/2;
 3/5=1,6=6,7=111,11=2,16=1,25=1,30=1,74=-5,75=5/1,2,3;
 4//1;
 5/5=2,32=1,38=5/2;
 6/7=2,8=2,9=2,10=2,15=8,20=101,28=1/1,2;
 99/5=1,9=1/99;
 ------------------------------------------
 Ca2PO3_12.mol2cc_plusQc.out.z51532.zip.xyz
 ------------------------------------------
 Symbolic Z-matrix:
 Charge =  1 Multiplicity = 1
 O                    -0.55028  -1.71478  -0.00173 
 O                    -1.72299   0.55412   0.00146 
 O                     1.70238   0.88709   0.00845 
 P                    -1.91166  -0.98095  -0.00301 
 Ca                   -0.0309    2.0981    0.00818 
 Ca                    1.68808  -1.22725   0.00357 
 
                          Input orientation:                          
 ---------------------------------------------------------------------
 Center     Atomic     Atomic              Coordinates (Angstroms)
 Number     Number      Type              X           Y           Z
 ---------------------------------------------------------------------
    1          8             0       -0.550280   -1.714780   -0.001730
    2          8             0       -1.722990    0.554120    0.001460
    3          8             0        1.702380    0.887090    0.008450
    4         15             0       -1.911660   -0.980950   -0.003010
    5         20             0       -0.030900    2.098100    0.008180
    6         20             0        1.688080   -1.227250    0.003570
 ---------------------------------------------------------------------
                    Distance matrix (angstroms):
                    1          2          3          4          5
     1  O    0.000000
     2  O    2.554049   0.000000
     3  O    3.441556   3.441523   0.000000
     4  P    1.546565   1.546627   4.068291   0.000000
     5  Ca   3.848104   2.290652   2.114428   3.608037   0.000000
     6  Ca   2.290845   3.848205   2.114394   3.608162   3.743376
                    6
     6  Ca   0.000000
 Stoichiometry    Ca2O3P(1+)
 Framework group  C1[X(Ca2O3P)]
 Deg. of freedom    12
 Full point group                 C1
 Largest Abelian subgroup         C1      NOp   1
 Largest concise Abelian subgroup C1      NOp   1
                         Standard orientation:                         
 ---------------------------------------------------------------------
 Center     Atomic     Atomic              Coordinates (Angstroms)
 Number     Number      Type              X           Y           Z
 ---------------------------------------------------------------------
    1          8             0       -1.275953    1.279157    0.000205
    2          8             0        1.278095    1.277011    0.000243
    3          8             0       -0.001569   -1.917756   -0.000169
    4         15             0        0.001766    2.150533   -0.000200
    5         20             0        1.870911   -0.935602    0.000014
    6         20             0       -1.872465   -0.932662    0.000024
 ---------------------------------------------------------------------
 Rotational constants (GHZ):      1.5596082      1.5214745      0.7701527
 Standard basis: 6-31+G(d,p) (6D, 7F)
 There are   134 symmetry adapted basis functions of A   symmetry.
 Integral buffers will be    131072 words long.
 Raffenetti 2 integral format.
 Two-electron integral symmetry is turned on.
   134 basis functions,   312 primitive gaussians,   134 cartesian basis functions
    39 alpha electrons       39 beta electrons
       nuclear repulsion energy       473.2252915731 Hartrees.
 NAtoms=    6 NActive=    6 NUniq=    6 SFac= 7.50D-01 NAtFMM=   80 NAOKFM=F Big=F
 One-electron integrals computed using PRISM.
 NBasis=   134 RedAO= T  NBF=   134
 NBsUse=   134 1.00D-06 NBFU=   134
 Harris functional with IExCor=  402 diagonalized for initial guess.
 ExpMin= 7.10D-03 ExpMax= 3.53D+04 ExpMxC= 5.30D+03 IAcc=3 IRadAn=         5 AccDes= 0.00D+00
 HarFok:  IExCor= 402 AccDes= 0.00D+00 IRadAn=         5 IDoV=1
 ScaDFX=  1.000000  1.000000  1.000000  1.000000
 Initial guess orbital symmetries:
       Occupied  (A) (A) (A) (A) (A) (A) (A) (A) (A) (A) (A) (A)
                 (A) (A) (A) (A) (A) (A) (A) (A) (A) (A) (A) (A)
                 (A) (A) (A) (A) (A) (A) (A) (A) (A) (A) (A) (A)
                 (A) (A) (A)
       Virtual   (A) (A) (A) (A) (A) (A) (A) (A) (A) (A) (A) (A)
                 (A) (A) (A) (A) (A) (A) (A) (A) (A) (A) (A) (A)
                 (A) (A) (A) (A) (A) (A) (A) (A) (A) (A) (A) (A)
                 (A) (A) (A) (A) (A) (A) (A) (A) (A) (A) (A) (A)
                 (A) (A) (A) (A) (A) (A) (A) (A) (A) (A) (A) (A)
                 (A) (A) (A) (A) (A) (A) (A) (A) (A) (A) (A) (A)
                 (A) (A) (A) (A) (A) (A) (A) (A) (A) (A) (A) (A)
                 (A) (A) (A) (A) (A) (A) (A) (A) (A) (A) (A)
 The electronic state of the initial guess is 1-A.
 Requested convergence on RMS density matrix=1.00D-04 within 128 cycles.
 Requested convergence on MAX density matrix=1.00D-02.
 Requested convergence on             energy=1.00D-02.
 No special actions if energy rises.
 Keep R1 integrals in memory in canonical form, NReq=    43203134.
 EnCoef did     4 forward-backward iterations
 SCF Done:  E(RB+HF-LYP) =  -1922.13413624     A.U. after    7 cycles
             Convg  =    0.4813D-04             -V/T =  2.0029
             S**2   =   0.0000

 **********************************************************************

            Population analysis using the SCF density.

 **********************************************************************

 Orbital symmetries:
       Occupied  (A) (A) (A) (A) (A) (A) (A) (A) (A) (A) (A) (A)
                 (A) (A) (A) (A) (A) (A) (A) (A) (A) (A) (A) (A)
                 (A) (A) (A) (A) (A) (A) (A) (A) (A) (A) (A) (A)
                 (A) (A) (A)
       Virtual   (A) (A) (A) (A) (A) (A) (A) (A) (A) (A) (A) (A)
                 (A) (A) (A) (A) (A) (A) (A) (A) (A) (A) (A) (A)
                 (A) (A) (A) (A) (A) (A) (A) (A) (A) (A) (A) (A)
                 (A) (A) (A) (A) (A) (A) (A) (A) (A) (A) (A) (A)
                 (A) (A) (A) (A) (A) (A) (A) (A) (A) (A) (A) (A)
                 (A) (A) (A) (A) (A) (A) (A) (A) (A) (A) (A) (A)
                 (A) (A) (A) (A) (A) (A) (A) (A) (A) (A) (A) (A)
                 (A) (A) (A) (A) (A) (A) (A) (A) (A) (A) (A)
 The electronic state is 1-A.
 Alpha  occ. eigenvalues -- -145.52216-145.52214 -77.29923 -19.27729 -19.27728
 Alpha  occ. eigenvalues --  -19.15034 -15.59104 -15.59102 -12.72354 -12.72352
 Alpha  occ. eigenvalues --  -12.72278 -12.72277 -12.72180 -12.72177  -6.75405
 Alpha  occ. eigenvalues --   -4.91848  -4.91628  -4.91187  -1.96272  -1.96253
 Alpha  occ. eigenvalues --   -1.24083  -1.24062  -1.23943  -1.23742  -1.23415
 Alpha  occ. eigenvalues --   -1.22889  -1.13631  -1.08321  -0.89401  -0.67424
 Alpha  occ. eigenvalues --   -0.56977  -0.52456  -0.52385  -0.45560  -0.43663
 Alpha  occ. eigenvalues --   -0.40561  -0.35632  -0.33617  -0.33421
 Alpha virt. eigenvalues --   -0.20921  -0.19677  -0.19651  -0.12837  -0.11779
 Alpha virt. eigenvalues --   -0.11637  -0.10826  -0.10187  -0.07821  -0.07313
 Alpha virt. eigenvalues --   -0.06401  -0.05944  -0.05384  -0.04882  -0.04593
 Alpha virt. eigenvalues --   -0.04467  -0.04404  -0.04223  -0.04053  -0.03404
 Alpha virt. eigenvalues --   -0.02371   0.00300   0.01351   0.02135   0.03098
 Alpha virt. eigenvalues --    0.03996   0.04041   0.04411   0.05016   0.05444
 Alpha virt. eigenvalues --    0.05771   0.06864   0.07327   0.07501   0.07938
 Alpha virt. eigenvalues --    0.08483   0.09742   0.10526   0.14242   0.15053
 Alpha virt. eigenvalues --    0.17274   0.18359   0.19368   0.21141   0.22044
 Alpha virt. eigenvalues --    0.23435   0.25025   0.27306   0.30124   0.31651
 Alpha virt. eigenvalues --    0.31765   0.36712   0.37708   0.44097   0.45631
 Alpha virt. eigenvalues --    0.47692   0.56683   0.57494   0.62232   0.63254
 Alpha virt. eigenvalues --    0.64976   0.82586   0.90722   0.94489   1.05955
 Alpha virt. eigenvalues --    1.06288   1.07844   1.12511   1.15951   1.16934
 Alpha virt. eigenvalues --    1.22248   1.22558   1.24773   1.37410   1.39841
 Alpha virt. eigenvalues --    1.43137   1.66271   1.66505   1.71128   1.71641
 Alpha virt. eigenvalues --    1.80314   1.81393   1.82300   1.85277   1.85692
 Alpha virt. eigenvalues --    1.86394   1.93720   1.97764   2.08917   2.53574
 Alpha virt. eigenvalues --    2.67738   3.38668   3.82231   3.89923   3.93560
          Condensed to atoms (all electrons):
              1          2          3          4          5          6
     1  O    8.836848  -0.080774   0.000942  -0.109598   0.000828   0.068038
     2  O   -0.080774   8.836866   0.000947  -0.109575   0.068057   0.000827
     3  O    0.000942   0.000947   8.751285  -0.013034   0.229788   0.229806
     4  P   -0.109598  -0.109575  -0.013034  14.594918  -0.018729  -0.018717
     5  Ca   0.000828   0.068057   0.229788  -0.018729  18.247942  -0.006702
     6  Ca   0.068038   0.000827   0.229806  -0.018717  -0.006702  18.247932
 Mulliken atomic charges:
              1
     1  O   -0.716285
     2  O   -0.716348
     3  O   -1.199735
     4  P    0.674734
     5  Ca   1.478816
     6  Ca   1.478817
 Sum of Mulliken charges=   1.00000
 Atomic charges with hydrogens summed into heavy atoms:
              1
     1  O   -0.716285
     2  O   -0.716348
     3  O   -1.199735
     4  P    0.674734
     5  Ca   1.478816
     6  Ca   1.478817
 Sum of Mulliken charges=   1.00000
 Electronic spatial extent (au):  <R**2>=  1251.4834
 Charge=     1.0000 electrons
 Dipole moment (field-independent basis, Debye):
    X=    -0.0039    Y=    -3.9071    Z=     0.0000  Tot=     3.9071
 Quadrupole moment (field-independent basis, Debye-Ang):
   XX=    -5.5381   YY=   -61.9159   ZZ=   -49.7216
   XY=    -0.0446   XZ=    -0.0003   YZ=    -0.0031
 Traceless Quadrupole moment (field-independent basis, Debye-Ang):
   XX=    33.5204   YY=   -22.8574   ZZ=   -10.6630
   XY=    -0.0446   XZ=    -0.0003   YZ=    -0.0031
 Octapole moment (field-independent basis, Debye-Ang**2):
  XXX=    -0.1948  YYY=    16.7703  ZZZ=     0.0026  XYY=     0.1365
  XXY=   -77.7676  XXZ=    -0.0010  XZZ=    -0.0041  YZZ=    -4.6377
  YYZ=     0.0077  XYZ=    -0.0001
 Hexadecapole moment (field-independent basis, Debye-Ang**3):
 XXXX=  -358.8426 YYYY=  -875.4440 ZZZZ=   -56.5372 XXXY=    -0.1632
 XXXZ=    -0.0013 YYYX=    -0.2642 YYYZ=     0.0043 ZZZX=    -0.0005
 ZZZY=    -0.0021 XXYY=  -185.4993 XXZZ=   -96.5829 YYZZ=  -139.1437
 XXYZ=    -0.0057 YYXZ=    -0.0005 ZZXY=    -0.0376
 N-N= 4.732252915731D+02 E-N=-5.489457726197D+03  KE= 1.916552947421D+03
 Merz-Kollman atomic radii used.
 Read replacement radii for each type of atom:
 Rad(20) =   1.188000000000D+00
 Atom Element Radius
    1     8    1.40
    2     8    1.40
    3     8    1.40
    4    15    1.80
    5    20    1.19
    6    20    1.19

 **********************************************************************

            Electrostatic Properties Using The SCF Density

 **********************************************************************

       Atomic Center    1 is at  -1.275953  1.279157  0.000205
       Atomic Center    2 is at   1.278095  1.277011  0.000243
       Atomic Center    3 is at  -0.001569 -1.917756 -0.000169
       Atomic Center    4 is at   0.001766  2.150533 -0.000200
       Atomic Center    5 is at   1.870911 -0.935602  0.000014
       Atomic Center    6 is at  -1.872465 -0.932662  0.000024
     669 points will be used for fitting atomic charges
 Fitting point charges to eletrostatic potential
 Charges from ESP fit, RMS=   0.00500 RRMS=   0.03135:
 Charge=   1.00000 Dipole=    -0.0042    -3.9181    -0.0006 Tot=     3.9181
              1
     1  O   -0.735702
     2  O   -0.739426
     3  O   -1.529101
     4  P    0.608703
     5  Ca   1.698997
     6  Ca   1.696530
 -----------------------------------------------------------------

              Electrostatic Properties (Atomic Units)

 -----------------------------------------------------------------
    Center     Electric         -------- Electric Field --------
               Potential          X             Y             Z
 -----------------------------------------------------------------
    1 Atom    -22.186405
    2 Atom    -22.186422
    3 Atom    -22.310641
    4 Atom    -53.918226
    5 Atom    -80.019157
    6 Atom    -80.019141
 -----------------------------------------------------------------
 1\1\GINC-N022\SP\RB3LYP\6-31+G(d,p)\Ca2O3P1(1+)\TIMN\12-Jun-2015\0\\# 
 b3lyp/6-31+G(d,p) int=ultrafine pop=(ReadRadii,MK)\\Ca2PO3_12.mol2cc_p
 lusQc.out.z51532.zip.xyz\\1,1\O,0,-0.55028,-1.71478,-0.00173\O,0,-1.72
 299,0.55412,0.00146\O,0,1.70238,0.88709,0.00845\P,0,-1.91166,-0.98095,
 -0.00301\Ca,0,-0.0309,2.0981,0.00818\Ca,0,1.68808,-1.22725,0.00357\\Ve
 rsion=EM64T-G03RevE.01\State=1-A\HF=-1922.1341362\RMSD=4.813e-05\Therm
 al=0.\Dipole=1.365675,0.7055963,0.0043349\PG=C01 [X(Ca2O3P1)]\\@


 You don't have to suffer to be a poet.
 Adolescence is enough suffering for anyone.
                             -- John Ciardi
 Job cpu time:  0 days  0 hours  0 minutes 29.8 seconds.
 File lengths (MBytes):  RWF=     22 Int=      0 D2E=      0 Chk=     10 Scr=      1
 Normal termination of Gaussian 03 at Fri Jun 12 17:34:36 2015.
