 Entering Gaussian System, Link 0=/home/timn/tmp/g03.e01/g03
 Input=Ca2PO3_4.mol2_plusQc.out.z51555.zip.xyz.gjf
 Output=Ca2PO3_4.mol2_plusQc.out.z51555.zip.xyz.out
 Initial command:
 /home/timn/tmp/g03.e01/l1.exe /home/timn/tmp/g03.e01/Gau-18659.inp -scrdir=/home/timn/tmp/g03.e01/
 Default is to use a total of   2 processors:
                                2 via shared-memory
                                1 via Linda
 Entering Link 1 = /home/timn/tmp/g03.e01/l1.exe PID=     18661.
  
 Copyright (c) 1988,1990,1992,1993,1995,1998,2003,2004,2007, Gaussian, Inc.
                  All Rights Reserved.
  
 This is the Gaussian(R) 03 program.  It is based on the
 the Gaussian(R) 98 system (copyright 1998, Gaussian, Inc.),
 the Gaussian(R) 94 system (copyright 1995, Gaussian, Inc.),
 the Gaussian 92(TM) system (copyright 1992, Gaussian, Inc.),
 the Gaussian 90(TM) system (copyright 1990, Gaussian, Inc.),
 the Gaussian 88(TM) system (copyright 1988, Gaussian, Inc.),
 the Gaussian 86(TM) system (copyright 1986, Carnegie Mellon
 University), and the Gaussian 82(TM) system (copyright 1983,
 Carnegie Mellon University). Gaussian is a federally registered
 trademark of Gaussian, Inc.
  
 This software contains proprietary and confidential information,
 including trade secrets, belonging to Gaussian, Inc.
  
 This software is provided under written license and may be
 used, copied, transmitted, or stored only in accord with that
 written license.
  
 The following legend is applicable only to US Government
 contracts under FAR:
  
                    RESTRICTED RIGHTS LEGEND
  
 Use, reproduction and disclosure by the US Government is
 subject to restrictions as set forth in subparagraphs (a)
 and (c) of the Commercial Computer Software - Restricted
 Rights clause in FAR 52.227-19.
  
 Gaussian, Inc.
 340 Quinnipiac St., Bldg. 40, Wallingford CT 06492
  
  
 ---------------------------------------------------------------
 Warning -- This program may not be used in any manner that
 competes with the business of Gaussian, Inc. or will provide
 assistance to any competitor of Gaussian, Inc.  The licensee
 of this program is prohibited from giving any competitor of
 Gaussian, Inc. access to this program.  By using this program,
 the user acknowledges that Gaussian, Inc. is engaged in the
 business of creating and licensing software in the field of
 computational chemistry and represents and warrants to the
 licensee that it is not a competitor of Gaussian, Inc. and that
 it will not use this program in any manner prohibited above.
 ---------------------------------------------------------------
  

 Cite this work as:
 Gaussian 03, Revision E.01,
 M. J. Frisch, G. W. Trucks, H. B. Schlegel, G. E. Scuseria, 
 M. A. Robb, J. R. Cheeseman, J. A. Montgomery, Jr., T. Vreven, 
 K. N. Kudin, J. C. Burant, J. M. Millam, S. S. Iyengar, J. Tomasi, 
 V. Barone, B. Mennucci, M. Cossi, G. Scalmani, N. Rega, 
 G. A. Petersson, H. Nakatsuji, M. Hada, M. Ehara, K. Toyota, 
 R. Fukuda, J. Hasegawa, M. Ishida, T. Nakajima, Y. Honda, O. Kitao, 
 H. Nakai, M. Klene, X. Li, J. E. Knox, H. P. Hratchian, J. B. Cross, 
 V. Bakken, C. Adamo, J. Jaramillo, R. Gomperts, R. E. Stratmann, 
 O. Yazyev, A. J. Austin, R. Cammi, C. Pomelli, J. W. Ochterski, 
 P. Y. Ayala, K. Morokuma, G. A. Voth, P. Salvador, J. J. Dannenberg, 
 V. G. Zakrzewski, S. Dapprich, A. D. Daniels, M. C. Strain, 
 O. Farkas, D. K. Malick, A. D. Rabuck, K. Raghavachari, 
 J. B. Foresman, J. V. Ortiz, Q. Cui, A. G. Baboul, S. Clifford, 
 J. Cioslowski, B. B. Stefanov, G. Liu, A. Liashenko, P. Piskorz, 
 I. Komaromi, R. L. Martin, D. J. Fox, T. Keith, M. A. Al-Laham, 
 C. Y. Peng, A. Nanayakkara, M. Challacombe, P. M. W. Gill, 
 B. Johnson, W. Chen, M. W. Wong, C. Gonzalez, and J. A. Pople, 
 Gaussian, Inc., Wallingford CT, 2004.
 
 ******************************************
 Gaussian 03:  EM64T-G03RevE.01 11-Sep-2007
                12-Jun-2015 
 ******************************************
 %nproc=2
 Will use up to    2 processors via shared memory.
 Default route:  MP2=Direct MaxDisk=2000MB
 ----------------------------------------------------
 # b3lyp/6-31+G(d,p) int=ultrafine pop=(ReadRadii,MK)
 ----------------------------------------------------

 Warning!  SCF SP cutoffs with diffuse functions may be unreliable.
 Consider SCF=Tight

 1/38=1/1;
 2/17=6,18=5,40=1/2;
 3/5=1,6=6,7=111,11=2,16=1,25=1,30=1,74=-5,75=5/1,2,3;
 4//1;
 5/5=2,32=1,38=5/2;
 6/7=2,8=2,9=2,10=2,15=8,20=101,28=1/1,2;
 99/5=1,9=1/99;
 ---------------------------------------
 Ca2PO3_4.mol2_plusQc.out.z51555.zip.xyz
 ---------------------------------------
 Symbolic Z-matrix:
 Charge =  1 Multiplicity = 1
 O                    -1.27866   1.27662   0.00033 
 O                     1.27559   1.27941  -0.00025 
 O                     0.00223  -1.91722  -0.00001 
 P                    -0.00252   2.15032  -0.00003 
 Ca                   -1.87073  -0.93627  -0.00008 
 Ca                    1.87295  -0.932     0.00008 
 
                          Input orientation:                          
 ---------------------------------------------------------------------
 Center     Atomic     Atomic              Coordinates (Angstroms)
 Number     Number      Type              X           Y           Z
 ---------------------------------------------------------------------
    1          8             0       -1.278660    1.276620    0.000330
    2          8             0        1.275590    1.279410   -0.000250
    3          8             0        0.002230   -1.917220   -0.000010
    4         15             0       -0.002520    2.150320   -0.000030
    5         20             0       -1.870730   -0.936270   -0.000080
    6         20             0        1.872950   -0.932000    0.000080
 ---------------------------------------------------------------------
                    Distance matrix (angstroms):
                    1          2          3          4          5
     1  O    0.000000
     2  O    2.554252   0.000000
     3  O    3.441118   3.440914   0.000000
     4  P    1.546572   1.546625   4.067543   0.000000
     5  Ca   2.290727   3.848190   2.114295   3.607942   0.000000
     6  Ca   3.848460   2.290671   2.114297   3.608058   3.743682
                    6
     6  Ca   0.000000
 Stoichiometry    Ca2O3P(1+)
 Framework group  C1[X(Ca2O3P)]
 Deg. of freedom    12
 Full point group                 C1
 Largest Abelian subgroup         C1      NOp   1
 Largest concise Abelian subgroup C1      NOp   1
                         Standard orientation:                         
 ---------------------------------------------------------------------
 Center     Atomic     Atomic              Coordinates (Angstroms)
 Number     Number      Type              X           Y           Z
 ---------------------------------------------------------------------
    1          8             0       -1.278656    1.276624    0.000329
    2          8             0        1.275594    1.279409   -0.000251
    3          8             0        0.002228   -1.917218   -0.000011
    4         15             0       -0.002515    2.150322   -0.000031
    5         20             0       -1.870730   -0.936265   -0.000081
    6         20             0        1.872950   -0.932002    0.000079
 ---------------------------------------------------------------------
 Rotational constants (GHZ):      1.5599273      1.5212268      0.7701670
 Standard basis: 6-31+G(d,p) (6D, 7F)
 There are   134 symmetry adapted basis functions of A   symmetry.
 Integral buffers will be    131072 words long.
 Raffenetti 2 integral format.
 Two-electron integral symmetry is turned on.
   134 basis functions,   312 primitive gaussians,   134 cartesian basis functions
    39 alpha electrons       39 beta electrons
       nuclear repulsion energy       473.2317888243 Hartrees.
 NAtoms=    6 NActive=    6 NUniq=    6 SFac= 7.50D-01 NAtFMM=   80 NAOKFM=F Big=F
 One-electron integrals computed using PRISM.
 NBasis=   134 RedAO= T  NBF=   134
 NBsUse=   134 1.00D-06 NBFU=   134
 Harris functional with IExCor=  402 diagonalized for initial guess.
 ExpMin= 7.10D-03 ExpMax= 3.53D+04 ExpMxC= 5.30D+03 IAcc=3 IRadAn=         5 AccDes= 0.00D+00
 HarFok:  IExCor= 402 AccDes= 0.00D+00 IRadAn=         5 IDoV=1
 ScaDFX=  1.000000  1.000000  1.000000  1.000000
 Initial guess orbital symmetries:
       Occupied  (A) (A) (A) (A) (A) (A) (A) (A) (A) (A) (A) (A)
                 (A) (A) (A) (A) (A) (A) (A) (A) (A) (A) (A) (A)
                 (A) (A) (A) (A) (A) (A) (A) (A) (A) (A) (A) (A)
                 (A) (A) (A)
       Virtual   (A) (A) (A) (A) (A) (A) (A) (A) (A) (A) (A) (A)
                 (A) (A) (A) (A) (A) (A) (A) (A) (A) (A) (A) (A)
                 (A) (A) (A) (A) (A) (A) (A) (A) (A) (A) (A) (A)
                 (A) (A) (A) (A) (A) (A) (A) (A) (A) (A) (A) (A)
                 (A) (A) (A) (A) (A) (A) (A) (A) (A) (A) (A) (A)
                 (A) (A) (A) (A) (A) (A) (A) (A) (A) (A) (A) (A)
                 (A) (A) (A) (A) (A) (A) (A) (A) (A) (A) (A) (A)
                 (A) (A) (A) (A) (A) (A) (A) (A) (A) (A) (A)
 The electronic state of the initial guess is 1-A.
 Requested convergence on RMS density matrix=1.00D-04 within 128 cycles.
 Requested convergence on MAX density matrix=1.00D-02.
 Requested convergence on             energy=1.00D-02.
 No special actions if energy rises.
 Keep R1 integrals in memory in canonical form, NReq=    43203134.
 EnCoef did     4 forward-backward iterations
 SCF Done:  E(RB+HF-LYP) =  -1922.13413625     A.U. after    7 cycles
             Convg  =    0.4814D-04             -V/T =  2.0029
             S**2   =   0.0000

 **********************************************************************

            Population analysis using the SCF density.

 **********************************************************************

 Orbital symmetries:
       Occupied  (A) (A) (A) (A) (A) (A) (A) (A) (A) (A) (A) (A)
                 (A) (A) (A) (A) (A) (A) (A) (A) (A) (A) (A) (A)
                 (A) (A) (A) (A) (A) (A) (A) (A) (A) (A) (A) (A)
                 (A) (A) (A)
       Virtual   (A) (A) (A) (A) (A) (A) (A) (A) (A) (A) (A) (A)
                 (A) (A) (A) (A) (A) (A) (A) (A) (A) (A) (A) (A)
                 (A) (A) (A) (A) (A) (A) (A) (A) (A) (A) (A) (A)
                 (A) (A) (A) (A) (A) (A) (A) (A) (A) (A) (A) (A)
                 (A) (A) (A) (A) (A) (A) (A) (A) (A) (A) (A) (A)
                 (A) (A) (A) (A) (A) (A) (A) (A) (A) (A) (A) (A)
                 (A) (A) (A) (A) (A) (A) (A) (A) (A) (A) (A) (A)
                 (A) (A) (A) (A) (A) (A) (A) (A) (A) (A) (A)
 The electronic state is 1-A.
 Alpha  occ. eigenvalues -- -145.52213-145.52213 -77.29921 -19.27728 -19.27726
 Alpha  occ. eigenvalues --  -19.15032 -15.59101 -15.59101 -12.72351 -12.72351
 Alpha  occ. eigenvalues --  -12.72276 -12.72276 -12.72177 -12.72175  -6.75403
 Alpha  occ. eigenvalues --   -4.91846  -4.91626  -4.91185  -1.96271  -1.96251
 Alpha  occ. eigenvalues --   -1.24081  -1.24060  -1.23941  -1.23741  -1.23414
 Alpha  occ. eigenvalues --   -1.22888  -1.13629  -1.08320  -0.89400  -0.67423
 Alpha  occ. eigenvalues --   -0.56976  -0.52453  -0.52383  -0.45559  -0.43663
 Alpha  occ. eigenvalues --   -0.40558  -0.35632  -0.33618  -0.33420
 Alpha virt. eigenvalues --   -0.20920  -0.19674  -0.19651  -0.12836  -0.11779
 Alpha virt. eigenvalues --   -0.11636  -0.10826  -0.10187  -0.07820  -0.07312
 Alpha virt. eigenvalues --   -0.06400  -0.05943  -0.05384  -0.04881  -0.04593
 Alpha virt. eigenvalues --   -0.04467  -0.04404  -0.04222  -0.04053  -0.03404
 Alpha virt. eigenvalues --   -0.02370   0.00300   0.01352   0.02135   0.03098
 Alpha virt. eigenvalues --    0.03997   0.04044   0.04414   0.05016   0.05444
 Alpha virt. eigenvalues --    0.05775   0.06863   0.07328   0.07502   0.07939
 Alpha virt. eigenvalues --    0.08481   0.09745   0.10525   0.14242   0.15054
 Alpha virt. eigenvalues --    0.17275   0.18361   0.19370   0.21142   0.22045
 Alpha virt. eigenvalues --    0.23442   0.25027   0.27306   0.30126   0.31652
 Alpha virt. eigenvalues --    0.31767   0.36716   0.37709   0.44098   0.45635
 Alpha virt. eigenvalues --    0.47694   0.56685   0.57495   0.62258   0.63257
 Alpha virt. eigenvalues --    0.64973   0.82598   0.90726   0.94487   1.05956
 Alpha virt. eigenvalues --    1.06296   1.07845   1.12511   1.15947   1.16929
 Alpha virt. eigenvalues --    1.22248   1.22559   1.24775   1.37408   1.39838
 Alpha virt. eigenvalues --    1.43143   1.66273   1.66506   1.71134   1.71638
 Alpha virt. eigenvalues --    1.80320   1.81392   1.82302   1.85279   1.85690
 Alpha virt. eigenvalues --    1.86399   1.93724   1.97758   2.08921   2.53578
 Alpha virt. eigenvalues --    2.67736   3.38670   3.82235   3.89924   3.93563
          Condensed to atoms (all electrons):
              1          2          3          4          5          6
     1  O    8.836904  -0.080749   0.000958  -0.109738   0.068050   0.000829
     2  O   -0.080749   8.836958   0.000953  -0.109734   0.000825   0.068053
     3  O    0.000958   0.000953   8.751344  -0.013052   0.229793   0.229784
     4  P   -0.109738  -0.109734  -0.013052  14.595322  -0.018724  -0.018721
     5  Ca   0.068050   0.000825   0.229793  -0.018724  18.247918  -0.006710
     6  Ca   0.000829   0.068053   0.229784  -0.018721  -0.006710  18.247917
 Mulliken atomic charges:
              1
     1  O   -0.716254
     2  O   -0.716307
     3  O   -1.199779
     4  P    0.674647
     5  Ca   1.478846
     6  Ca   1.478847
 Sum of Mulliken charges=   1.00000
 Atomic charges with hydrogens summed into heavy atoms:
              1
     1  O   -0.716254
     2  O   -0.716307
     3  O   -1.199779
     4  P    0.674647
     5  Ca   1.478846
     6  Ca   1.478847
 Sum of Mulliken charges=   1.00000
 Electronic spatial extent (au):  <R**2>=  1251.4519
 Charge=     1.0000 electrons
 Dipole moment (field-independent basis, Debye):
    X=     0.0049    Y=    -3.9109    Z=    -0.0001  Tot=     3.9109
 Quadrupole moment (field-independent basis, Debye-Ang):
   XX=    -5.5307   YY=   -61.9082   ZZ=   -49.7214
   XY=     0.0644   XZ=     0.0052   YZ=    -0.0003
 Traceless Quadrupole moment (field-independent basis, Debye-Ang):
   XX=    33.5227   YY=   -22.8548   ZZ=   -10.6679
   XY=     0.0644   XZ=     0.0052   YZ=    -0.0003
 Octapole moment (field-independent basis, Debye-Ang**2):
  XXX=     0.2766  YYY=    16.7227  ZZZ=     0.0002  XYY=    -0.1961
  XXY=   -77.7789  XXZ=    -0.0005  XZZ=     0.0054  YZZ=    -4.6406
  YYZ=     0.0008  XYZ=     0.0012
 Hexadecapole moment (field-independent basis, Debye-Ang**3):
 XXXX=  -358.8657 YYYY=  -875.2224 ZZZZ=   -56.5361 XXXY=     0.2360
 XXXZ=     0.0196 YYYX=     0.3797 YYYZ=     0.0018 ZZZX=     0.0077
 ZZZY=     0.0001 XXYY=  -185.4753 XXZZ=   -96.5943 YYZZ=  -139.1161
 XXYZ=    -0.0006 YYXZ=     0.0081 ZZXY=     0.0532
 N-N= 4.732317888243D+02 E-N=-5.489472071214D+03  KE= 1.916553141828D+03
 Merz-Kollman atomic radii used.
 Read replacement radii for each type of atom:
 Rad(20) =   1.188000000000D+00
 Atom Element Radius
    1     8    1.40
    2     8    1.40
    3     8    1.40
    4    15    1.80
    5    20    1.19
    6    20    1.19

 **********************************************************************

            Electrostatic Properties Using The SCF Density

 **********************************************************************

       Atomic Center    1 is at  -1.278656  1.276624  0.000329
       Atomic Center    2 is at   1.275594  1.279409 -0.000251
       Atomic Center    3 is at   0.002228 -1.917218 -0.000011
       Atomic Center    4 is at  -0.002515  2.150322 -0.000031
       Atomic Center    5 is at  -1.870730 -0.936265 -0.000081
       Atomic Center    6 is at   1.872950 -0.932002  0.000079
     668 points will be used for fitting atomic charges
 Fitting point charges to eletrostatic potential
 Charges from ESP fit, RMS=   0.00500 RRMS=   0.03139:
 Charge=   1.00000 Dipole=     0.0039    -3.9222    -0.0003 Tot=     3.9222
              1
     1  O   -0.735530
     2  O   -0.739238
     3  O   -1.529274
     4  P    0.608389
     5  Ca   1.696634
     6  Ca   1.699021
 -----------------------------------------------------------------

              Electrostatic Properties (Atomic Units)

 -----------------------------------------------------------------
    Center     Electric         -------- Electric Field --------
               Potential          X             Y             Z
 -----------------------------------------------------------------
    1 Atom    -22.186430
    2 Atom    -22.186422
    3 Atom    -22.310655
    4 Atom    -53.918244
    5 Atom    -80.019166
    6 Atom    -80.019169
 -----------------------------------------------------------------
 1\1\GINC-N022\SP\RB3LYP\6-31+G(d,p)\Ca2O3P1(1+)\TIMN\12-Jun-2015\0\\# 
 b3lyp/6-31+G(d,p) int=ultrafine pop=(ReadRadii,MK)\\Ca2PO3_4.mol2_plus
 Qc.out.z51555.zip.xyz\\1,1\O,0,-1.27866,1.27662,0.00033\O,0,1.27559,1.
 27941,-0.00025\O,0,0.00223,-1.91722,-0.00001\P,0,-0.00252,2.15032,-0.0
 0003\Ca,0,-1.87073,-0.93627,-0.00008\Ca,0,1.87295,-0.932,0.00008\\Vers
 ion=EM64T-G03RevE.01\State=1-A\HF=-1922.1341363\RMSD=4.814e-05\Thermal
 =0.\Dipole=0.0019131,-1.5386529,-0.0000581\PG=C01 [X(Ca2O3P1)]\\@


 ALL MEN WHO EXPLORE
 DEPLORE
 THAT FRUSTRATING HURDLE
 THE GIRDLE.

         -- COLIN FLETCHER
 Job cpu time:  0 days  0 hours  0 minutes 28.8 seconds.
 File lengths (MBytes):  RWF=     22 Int=      0 D2E=      0 Chk=     10 Scr=      1
 Normal termination of Gaussian 03 at Fri Jun 12 17:35:04 2015.
