 Entering Gaussian System, Link 0=/home/timn/tmp/g03.e01/g03
 Input=Ca2PO3_22.mol2_plusQ.out.z51542.zip.xyz.gjf
 Output=Ca2PO3_22.mol2_plusQ.out.z51542.zip.xyz.out
 Initial command:
 /home/timn/tmp/g03.e01/l1.exe /home/timn/tmp/g03.e01/Gau-13129.inp -scrdir=/home/timn/tmp/g03.e01/
 Default is to use a total of   2 processors:
                                2 via shared-memory
                                1 via Linda
 Entering Link 1 = /home/timn/tmp/g03.e01/l1.exe PID=     13132.
  
 Copyright (c) 1988,1990,1992,1993,1995,1998,2003,2004,2007, Gaussian, Inc.
                  All Rights Reserved.
  
 This is the Gaussian(R) 03 program.  It is based on the
 the Gaussian(R) 98 system (copyright 1998, Gaussian, Inc.),
 the Gaussian(R) 94 system (copyright 1995, Gaussian, Inc.),
 the Gaussian 92(TM) system (copyright 1992, Gaussian, Inc.),
 the Gaussian 90(TM) system (copyright 1990, Gaussian, Inc.),
 the Gaussian 88(TM) system (copyright 1988, Gaussian, Inc.),
 the Gaussian 86(TM) system (copyright 1986, Carnegie Mellon
 University), and the Gaussian 82(TM) system (copyright 1983,
 Carnegie Mellon University). Gaussian is a federally registered
 trademark of Gaussian, Inc.
  
 This software contains proprietary and confidential information,
 including trade secrets, belonging to Gaussian, Inc.
  
 This software is provided under written license and may be
 used, copied, transmitted, or stored only in accord with that
 written license.
  
 The following legend is applicable only to US Government
 contracts under FAR:
  
                    RESTRICTED RIGHTS LEGEND
  
 Use, reproduction and disclosure by the US Government is
 subject to restrictions as set forth in subparagraphs (a)
 and (c) of the Commercial Computer Software - Restricted
 Rights clause in FAR 52.227-19.
  
 Gaussian, Inc.
 340 Quinnipiac St., Bldg. 40, Wallingford CT 06492
  
  
 ---------------------------------------------------------------
 Warning -- This program may not be used in any manner that
 competes with the business of Gaussian, Inc. or will provide
 assistance to any competitor of Gaussian, Inc.  The licensee
 of this program is prohibited from giving any competitor of
 Gaussian, Inc. access to this program.  By using this program,
 the user acknowledges that Gaussian, Inc. is engaged in the
 business of creating and licensing software in the field of
 computational chemistry and represents and warrants to the
 licensee that it is not a competitor of Gaussian, Inc. and that
 it will not use this program in any manner prohibited above.
 ---------------------------------------------------------------
  

 Cite this work as:
 Gaussian 03, Revision E.01,
 M. J. Frisch, G. W. Trucks, H. B. Schlegel, G. E. Scuseria, 
 M. A. Robb, J. R. Cheeseman, J. A. Montgomery, Jr., T. Vreven, 
 K. N. Kudin, J. C. Burant, J. M. Millam, S. S. Iyengar, J. Tomasi, 
 V. Barone, B. Mennucci, M. Cossi, G. Scalmani, N. Rega, 
 G. A. Petersson, H. Nakatsuji, M. Hada, M. Ehara, K. Toyota, 
 R. Fukuda, J. Hasegawa, M. Ishida, T. Nakajima, Y. Honda, O. Kitao, 
 H. Nakai, M. Klene, X. Li, J. E. Knox, H. P. Hratchian, J. B. Cross, 
 V. Bakken, C. Adamo, J. Jaramillo, R. Gomperts, R. E. Stratmann, 
 O. Yazyev, A. J. Austin, R. Cammi, C. Pomelli, J. W. Ochterski, 
 P. Y. Ayala, K. Morokuma, G. A. Voth, P. Salvador, J. J. Dannenberg, 
 V. G. Zakrzewski, S. Dapprich, A. D. Daniels, M. C. Strain, 
 O. Farkas, D. K. Malick, A. D. Rabuck, K. Raghavachari, 
 J. B. Foresman, J. V. Ortiz, Q. Cui, A. G. Baboul, S. Clifford, 
 J. Cioslowski, B. B. Stefanov, G. Liu, A. Liashenko, P. Piskorz, 
 I. Komaromi, R. L. Martin, D. J. Fox, T. Keith, M. A. Al-Laham, 
 C. Y. Peng, A. Nanayakkara, M. Challacombe, P. M. W. Gill, 
 B. Johnson, W. Chen, M. W. Wong, C. Gonzalez, and J. A. Pople, 
 Gaussian, Inc., Wallingford CT, 2004.
 
 ******************************************
 Gaussian 03:  EM64T-G03RevE.01 11-Sep-2007
                12-Jun-2015 
 ******************************************
 %nproc=2
 Will use up to    2 processors via shared memory.
 Default route:  MP2=Direct MaxDisk=2000MB
 ----------------------------------------------------
 # b3lyp/6-31+G(d,p) int=ultrafine pop=(ReadRadii,MK)
 ----------------------------------------------------

 Warning!  SCF SP cutoffs with diffuse functions may be unreliable.
 Consider SCF=Tight

 1/38=1/1;
 2/17=6,18=5,40=1/2;
 3/5=1,6=6,7=111,11=2,16=1,25=1,30=1,74=-5,75=5/1,2,3;
 4//1;
 5/5=2,32=1,38=5/2;
 6/7=2,8=2,9=2,10=2,15=8,20=101,28=1/1,2;
 99/5=1,9=1/99;
 ---------------------------------------
 Ca2PO3_22.mol2_plusQ.out.z51542.zip.xyz
 ---------------------------------------
 Symbolic Z-matrix:
 Charge =  1 Multiplicity = 1
 O                     2.17157   0.72882   0.00022 
 O                     2.28651  -0.69209   0.00007 
 O                    -0.251    -0.72101  -0.00019 
 P                     1.00921  -1.64278  -0.00005 
 Ca                    0.19366   1.81685  -0.00008 
 Ca                   -2.6334   -0.31104   0.00008 
 
                          Input orientation:                          
 ---------------------------------------------------------------------
 Center     Atomic     Atomic              Coordinates (Angstroms)
 Number     Number      Type              X           Y           Z
 ---------------------------------------------------------------------
    1          8             0        2.171570    0.728820    0.000220
    2          8             0        2.286510   -0.692090    0.000070
    3          8             0       -0.251000   -0.721010   -0.000190
    4         15             0        1.009210   -1.642780   -0.000050
    5         20             0        0.193660    1.816850   -0.000080
    6         20             0       -2.633400   -0.311040    0.000080
 ---------------------------------------------------------------------
                    Distance matrix (angstroms):
                    1          2          3          4          5
     1  O    0.000000
     2  O    1.425551   0.000000
     3  O    2.823270   2.537675   0.000000
     4  P    2.641130   1.592265   1.561342   0.000000
     5  Ca   2.257418   3.267231   2.576520   3.554457   0.000000
     6  Ca   4.916202   4.934644   2.417417   3.878420   3.538387
                    6
     6  Ca   0.000000
 Stoichiometry    Ca2O3P(1+)
 Framework group  C1[X(Ca2O3P)]
 Deg. of freedom    12
 Full point group                 C1
 Largest Abelian subgroup         C1      NOp   1
 Largest concise Abelian subgroup C1      NOp   1
                         Standard orientation:                         
 ---------------------------------------------------------------------
 Center     Atomic     Atomic              Coordinates (Angstroms)
 Number     Number      Type              X           Y           Z
 ---------------------------------------------------------------------
    1          8             0        2.171568    0.728822    0.000219
    2          8             0        2.286512   -0.692088    0.000069
    3          8             0       -0.250998   -0.721014   -0.000191
    4         15             0        1.009214   -1.642781   -0.000051
    5         20             0        0.193656    1.816847   -0.000081
    6         20             0       -2.633399   -0.311050    0.000079
 ---------------------------------------------------------------------
 Rotational constants (GHZ):      2.0728090      1.0747217      0.7077589
 Standard basis: 6-31+G(d,p) (6D, 7F)
 There are   134 symmetry adapted basis functions of A   symmetry.
 Integral buffers will be    131072 words long.
 Raffenetti 2 integral format.
 Two-electron integral symmetry is turned on.
   134 basis functions,   312 primitive gaussians,   134 cartesian basis functions
    39 alpha electrons       39 beta electrons
       nuclear repulsion energy       464.7982849354 Hartrees.
 NAtoms=    6 NActive=    6 NUniq=    6 SFac= 7.50D-01 NAtFMM=   80 NAOKFM=F Big=F
 One-electron integrals computed using PRISM.
 NBasis=   134 RedAO= T  NBF=   134
 NBsUse=   134 1.00D-06 NBFU=   134
 Harris functional with IExCor=  402 diagonalized for initial guess.
 ExpMin= 7.10D-03 ExpMax= 3.53D+04 ExpMxC= 5.30D+03 IAcc=3 IRadAn=         5 AccDes= 0.00D+00
 HarFok:  IExCor= 402 AccDes= 0.00D+00 IRadAn=         5 IDoV=1
 ScaDFX=  1.000000  1.000000  1.000000  1.000000
 Initial guess orbital symmetries:
       Occupied  (A) (A) (A) (A) (A) (A) (A) (A) (A) (A) (A) (A)
                 (A) (A) (A) (A) (A) (A) (A) (A) (A) (A) (A) (A)
                 (A) (A) (A) (A) (A) (A) (A) (A) (A) (A) (A) (A)
                 (A) (A) (A)
       Virtual   (A) (A) (A) (A) (A) (A) (A) (A) (A) (A) (A) (A)
                 (A) (A) (A) (A) (A) (A) (A) (A) (A) (A) (A) (A)
                 (A) (A) (A) (A) (A) (A) (A) (A) (A) (A) (A) (A)
                 (A) (A) (A) (A) (A) (A) (A) (A) (A) (A) (A) (A)
                 (A) (A) (A) (A) (A) (A) (A) (A) (A) (A) (A) (A)
                 (A) (A) (A) (A) (A) (A) (A) (A) (A) (A) (A) (A)
                 (A) (A) (A) (A) (A) (A) (A) (A) (A) (A) (A) (A)
                 (A) (A) (A) (A) (A) (A) (A) (A) (A) (A) (A)
 The electronic state of the initial guess is 1-A.
 Requested convergence on RMS density matrix=1.00D-04 within 128 cycles.
 Requested convergence on MAX density matrix=1.00D-02.
 Requested convergence on             energy=1.00D-02.
 No special actions if energy rises.
 Keep R1 integrals in memory in canonical form, NReq=    43203134.
 EnCoef did     2 forward-backward iterations
 EnCoef did     2 forward-backward iterations
 SCF Done:  E(RB+HF-LYP) =  -1921.93849078     A.U. after    8 cycles
             Convg  =    0.7449D-04             -V/T =  2.0028
             S**2   =   0.0000

 **********************************************************************

            Population analysis using the SCF density.

 **********************************************************************

 Orbital symmetries:
       Occupied  (A) (A) (A) (A) (A) (A) (A) (A) (A) (A) (A) (A)
                 (A) (A) (A) (A) (A) (A) (A) (A) (A) (A) (A) (A)
                 (A) (A) (A) (A) (A) (A) (A) (A) (A) (A) (A) (A)
                 (A) (A) (A)
       Virtual   (A) (A) (A) (A) (A) (A) (A) (A) (A) (A) (A) (A)
                 (A) (A) (A) (A) (A) (A) (A) (A) (A) (A) (A) (A)
                 (A) (A) (A) (A) (A) (A) (A) (A) (A) (A) (A) (A)
                 (A) (A) (A) (A) (A) (A) (A) (A) (A) (A) (A) (A)
                 (A) (A) (A) (A) (A) (A) (A) (A) (A) (A) (A) (A)
                 (A) (A) (A) (A) (A) (A) (A) (A) (A) (A) (A) (A)
                 (A) (A) (A) (A) (A) (A) (A) (A) (A) (A) (A) (A)
                 (A) (A) (A) (A) (A) (A) (A) (A) (A) (A) (A)
 The electronic state is 1-A.
 Alpha  occ. eigenvalues -- -145.56160-145.55549 -77.34225 -19.39179 -19.33410
 Alpha  occ. eigenvalues --  -19.29909 -15.63121 -15.62487 -12.76295 -12.76281
 Alpha  occ. eigenvalues --  -12.76235 -12.75705 -12.75677 -12.75564  -6.79980
 Alpha  occ. eigenvalues --   -4.96280  -4.96253  -4.95766  -2.00120  -1.99538
 Alpha  occ. eigenvalues --   -1.27637  -1.27464  -1.27351  -1.27233  -1.27112
 Alpha  occ. eigenvalues --   -1.26920  -1.25120  -1.16058  -0.99800  -0.73121
 Alpha  occ. eigenvalues --   -0.64418  -0.59913  -0.59035  -0.52758  -0.52659
 Alpha  occ. eigenvalues --   -0.47810  -0.40591  -0.39555  -0.30453
 Alpha virt. eigenvalues --   -0.24224  -0.22815  -0.17608  -0.17527  -0.15685
 Alpha virt. eigenvalues --   -0.14054  -0.13378  -0.11865  -0.10025  -0.09048
 Alpha virt. eigenvalues --   -0.08708  -0.06965  -0.06419  -0.06294  -0.06032
 Alpha virt. eigenvalues --   -0.06014  -0.05462  -0.04653  -0.04614  -0.03865
 Alpha virt. eigenvalues --   -0.03805  -0.03399  -0.01498  -0.00205   0.00222
 Alpha virt. eigenvalues --    0.01602   0.01902   0.02386   0.02405   0.02973
 Alpha virt. eigenvalues --    0.03036   0.03093   0.03950   0.04595   0.05200
 Alpha virt. eigenvalues --    0.05835   0.07816   0.09332   0.09821   0.10602
 Alpha virt. eigenvalues --    0.10777   0.12893   0.16504   0.17027   0.17701
 Alpha virt. eigenvalues --    0.18025   0.21200   0.23789   0.24578   0.26287
 Alpha virt. eigenvalues --    0.28943   0.30156   0.31374   0.34146   0.38365
 Alpha virt. eigenvalues --    0.44458   0.47838   0.50465   0.52542   0.53656
 Alpha virt. eigenvalues --    0.62838   0.67987   0.83962   0.88220   0.99150
 Alpha virt. eigenvalues --    1.01360   1.02708   1.08327   1.10209   1.11861
 Alpha virt. eigenvalues --    1.18243   1.18812   1.23030   1.29460   1.38718
 Alpha virt. eigenvalues --    1.40942   1.54349   1.56030   1.58390   1.65104
 Alpha virt. eigenvalues --    1.68974   1.78028   1.79580   1.84038   1.84997
 Alpha virt. eigenvalues --    1.93194   2.23278   2.24366   2.44934   2.61422
 Alpha virt. eigenvalues --    2.99155   3.37638   3.73927   3.82650   4.11004
          Condensed to atoms (all electrons):
              1          2          3          4          5          6
     1  O    8.361526   0.058880   0.002180  -0.068382   0.104786  -0.023252
     2  O    0.058880   8.119008  -0.016849   0.057965  -0.002921   0.035344
     3  O    0.002180  -0.016849   9.229903  -0.164061  -0.148448  -0.189606
     4  P   -0.068382   0.057965  -0.164061  14.352759  -0.020063   0.000526
     5  Ca   0.104786  -0.002921  -0.148448  -0.020063  18.771917   0.376371
     6  Ca  -0.023252   0.035344  -0.189606   0.000526   0.376371  19.159955
 Mulliken atomic charges:
              1
     1  O   -0.435737
     2  O   -0.251425
     3  O   -0.713118
     4  P    0.841257
     5  Ca   0.918359
     6  Ca   0.640663
 Sum of Mulliken charges=   1.00000
 Atomic charges with hydrogens summed into heavy atoms:
              1
     1  O   -0.435737
     2  O   -0.251425
     3  O   -0.713118
     4  P    0.841257
     5  Ca   0.918359
     6  Ca   0.640663
 Sum of Mulliken charges=   1.00000
 Electronic spatial extent (au):  <R**2>=  1377.0981
 Charge=     1.0000 electrons
 Dipole moment (field-independent basis, Debye):
    X=    -7.6880    Y=     1.5728    Z=    -0.0005  Tot=     7.8473
 Quadrupole moment (field-independent basis, Debye-Ang):
   XX=   -47.1818   YY=   -38.9350   ZZ=   -58.8128
   XY=     8.2813   XZ=    -0.0023   YZ=    -0.0017
 Traceless Quadrupole moment (field-independent basis, Debye-Ang):
   XX=     1.1281   YY=     9.3748   ZZ=   -10.5029
   XY=     8.2813   XZ=    -0.0023   YZ=    -0.0017
 Octapole moment (field-independent basis, Debye-Ang**2):
  XXX=   -76.3519  YYY=    28.5503  ZZZ=    -0.0018  XYY=    23.0484
  XXY=   -35.6287  XXZ=    -0.0014  XZZ=    10.8311  YZZ=    -2.4872
  YYZ=    -0.0022  XYZ=    -0.0003
 Hexadecapole moment (field-independent basis, Debye-Ang**3):
 XXXX= -1048.8644 YYYY=  -538.1617 ZZZZ=  -110.6432 XXXY=    70.6675
 XXXZ=    -0.0108 YYYX=    59.7440 YYYZ=    -0.0043 ZZZX=    -0.0003
 ZZZY=    -0.0021 XXYY=  -309.0970 XXZZ=  -219.4808 YYZZ=  -118.7639
 XXYZ=    -0.0030 YYXZ=    -0.0014 ZZXY=    12.4126
 N-N= 4.647982849354D+02 E-N=-5.468215469485D+03  KE= 1.916520151435D+03
 Merz-Kollman atomic radii used.
 Read replacement radii for each type of atom:
 Rad(20) =   1.188000000000D+00
 Atom Element Radius
    1     8    1.40
    2     8    1.40
    3     8    1.40
    4    15    1.80
    5    20    1.19
    6    20    1.19

 **********************************************************************

            Electrostatic Properties Using The SCF Density

 **********************************************************************

       Atomic Center    1 is at   2.171568  0.728822  0.000219
       Atomic Center    2 is at   2.286512 -0.692088  0.000069
       Atomic Center    3 is at  -0.250998 -0.721014 -0.000191
       Atomic Center    4 is at   1.009214 -1.642781 -0.000051
       Atomic Center    5 is at   0.193656  1.816847 -0.000081
       Atomic Center    6 is at  -2.633399 -0.311050  0.000079
     655 points will be used for fitting atomic charges
 Fitting point charges to eletrostatic potential
 Charges from ESP fit, RMS=   0.02807 RRMS=   0.16795:
 Charge=   1.00000 Dipole=   -10.1757     3.7129     0.0000 Tot=    10.8319
              1
     1  O   -0.145598
     2  O   -0.402553
     3  O   -0.482871
     4  P    0.585892
     5  Ca   0.782162
     6  Ca   0.662969
 -----------------------------------------------------------------

              Electrostatic Properties (Atomic Units)

 -----------------------------------------------------------------
    Center     Electric         -------- Electric Field --------
               Potential          X             Y             Z
 -----------------------------------------------------------------
    1 Atom    -22.174397
    2 Atom    -22.078027
    3 Atom    -22.131935
    4 Atom    -53.874860
    5 Atom    -79.989976
    6 Atom    -79.981078
 -----------------------------------------------------------------
 1\1\GINC-N029\SP\RB3LYP\6-31+G(d,p)\Ca2O3P1(1+)\TIMN\12-Jun-2015\0\\# 
 b3lyp/6-31+G(d,p) int=ultrafine pop=(ReadRadii,MK)\\Ca2PO3_22.mol2_plu
 sQ.out.z51542.zip.xyz\\1,1\O,0,2.17157,0.72882,0.00022\O,0,2.28651,-0.
 69209,0.00007\O,0,-0.251,-0.72101,-0.00019\P,0,1.00921,-1.64278,-0.000
 05\Ca,0,0.19366,1.81685,-0.00008\Ca,0,-2.6334,-0.31104,0.00008\\Versio
 n=EM64T-G03RevE.01\State=1-A\HF=-1921.9384908\RMSD=7.449e-05\Thermal=0
 .\Dipole=-3.0247079,0.6188007,-0.0002033\PG=C01 [X(Ca2O3P1)]\\@


 THE RED LIGHT IS ALWAYS LONGER THAN THE GREEN LIGHT.

                     -- PETER'S THEORY OF RELATIVITY
 Job cpu time:  0 days  0 hours  0 minutes 32.5 seconds.
 File lengths (MBytes):  RWF=     22 Int=      0 D2E=      0 Chk=     10 Scr=      1
 Normal termination of Gaussian 03 at Fri Jun 12 17:34:41 2015.
