 Entering Gaussian System, Link 0=/home/timn/tmp/g03.e01/g03
 Input=Ca3PO4_31.mol2c_plusQc.z51697.zip.xyz.gjf
 Output=Ca3PO4_31.mol2c_plusQc.z51697.zip.xyz.out
 Initial command:
 /home/timn/tmp/g03.e01/l1.exe /home/timn/tmp/g03.e01/Gau-16302.inp -scrdir=/home/timn/tmp/g03.e01/
 Default is to use a total of   2 processors:
                                2 via shared-memory
                                1 via Linda
 Entering Link 1 = /home/timn/tmp/g03.e01/l1.exe PID=     16303.
  
 Copyright (c) 1988,1990,1992,1993,1995,1998,2003,2004,2007, Gaussian, Inc.
                  All Rights Reserved.
  
 This is the Gaussian(R) 03 program.  It is based on the
 the Gaussian(R) 98 system (copyright 1998, Gaussian, Inc.),
 the Gaussian(R) 94 system (copyright 1995, Gaussian, Inc.),
 the Gaussian 92(TM) system (copyright 1992, Gaussian, Inc.),
 the Gaussian 90(TM) system (copyright 1990, Gaussian, Inc.),
 the Gaussian 88(TM) system (copyright 1988, Gaussian, Inc.),
 the Gaussian 86(TM) system (copyright 1986, Carnegie Mellon
 University), and the Gaussian 82(TM) system (copyright 1983,
 Carnegie Mellon University). Gaussian is a federally registered
 trademark of Gaussian, Inc.
  
 This software contains proprietary and confidential information,
 including trade secrets, belonging to Gaussian, Inc.
  
 This software is provided under written license and may be
 used, copied, transmitted, or stored only in accord with that
 written license.
  
 The following legend is applicable only to US Government
 contracts under FAR:
  
                    RESTRICTED RIGHTS LEGEND
  
 Use, reproduction and disclosure by the US Government is
 subject to restrictions as set forth in subparagraphs (a)
 and (c) of the Commercial Computer Software - Restricted
 Rights clause in FAR 52.227-19.
  
 Gaussian, Inc.
 340 Quinnipiac St., Bldg. 40, Wallingford CT 06492
  
  
 ---------------------------------------------------------------
 Warning -- This program may not be used in any manner that
 competes with the business of Gaussian, Inc. or will provide
 assistance to any competitor of Gaussian, Inc.  The licensee
 of this program is prohibited from giving any competitor of
 Gaussian, Inc. access to this program.  By using this program,
 the user acknowledges that Gaussian, Inc. is engaged in the
 business of creating and licensing software in the field of
 computational chemistry and represents and warrants to the
 licensee that it is not a competitor of Gaussian, Inc. and that
 it will not use this program in any manner prohibited above.
 ---------------------------------------------------------------
  

 Cite this work as:
 Gaussian 03, Revision E.01,
 M. J. Frisch, G. W. Trucks, H. B. Schlegel, G. E. Scuseria, 
 M. A. Robb, J. R. Cheeseman, J. A. Montgomery, Jr., T. Vreven, 
 K. N. Kudin, J. C. Burant, J. M. Millam, S. S. Iyengar, J. Tomasi, 
 V. Barone, B. Mennucci, M. Cossi, G. Scalmani, N. Rega, 
 G. A. Petersson, H. Nakatsuji, M. Hada, M. Ehara, K. Toyota, 
 R. Fukuda, J. Hasegawa, M. Ishida, T. Nakajima, Y. Honda, O. Kitao, 
 H. Nakai, M. Klene, X. Li, J. E. Knox, H. P. Hratchian, J. B. Cross, 
 V. Bakken, C. Adamo, J. Jaramillo, R. Gomperts, R. E. Stratmann, 
 O. Yazyev, A. J. Austin, R. Cammi, C. Pomelli, J. W. Ochterski, 
 P. Y. Ayala, K. Morokuma, G. A. Voth, P. Salvador, J. J. Dannenberg, 
 V. G. Zakrzewski, S. Dapprich, A. D. Daniels, M. C. Strain, 
 O. Farkas, D. K. Malick, A. D. Rabuck, K. Raghavachari, 
 J. B. Foresman, J. V. Ortiz, Q. Cui, A. G. Baboul, S. Clifford, 
 J. Cioslowski, B. B. Stefanov, G. Liu, A. Liashenko, P. Piskorz, 
 I. Komaromi, R. L. Martin, D. J. Fox, T. Keith, M. A. Al-Laham, 
 C. Y. Peng, A. Nanayakkara, M. Challacombe, P. M. W. Gill, 
 B. Johnson, W. Chen, M. W. Wong, C. Gonzalez, and J. A. Pople, 
 Gaussian, Inc., Wallingford CT, 2004.
 
 ******************************************
 Gaussian 03:  EM64T-G03RevE.01 11-Sep-2007
                12-Jun-2015 
 ******************************************
 %nproc=2
 Will use up to    2 processors via shared memory.
 Default route:  MP2=Direct MaxDisk=2000MB
 ----------------------------------------------------
 # b3lyp/6-31+G(d,p) int=ultrafine pop=(ReadRadii,MK)
 ----------------------------------------------------

 Warning!  SCF SP cutoffs with diffuse functions may be unreliable.
 Consider SCF=Tight

 1/38=1/1;
 2/17=6,18=5,40=1/2;
 3/5=1,6=6,7=111,11=2,16=1,25=1,30=1,74=-5,75=5/1,2,3;
 4//1;
 5/5=2,32=1,38=5/2;
 6/7=2,8=2,9=2,10=2,15=8,20=101,28=1/1,2;
 99/5=1,9=1/99;
 -------------------------------------
 Ca3PO4_31.mol2c_plusQc.z51697.zip.xyz
 -------------------------------------
 Symbolic Z-matrix:
 Charge =  1 Multiplicity = 1
 O                     0.6137   -1.34705   0.92242 
 O                     0.00176   0.00045  -1.71143 
 O                    -1.47557   0.14046   0.92079 
 O                     0.85832   1.20535   0.92364 
 P                    -0.00141  -0.00131   1.71783 
 Ca                   -0.80863   1.76992  -0.56991 
 Ca                   -1.12845  -1.58447  -0.57172 
 Ca                    1.93886  -0.18415  -0.56892 
 
                          Input orientation:                          
 ---------------------------------------------------------------------
 Center     Atomic     Atomic              Coordinates (Angstroms)
 Number     Number      Type              X           Y           Z
 ---------------------------------------------------------------------
    1          8             0        0.613700   -1.347050    0.922420
    2          8             0        0.001760    0.000450   -1.711430
    3          8             0       -1.475570    0.140460    0.920790
    4          8             0        0.858320    1.205350    0.923640
    5         15             0       -0.001410   -0.001310    1.717830
    6         20             0       -0.808630    1.769920   -0.569910
    7         20             0       -1.128450   -1.584470   -0.571720
    8         20             0        1.938860   -0.184150   -0.568920
 ---------------------------------------------------------------------
                    Distance matrix (angstroms):
                    1          2          3          4          5
     1  O    0.000000
     2  O    3.021157   0.000000
     3  O    2.564710   3.021703   0.000000
     4  O    2.564096   3.021436   2.565354   0.000000
     5  P    1.679897   3.429262   1.681820   1.681042   0.000000
     6  Ca   3.737054   2.256285   2.306975   2.308279   3.003767
     7  Ca   2.307360   2.255723   2.307263   3.737172   3.003107
     8  Ca   2.309216   2.256493   3.739377   2.307815   3.004547
                    6          7          8
     6  Ca   0.000000
     7  Ca   3.369602   0.000000
     8  Ca   3.371512   3.371838   0.000000
 Stoichiometry    Ca3O4P(1+)
 Framework group  C1[X(Ca3O4P)]
 Deg. of freedom    18
 Full point group                 C1
 Largest Abelian subgroup         C1      NOp   1
 Largest concise Abelian subgroup C1      NOp   1
                         Standard orientation:                         
 ---------------------------------------------------------------------
 Center     Atomic     Atomic              Coordinates (Angstroms)
 Number     Number      Type              X           Y           Z
 ---------------------------------------------------------------------
    1          8             0        0.613881   -1.346967    0.922422
    2          8             0        0.001759    0.000450   -1.711428
    3          8             0       -1.475590    0.140260    0.920792
    4          8             0        0.858156    1.205466    0.923642
    5         15             0       -0.001411   -0.001310    1.717832
    6         20             0       -0.808871    1.769810   -0.569908
    7         20             0       -1.128237   -1.584623   -0.571718
    8         20             0        1.938884   -0.183888   -0.568918
 ---------------------------------------------------------------------
 Rotational constants (GHZ):      1.0158824      1.0150025      0.9035475
 Standard basis: 6-31+G(d,p) (6D, 7F)
 There are   180 symmetry adapted basis functions of A   symmetry.
 Integral buffers will be    131072 words long.
 Raffenetti 2 integral format.
 Two-electron integral symmetry is turned on.
   180 basis functions,   424 primitive gaussians,   180 cartesian basis functions
    53 alpha electrons       53 beta electrons
       nuclear repulsion energy       952.6837827252 Hartrees.
 NAtoms=    8 NActive=    8 NUniq=    8 SFac= 7.50D-01 NAtFMM=   80 NAOKFM=F Big=F
 One-electron integrals computed using PRISM.
 NBasis=   180 RedAO= T  NBF=   180
 NBsUse=   180 1.00D-06 NBFU=   180
 Harris functional with IExCor=  402 diagonalized for initial guess.
 ExpMin= 7.10D-03 ExpMax= 3.53D+04 ExpMxC= 5.30D+03 IAcc=3 IRadAn=         5 AccDes= 0.00D+00
 HarFok:  IExCor= 402 AccDes= 0.00D+00 IRadAn=         5 IDoV=1
 ScaDFX=  1.000000  1.000000  1.000000  1.000000
 Initial guess orbital symmetries:
       Occupied  (A) (A) (A) (A) (A) (A) (A) (A) (A) (A) (A) (A)
                 (A) (A) (A) (A) (A) (A) (A) (A) (A) (A) (A) (A)
                 (A) (A) (A) (A) (A) (A) (A) (A) (A) (A) (A) (A)
                 (A) (A) (A) (A) (A) (A) (A) (A) (A) (A) (A) (A)
                 (A) (A) (A) (A) (A)
       Virtual   (A) (A) (A) (A) (A) (A) (A) (A) (A) (A) (A) (A)
                 (A) (A) (A) (A) (A) (A) (A) (A) (A) (A) (A) (A)
                 (A) (A) (A) (A) (A) (A) (A) (A) (A) (A) (A) (A)
                 (A) (A) (A) (A) (A) (A) (A) (A) (A) (A) (A) (A)
                 (A) (A) (A) (A) (A) (A) (A) (A) (A) (A) (A) (A)
                 (A) (A) (A) (A) (A) (A) (A) (A) (A) (A) (A) (A)
                 (A) (A) (A) (A) (A) (A) (A) (A) (A) (A) (A) (A)
                 (A) (A) (A) (A) (A) (A) (A) (A) (A) (A) (A) (A)
                 (A) (A) (A) (A) (A) (A) (A) (A) (A) (A) (A) (A)
                 (A) (A) (A) (A) (A) (A) (A) (A) (A) (A) (A) (A)
                 (A) (A) (A) (A) (A) (A) (A)
 The electronic state of the initial guess is 1-A.
 Requested convergence on RMS density matrix=1.00D-04 within 128 cycles.
 Requested convergence on MAX density matrix=1.00D-02.
 Requested convergence on             energy=1.00D-02.
 No special actions if energy rises.
 SCF Done:  E(RB+HF-LYP) =  -2675.07103770     A.U. after    8 cycles
             Convg  =    0.8191D-04             -V/T =  2.0028
             S**2   =   0.0000

 **********************************************************************

            Population analysis using the SCF density.

 **********************************************************************

 Orbital symmetries:
       Occupied  (A) (A) (A) (A) (A) (A) (A) (A) (A) (A) (A) (A)
                 (A) (A) (A) (A) (A) (A) (A) (A) (A) (A) (A) (A)
                 (A) (A) (A) (A) (A) (A) (A) (A) (A) (A) (A) (A)
                 (A) (A) (A) (A) (A) (A) (A) (A) (A) (A) (A) (A)
                 (A) (A) (A) (A) (A)
       Virtual   (A) (A) (A) (A) (A) (A) (A) (A) (A) (A) (A) (A)
                 (A) (A) (A) (A) (A) (A) (A) (A) (A) (A) (A) (A)
                 (A) (A) (A) (A) (A) (A) (A) (A) (A) (A) (A) (A)
                 (A) (A) (A) (A) (A) (A) (A) (A) (A) (A) (A) (A)
                 (A) (A) (A) (A) (A) (A) (A) (A) (A) (A) (A) (A)
                 (A) (A) (A) (A) (A) (A) (A) (A) (A) (A) (A) (A)
                 (A) (A) (A) (A) (A) (A) (A) (A) (A) (A) (A) (A)
                 (A) (A) (A) (A) (A) (A) (A) (A) (A) (A) (A) (A)
                 (A) (A) (A) (A) (A) (A) (A) (A) (A) (A) (A) (A)
                 (A) (A) (A) (A) (A) (A) (A) (A) (A) (A) (A) (A)
                 (A) (A) (A) (A) (A) (A) (A)
 The electronic state is 1-A.
 Alpha  occ. eigenvalues -- -145.49656-145.49627-145.49621 -77.25049 -19.21267
 Alpha  occ. eigenvalues --  -19.21211 -19.21175 -19.15931 -15.56490 -15.56462
 Alpha  occ. eigenvalues --  -15.56456 -12.69689 -12.69666 -12.69660 -12.69655
 Alpha  occ. eigenvalues --  -12.69637 -12.69632 -12.69619 -12.69590 -12.69585
 Alpha  occ. eigenvalues --   -6.70078  -4.86427  -4.86427  -4.85891  -1.93822
 Alpha  occ. eigenvalues --   -1.93743  -1.93726  -1.22372  -1.21696  -1.21687
 Alpha  occ. eigenvalues --   -1.21303  -1.21136  -1.21066  -1.21055  -1.20647
 Alpha  occ. eigenvalues --   -1.20630  -1.06756  -1.00374  -1.00327  -0.90928
 Alpha  occ. eigenvalues --   -0.62635  -0.50528  -0.50517  -0.47956  -0.43356
 Alpha  occ. eigenvalues --   -0.43349  -0.38348  -0.38327  -0.38172  -0.36126
 Alpha  occ. eigenvalues --   -0.36124  -0.34579  -0.30849
 Alpha virt. eigenvalues --   -0.19948  -0.18032  -0.18020  -0.12555  -0.12551
 Alpha virt. eigenvalues --   -0.10893  -0.09481  -0.09473  -0.08339  -0.07771
 Alpha virt. eigenvalues --   -0.06545  -0.06115  -0.06112  -0.04763  -0.04714
 Alpha virt. eigenvalues --   -0.04712  -0.04672  -0.04472  -0.04470  -0.04004
 Alpha virt. eigenvalues --   -0.04002  -0.03231  -0.02944  -0.02941  -0.02360
 Alpha virt. eigenvalues --   -0.02352  -0.00865   0.01030   0.02177   0.02619
 Alpha virt. eigenvalues --    0.02620   0.04573   0.04581   0.05230   0.06003
 Alpha virt. eigenvalues --    0.06008   0.06292   0.06297   0.07294   0.07297
 Alpha virt. eigenvalues --    0.07383   0.07666   0.07670   0.07823   0.08473
 Alpha virt. eigenvalues --    0.10677   0.10693   0.11338   0.11803   0.13671
 Alpha virt. eigenvalues --    0.15677   0.15686   0.19890   0.19895   0.20378
 Alpha virt. eigenvalues --    0.22084   0.22096   0.23493   0.23991   0.25320
 Alpha virt. eigenvalues --    0.25957   0.25969   0.30039   0.31455   0.31457
 Alpha virt. eigenvalues --    0.35748   0.35991   0.36016   0.37859   0.39078
 Alpha virt. eigenvalues --    0.39101   0.39783   0.45817   0.45847   0.53619
 Alpha virt. eigenvalues --    0.53639   0.55840   0.63372   0.63380   0.67692
 Alpha virt. eigenvalues --    0.82901   0.86933   0.86987   0.94080   0.94156
 Alpha virt. eigenvalues --    1.14553   1.16757   1.16774   1.18036   1.20803
 Alpha virt. eigenvalues --    1.21970   1.21986   1.23404   1.23421   1.28211
 Alpha virt. eigenvalues --    1.34158   1.34189   1.36428   1.54459   1.54477
 Alpha virt. eigenvalues --    1.57750   1.68388   1.71625   1.73145   1.73164
 Alpha virt. eigenvalues --    1.77479   1.77489   1.87080   1.87384   1.87388
 Alpha virt. eigenvalues --    1.88086   1.92080   1.92083   1.93346   1.98429
 Alpha virt. eigenvalues --    1.98452   2.03028   2.03053   2.14819   2.38203
 Alpha virt. eigenvalues --    2.55097   2.55260   3.54382   4.05640   4.14270
 Alpha virt. eigenvalues --    4.14307   4.31262
          Condensed to atoms (all electrons):
              1          2          3          4          5          6
     1  O    8.966975   0.023971   0.058803   0.058732  -0.201753   0.006270
     2  O    0.023971   8.852678   0.023965   0.023927  -0.040012   0.122081
     3  O    0.058803   0.023965   8.965172   0.058575  -0.200661   0.059989
     4  O    0.058732   0.023927   0.058575   8.965940  -0.200910   0.059877
     5  P   -0.201753  -0.040012  -0.200661  -0.200910  14.444010   0.033597
     6  Ca   0.006270   0.122081   0.059989   0.059877   0.033597  18.396959
     7  Ca   0.059735   0.122169   0.059940   0.006258   0.033893  -0.047761
     8  Ca   0.059611   0.122227   0.006137   0.059799   0.034039  -0.047397
              7          8
     1  O    0.059735   0.059611
     2  O    0.122169   0.122227
     3  O    0.059940   0.006137
     4  O    0.006258   0.059799
     5  P    0.033893   0.034039
     6  Ca  -0.047761  -0.047397
     7  Ca  18.397092  -0.047553
     8  Ca  -0.047553  18.396078
 Mulliken atomic charges:
              1
     1  O   -1.032344
     2  O   -1.251005
     3  O   -1.031920
     4  O   -1.032197
     5  P    1.097797
     6  Ca   1.416384
     7  Ca   1.416226
     8  Ca   1.417059
 Sum of Mulliken charges=   1.00000
 Atomic charges with hydrogens summed into heavy atoms:
              1
     1  O   -1.032344
     2  O   -1.251005
     3  O   -1.031920
     4  O   -1.032197
     5  P    1.097797
     6  Ca   1.416384
     7  Ca   1.416226
     8  Ca   1.417059
 Sum of Mulliken charges=   1.00000
 Electronic spatial extent (au):  <R**2>=  1510.2631
 Charge=     1.0000 electrons
 Dipole moment (field-independent basis, Debye):
    X=     0.0165    Y=     0.0059    Z=    -8.2315  Tot=     8.2315
 Quadrupole moment (field-independent basis, Debye-Ang):
   XX=   -39.9959   YY=   -40.0516   ZZ=   -90.0169
   XY=    -0.0070   XZ=     0.0407   YZ=     0.0158
 Traceless Quadrupole moment (field-independent basis, Debye-Ang):
   XX=    16.6922   YY=    16.6366   ZZ=   -33.3288
   XY=    -0.0070   XZ=     0.0407   YZ=     0.0158
 Octapole moment (field-independent basis, Debye-Ang**2):
  XXX=    56.5146  YYY=    16.5251  ZZZ=    -1.7156  XYY=   -56.1764
  XXY=   -16.4546  XXZ=   -46.6691  XZZ=    -0.0654  YZZ=    -0.0381
  YYZ=   -46.6768  XYZ=    -0.0422
 Hexadecapole moment (field-independent basis, Debye-Ang**3):
 XXXX=  -416.2249 YYYY=  -415.9232 ZZZZ=  -721.6051 XXXY=    -0.0301
 XXXZ=   -14.6824 YYYX=    -0.0721 YYYZ=    -4.2542 ZZZX=     0.2066
 ZZZY=     0.0780 XXYY=  -138.7376 XXZZ=  -187.6685 YYZZ=  -187.5455
 XXYZ=     4.3434 YYXZ=    14.8787 ZZXY=     0.0098
 N-N= 9.526837827252D+02 E-N=-8.229841457010D+03  KE= 2.667693220757D+03
 Merz-Kollman atomic radii used.
 Read replacement radii for each type of atom:
 Rad(20) =   1.188000000000D+00
 Atom Element Radius
    1     8    1.40
    2     8    1.40
    3     8    1.40
    4     8    1.40
    5    15    1.80
    6    20    1.19
    7    20    1.19
    8    20    1.19

 **********************************************************************

            Electrostatic Properties Using The SCF Density

 **********************************************************************

       Atomic Center    1 is at   0.613881 -1.346967  0.922422
       Atomic Center    2 is at   0.001759  0.000450 -1.711428
       Atomic Center    3 is at  -1.475590  0.140260  0.920792
       Atomic Center    4 is at   0.858156  1.205466  0.923642
       Atomic Center    5 is at  -0.001411 -0.001310  1.717832
       Atomic Center    6 is at  -0.808871  1.769810 -0.569908
       Atomic Center    7 is at  -1.128237 -1.584623 -0.571718
       Atomic Center    8 is at   1.938884 -0.183888 -0.568918
     681 points will be used for fitting atomic charges
 Fitting point charges to eletrostatic potential
 Charges from ESP fit, RMS=   0.00627 RRMS=   0.03851:
 Charge=   1.00000 Dipole=     0.0062    -0.0005    -8.4188 Tot=     8.4188
              1
     1  O   -0.947808
     2  O   -1.638309
     3  O   -0.946214
     4  O   -0.948354
     5  P    0.520043
     6  Ca   1.652852
     7  Ca   1.653709
     8  Ca   1.654081
 -----------------------------------------------------------------

              Electrostatic Properties (Atomic Units)

 -----------------------------------------------------------------
    Center     Electric         -------- Electric Field --------
               Potential          X             Y             Z
 -----------------------------------------------------------------
    1 Atom    -22.252146
    2 Atom    -22.290658
    3 Atom    -22.250472
    4 Atom    -22.251166
    5 Atom    -53.968060
    6 Atom    -80.043320
    7 Atom    -80.043431
    8 Atom    -80.043123
 -----------------------------------------------------------------
 1\1\GINC-N028\SP\RB3LYP\6-31+G(d,p)\Ca3O4P1(1+)\TIMN\12-Jun-2015\0\\# 
 b3lyp/6-31+G(d,p) int=ultrafine pop=(ReadRadii,MK)\\Ca3PO4_31.mol2c_pl
 usQc.z51697.zip.xyz\\1,1\O,0,0.6137,-1.34705,0.92242\O,0,0.00176,0.000
 45,-1.71143\O,0,-1.47557,0.14046,0.92079\O,0,0.85832,1.20535,0.92364\P
 ,0,-0.00141,-0.00131,1.71783\Ca,0,-0.80863,1.76992,-0.56991\Ca,0,-1.12
 845,-1.58447,-0.57172\Ca,0,1.93886,-0.18415,-0.56892\\Version=EM64T-G0
 3RevE.01\State=1-A\HF=-2675.0710377\RMSD=8.191e-05\Thermal=0.\Dipole=0
 .00651,0.0023226,-3.2385222\PG=C01 [X(Ca3O4P1)]\\@


 WE LEARN WISDOM FROM FAILURE MUCH MORE THAN FROM SUCCESS.
 WE DISCOVER WHAT WILL DO BY FINDING OUT WHAT WILL NOT DO...
 AND HE WHO NEVER MADE A MISTAKE NEVER MADE A DISCOVERY
 Job cpu time:  0 days  0 hours  1 minutes 42.2 seconds.
 File lengths (MBytes):  RWF=     32 Int=      0 D2E=      0 Chk=     11 Scr=      1
 Normal termination of Gaussian 03 at Fri Jun 12 17:42:58 2015.
