 Entering Gaussian System, Link 0=/home/timn/tmp/g03.e01/g03
 Input=Ca3PO4_189.mol2cc_plusQc.z51690.zip.xyz.gjf
 Output=Ca3PO4_189.mol2cc_plusQc.z51690.zip.xyz.out
 Initial command:
 /home/timn/tmp/g03.e01/l1.exe /home/timn/tmp/g03.e01/Gau-11756.inp -scrdir=/home/timn/tmp/g03.e01/
 Default is to use a total of   2 processors:
                                2 via shared-memory
                                1 via Linda
 Entering Link 1 = /home/timn/tmp/g03.e01/l1.exe PID=     11757.
  
 Copyright (c) 1988,1990,1992,1993,1995,1998,2003,2004,2007, Gaussian, Inc.
                  All Rights Reserved.
  
 This is the Gaussian(R) 03 program.  It is based on the
 the Gaussian(R) 98 system (copyright 1998, Gaussian, Inc.),
 the Gaussian(R) 94 system (copyright 1995, Gaussian, Inc.),
 the Gaussian 92(TM) system (copyright 1992, Gaussian, Inc.),
 the Gaussian 90(TM) system (copyright 1990, Gaussian, Inc.),
 the Gaussian 88(TM) system (copyright 1988, Gaussian, Inc.),
 the Gaussian 86(TM) system (copyright 1986, Carnegie Mellon
 University), and the Gaussian 82(TM) system (copyright 1983,
 Carnegie Mellon University). Gaussian is a federally registered
 trademark of Gaussian, Inc.
  
 This software contains proprietary and confidential information,
 including trade secrets, belonging to Gaussian, Inc.
  
 This software is provided under written license and may be
 used, copied, transmitted, or stored only in accord with that
 written license.
  
 The following legend is applicable only to US Government
 contracts under FAR:
  
                    RESTRICTED RIGHTS LEGEND
  
 Use, reproduction and disclosure by the US Government is
 subject to restrictions as set forth in subparagraphs (a)
 and (c) of the Commercial Computer Software - Restricted
 Rights clause in FAR 52.227-19.
  
 Gaussian, Inc.
 340 Quinnipiac St., Bldg. 40, Wallingford CT 06492
  
  
 ---------------------------------------------------------------
 Warning -- This program may not be used in any manner that
 competes with the business of Gaussian, Inc. or will provide
 assistance to any competitor of Gaussian, Inc.  The licensee
 of this program is prohibited from giving any competitor of
 Gaussian, Inc. access to this program.  By using this program,
 the user acknowledges that Gaussian, Inc. is engaged in the
 business of creating and licensing software in the field of
 computational chemistry and represents and warrants to the
 licensee that it is not a competitor of Gaussian, Inc. and that
 it will not use this program in any manner prohibited above.
 ---------------------------------------------------------------
  

 Cite this work as:
 Gaussian 03, Revision E.01,
 M. J. Frisch, G. W. Trucks, H. B. Schlegel, G. E. Scuseria, 
 M. A. Robb, J. R. Cheeseman, J. A. Montgomery, Jr., T. Vreven, 
 K. N. Kudin, J. C. Burant, J. M. Millam, S. S. Iyengar, J. Tomasi, 
 V. Barone, B. Mennucci, M. Cossi, G. Scalmani, N. Rega, 
 G. A. Petersson, H. Nakatsuji, M. Hada, M. Ehara, K. Toyota, 
 R. Fukuda, J. Hasegawa, M. Ishida, T. Nakajima, Y. Honda, O. Kitao, 
 H. Nakai, M. Klene, X. Li, J. E. Knox, H. P. Hratchian, J. B. Cross, 
 V. Bakken, C. Adamo, J. Jaramillo, R. Gomperts, R. E. Stratmann, 
 O. Yazyev, A. J. Austin, R. Cammi, C. Pomelli, J. W. Ochterski, 
 P. Y. Ayala, K. Morokuma, G. A. Voth, P. Salvador, J. J. Dannenberg, 
 V. G. Zakrzewski, S. Dapprich, A. D. Daniels, M. C. Strain, 
 O. Farkas, D. K. Malick, A. D. Rabuck, K. Raghavachari, 
 J. B. Foresman, J. V. Ortiz, Q. Cui, A. G. Baboul, S. Clifford, 
 J. Cioslowski, B. B. Stefanov, G. Liu, A. Liashenko, P. Piskorz, 
 I. Komaromi, R. L. Martin, D. J. Fox, T. Keith, M. A. Al-Laham, 
 C. Y. Peng, A. Nanayakkara, M. Challacombe, P. M. W. Gill, 
 B. Johnson, W. Chen, M. W. Wong, C. Gonzalez, and J. A. Pople, 
 Gaussian, Inc., Wallingford CT, 2004.
 
 ******************************************
 Gaussian 03:  EM64T-G03RevE.01 11-Sep-2007
                12-Jun-2015 
 ******************************************
 %nproc=2
 Will use up to    2 processors via shared memory.
 Default route:  MP2=Direct MaxDisk=2000MB
 ----------------------------------------------------
 # b3lyp/6-31+G(d,p) int=ultrafine pop=(ReadRadii,MK)
 ----------------------------------------------------

 Warning!  SCF SP cutoffs with diffuse functions may be unreliable.
 Consider SCF=Tight

 1/38=1/1;
 2/17=6,18=5,40=1/2;
 3/5=1,6=6,7=111,11=2,16=1,25=1,30=1,74=-5,75=5/1,2,3;
 4//1;
 5/5=2,32=1,38=5/2;
 6/7=2,8=2,9=2,10=2,15=8,20=101,28=1/1,2;
 99/5=1,9=1/99;
 ---------------------------------------
 Ca3PO4_189.mol2cc_plusQc.z51690.zip.xyz
 ---------------------------------------
 Symbolic Z-matrix:
 Charge =  1 Multiplicity = 1
 O                    -3.36051   0.66631  -0.0063 
 O                     0.88875   0.95878   0.01589 
 O                    -1.55727  -1.02471  -0.00277 
 O                     2.96307  -1.32819  -0.01194 
 P                    -3.11278  -0.85288  -0.00786 
 Ca                    0.80594  -1.42216   0.01186 
 Ca                   -1.18509   1.55894   0.004 
 Ca                    3.14011   0.794    -0.00792 
 
                          Input orientation:                          
 ---------------------------------------------------------------------
 Center     Atomic     Atomic              Coordinates (Angstroms)
 Number     Number      Type              X           Y           Z
 ---------------------------------------------------------------------
    1          8             0       -3.360510    0.666310   -0.006300
    2          8             0        0.888750    0.958780    0.015890
    3          8             0       -1.557270   -1.024710   -0.002770
    4          8             0        2.963070   -1.328190   -0.011940
    5         15             0       -3.112780   -0.852880   -0.007860
    6         20             0        0.805940   -1.422160    0.011860
    7         20             0       -1.185090    1.558940    0.004000
    8         20             0        3.140110    0.794000   -0.007920
 ---------------------------------------------------------------------
                    Distance matrix (angstroms):
                    1          2          3          4          5
     1  O    0.000000
     2  O    4.259371   0.000000
     3  O    2.472091   3.149221   0.000000
     4  O    6.630666   3.087687   4.530525   0.000000
     5  P    1.539257   4.392598   1.564980   6.094415   0.000000
     6  Ca   4.660616   2.382383   2.396444   2.159307   3.959903
     7  Ca   2.351456   2.158969   2.610328   5.054009   3.087556
     8  Ca   6.501874   2.257508   5.037173   2.129566   6.466131
                    6          7          8
     6  Ca   0.000000
     7  Ca   3.584860   0.000000
     8  Ca   3.218712   4.392338   0.000000
 Stoichiometry    Ca3O4P(1+)
 Framework group  C1[X(Ca3O4P)]
 Deg. of freedom    18
 Full point group                 C1
 Largest Abelian subgroup         C1      NOp   1
 Largest concise Abelian subgroup C1      NOp   1
                         Standard orientation:                         
 ---------------------------------------------------------------------
 Center     Atomic     Atomic              Coordinates (Angstroms)
 Number     Number      Type              X           Y           Z
 ---------------------------------------------------------------------
    1          8             0       -3.360509    0.666309   -0.006299
    2          8             0        0.888751    0.958781    0.015891
    3          8             0       -1.557268   -1.024710   -0.002769
    4          8             0        2.963072   -1.328188   -0.011939
    5         15             0       -3.112778   -0.852881   -0.007859
    6         20             0        0.805942   -1.422159    0.011861
    7         20             0       -1.185089    1.558940    0.004001
    8         20             0        3.140111    0.794002   -0.007919
 ---------------------------------------------------------------------
 Rotational constants (GHZ):      1.7278287      0.4399542      0.3506736
 Standard basis: 6-31+G(d,p) (6D, 7F)
 There are   180 symmetry adapted basis functions of A   symmetry.
 Integral buffers will be    131072 words long.
 Raffenetti 2 integral format.
 Two-electron integral symmetry is turned on.
   180 basis functions,   424 primitive gaussians,   180 cartesian basis functions
    53 alpha electrons       53 beta electrons
       nuclear repulsion energy       811.4767617450 Hartrees.
 NAtoms=    8 NActive=    8 NUniq=    8 SFac= 7.50D-01 NAtFMM=   80 NAOKFM=F Big=F
 One-electron integrals computed using PRISM.
 NBasis=   180 RedAO= T  NBF=   180
 NBsUse=   180 1.00D-06 NBFU=   180
 Harris functional with IExCor=  402 diagonalized for initial guess.
 ExpMin= 7.10D-03 ExpMax= 3.53D+04 ExpMxC= 5.30D+03 IAcc=3 IRadAn=         5 AccDes= 0.00D+00
 HarFok:  IExCor= 402 AccDes= 0.00D+00 IRadAn=         5 IDoV=1
 ScaDFX=  1.000000  1.000000  1.000000  1.000000
 Initial guess orbital symmetries:
       Occupied  (A) (A) (A) (A) (A) (A) (A) (A) (A) (A) (A) (A)
                 (A) (A) (A) (A) (A) (A) (A) (A) (A) (A) (A) (A)
                 (A) (A) (A) (A) (A) (A) (A) (A) (A) (A) (A) (A)
                 (A) (A) (A) (A) (A) (A) (A) (A) (A) (A) (A) (A)
                 (A) (A) (A) (A) (A)
       Virtual   (A) (A) (A) (A) (A) (A) (A) (A) (A) (A) (A) (A)
                 (A) (A) (A) (A) (A) (A) (A) (A) (A) (A) (A) (A)
                 (A) (A) (A) (A) (A) (A) (A) (A) (A) (A) (A) (A)
                 (A) (A) (A) (A) (A) (A) (A) (A) (A) (A) (A) (A)
                 (A) (A) (A) (A) (A) (A) (A) (A) (A) (A) (A) (A)
                 (A) (A) (A) (A) (A) (A) (A) (A) (A) (A) (A) (A)
                 (A) (A) (A) (A) (A) (A) (A) (A) (A) (A) (A) (A)
                 (A) (A) (A) (A) (A) (A) (A) (A) (A) (A) (A) (A)
                 (A) (A) (A) (A) (A) (A) (A) (A) (A) (A) (A) (A)
                 (A) (A) (A) (A) (A) (A) (A) (A) (A) (A) (A) (A)
                 (A) (A) (A) (A) (A) (A) (A)
 The electronic state of the initial guess is 1-A.
 Requested convergence on RMS density matrix=1.00D-04 within 128 cycles.
 Requested convergence on MAX density matrix=1.00D-02.
 Requested convergence on             energy=1.00D-02.
 No special actions if energy rises.
 EnCoef did     3 forward-backward iterations
 EnCoef did   100 forward-backward iterations
 EnCoef did     4 forward-backward iterations
 EnCoef did     3 forward-backward iterations
 SCF Done:  E(RB+HF-LYP) =  -2675.00689390     A.U. after   10 cycles
             Convg  =    0.6311D-04             -V/T =  2.0027
             S**2   =   0.0000

 **********************************************************************

            Population analysis using the SCF density.

 **********************************************************************

 Orbital symmetries:
       Occupied  (A) (A) (A) (A) (A) (A) (A) (A) (A) (A) (A) (A)
                 (A) (A) (A) (A) (A) (A) (A) (A) (A) (A) (A) (A)
                 (A) (A) (A) (A) (A) (A) (A) (A) (A) (A) (A) (A)
                 (A) (A) (A) (A) (A) (A) (A) (A) (A) (A) (A) (A)
                 (A) (A) (A) (A) (A)
       Virtual   (A) (A) (A) (A) (A) (A) (A) (A) (A) (A) (A) (A)
                 (A) (A) (A) (A) (A) (A) (A) (A) (A) (A) (A) (A)
                 (A) (A) (A) (A) (A) (A) (A) (A) (A) (A) (A) (A)
                 (A) (A) (A) (A) (A) (A) (A) (A) (A) (A) (A) (A)
                 (A) (A) (A) (A) (A) (A) (A) (A) (A) (A) (A) (A)
                 (A) (A) (A) (A) (A) (A) (A) (A) (A) (A) (A) (A)
                 (A) (A) (A) (A) (A) (A) (A) (A) (A) (A) (A) (A)
                 (A) (A) (A) (A) (A) (A) (A) (A) (A) (A) (A) (A)
                 (A) (A) (A) (A) (A) (A) (A) (A) (A) (A) (A) (A)
                 (A) (A) (A) (A) (A) (A) (A) (A) (A) (A) (A) (A)
                 (A) (A) (A) (A) (A) (A) (A)
 The electronic state is 1-A.
 Alpha  occ. eigenvalues -- -145.52269-145.46953-145.45474 -77.31347 -19.29529
 Alpha  occ. eigenvalues --  -19.28788 -19.16993 -19.10472 -15.59178 -15.53852
 Alpha  occ. eigenvalues --  -15.52403 -12.72442 -12.72398 -12.72197 -12.67093
 Alpha  occ. eigenvalues --  -12.67008 -12.66930 -12.65672 -12.65581 -12.65446
 Alpha  occ. eigenvalues --   -6.76940  -4.93376  -4.93144  -4.92728  -1.96426
 Alpha  occ. eigenvalues --   -1.91143  -1.89818  -1.24359  -1.24349  -1.23314
 Alpha  occ. eigenvalues --   -1.19015  -1.18768  -1.18116  -1.17870  -1.17287
 Alpha  occ. eigenvalues --   -1.17061  -1.15057  -1.09402  -0.91720  -0.84445
 Alpha  occ. eigenvalues --   -0.68464  -0.57428  -0.54769  -0.54084  -0.46497
 Alpha  occ. eigenvalues --   -0.45046  -0.42666  -0.37826  -0.36769  -0.35777
 Alpha  occ. eigenvalues --   -0.29995  -0.28548  -0.28233
 Alpha virt. eigenvalues --   -0.21256  -0.20101  -0.17855  -0.15071  -0.12979
 Alpha virt. eigenvalues --   -0.11119  -0.10411  -0.10245  -0.09292  -0.08851
 Alpha virt. eigenvalues --   -0.08427  -0.07237  -0.06843  -0.06420  -0.05449
 Alpha virt. eigenvalues --   -0.05196  -0.04874  -0.04491  -0.04412  -0.04127
 Alpha virt. eigenvalues --   -0.03951  -0.03923  -0.03797  -0.03180  -0.02932
 Alpha virt. eigenvalues --   -0.02907  -0.02807  -0.01944  -0.00594   0.01380
 Alpha virt. eigenvalues --    0.02641   0.03163   0.03243   0.03719   0.04805
 Alpha virt. eigenvalues --    0.05135   0.05812   0.06141   0.06329   0.06487
 Alpha virt. eigenvalues --    0.06689   0.07427   0.07867   0.09125   0.09502
 Alpha virt. eigenvalues --    0.10232   0.10910   0.11049   0.11572   0.12023
 Alpha virt. eigenvalues --    0.14029   0.15084   0.15396   0.16862   0.17957
 Alpha virt. eigenvalues --    0.18839   0.19582   0.21213   0.21543   0.23890
 Alpha virt. eigenvalues --    0.24313   0.26726   0.27281   0.28756   0.28789
 Alpha virt. eigenvalues --    0.30749   0.31755   0.32089   0.34007   0.36407
 Alpha virt. eigenvalues --    0.38784   0.40421   0.42617   0.46023   0.46336
 Alpha virt. eigenvalues --    0.51363   0.54119   0.56275   0.60066   0.61204
 Alpha virt. eigenvalues --    0.63597   0.82570   0.87222   0.94457   1.04812
 Alpha virt. eigenvalues --    1.07412   1.09899   1.10865   1.13121   1.15601
 Alpha virt. eigenvalues --    1.18036   1.18370   1.18774   1.20851   1.24895
 Alpha virt. eigenvalues --    1.26175   1.33140   1.34358   1.40504   1.44298
 Alpha virt. eigenvalues --    1.54728   1.62997   1.63800   1.66239   1.69784
 Alpha virt. eigenvalues --    1.73090   1.77856   1.78795   1.80258   1.82498
 Alpha virt. eigenvalues --    1.86345   1.87116   1.87267   1.88574   1.88707
 Alpha virt. eigenvalues --    1.94752   1.99561   2.01751   2.05584   2.18310
 Alpha virt. eigenvalues --    2.51154   2.67804   3.38887   3.86673   3.88453
 Alpha virt. eigenvalues --    3.94320   4.05780
          Condensed to atoms (all electrons):
              1          2          3          4          5          6
     1  O    8.555310  -0.000567  -0.079654  -0.000002   0.096336   0.005465
     2  O   -0.000567   9.038531  -0.015359  -0.024796  -0.010015   0.044381
     3  O   -0.079654  -0.015359   8.925818  -0.003681  -0.137975   0.029251
     4  O   -0.000002  -0.024796  -0.003681   8.703484  -0.000320   0.233752
     5  P    0.096336  -0.010015  -0.137975  -0.000320  14.404570   0.003779
     6  Ca   0.005465   0.044381   0.029251   0.233752   0.003779  18.389826
     7  Ca   0.075212   0.195466   0.018463  -0.003433  -0.020680  -0.004974
     8  Ca   0.001786   0.093400   0.005238   0.226453  -0.012037  -0.028061
              7          8
     1  O    0.075212   0.001786
     2  O    0.195466   0.093400
     3  O    0.018463   0.005238
     4  O   -0.003433   0.226453
     5  P   -0.020680  -0.012037
     6  Ca  -0.004974  -0.028061
     7  Ca  18.254355  -0.013021
     8  Ca  -0.013021  18.379290
 Mulliken atomic charges:
              1
     1  O   -0.653887
     2  O   -1.321041
     3  O   -0.742102
     4  O   -1.131457
     5  P    0.676342
     6  Ca   1.326581
     7  Ca   1.498613
     8  Ca   1.346952
 Sum of Mulliken charges=   1.00000
 Atomic charges with hydrogens summed into heavy atoms:
              1
     1  O   -0.653887
     2  O   -1.321041
     3  O   -0.742102
     4  O   -1.131457
     5  P    0.676342
     6  Ca   1.326581
     7  Ca   1.498613
     8  Ca   1.346952
 Sum of Mulliken charges=   1.00000
 Electronic spatial extent (au):  <R**2>=  2691.3880
 Charge=     1.0000 electrons
 Dipole moment (field-independent basis, Debye):
    X=    -0.1844    Y=     8.1405    Z=     0.0402  Tot=     8.1427
 Quadrupole moment (field-independent basis, Debye-Ang):
   XX=   -60.0594   YY=   -52.2433   ZZ=   -68.9352
   XY=    23.1808   XZ=    -0.0259   YZ=    -0.3271
 Traceless Quadrupole moment (field-independent basis, Debye-Ang):
   XX=     0.3532   YY=     8.1694   ZZ=    -8.5226
   XY=    23.1808   XZ=    -0.0259   YZ=    -0.3271
 Octapole moment (field-independent basis, Debye-Ang**2):
  XXX=   106.2068  YYY=    40.9313  ZZZ=     0.1225  XYY=   -23.6839
  XXY=   115.8594  XXZ=     0.1937  XZZ=    -0.4233  YZZ=     6.6583
  YYZ=     0.3213  XYZ=    -0.7748
 Hexadecapole moment (field-independent basis, Debye-Ang**3):
 XXXX= -2347.3169 YYYY=  -551.7571 ZZZZ=   -83.8482 XXXY=   514.6252
 XXXZ=    -0.4248 YYYX=    -5.4498 YYYZ=    -1.0894 ZZZX=    -0.0914
 ZZZY=    -0.6638 XXYY=  -553.3650 XXZZ=  -411.4489 YYZZ=  -114.3047
 XXYZ=    -1.3676 YYXZ=     0.0613 ZZXY=     8.4315
 N-N= 8.114767617450D+02 E-N=-7.947083586652D+03  KE= 2.667690969573D+03
 Merz-Kollman atomic radii used.
 Read replacement radii for each type of atom:
 Rad(20) =   1.188000000000D+00
 Atom Element Radius
    1     8    1.40
    2     8    1.40
    3     8    1.40
    4     8    1.40
    5    15    1.80
    6    20    1.19
    7    20    1.19
    8    20    1.19

 **********************************************************************

            Electrostatic Properties Using The SCF Density

 **********************************************************************

       Atomic Center    1 is at  -3.360509  0.666309 -0.006299
       Atomic Center    2 is at   0.888751  0.958781  0.015891
       Atomic Center    3 is at  -1.557268 -1.024710 -0.002769
       Atomic Center    4 is at   2.963072 -1.328188 -0.011939
       Atomic Center    5 is at  -3.112778 -0.852881 -0.007859
       Atomic Center    6 is at   0.805942 -1.422159  0.011861
       Atomic Center    7 is at  -1.185089  1.558940  0.004001
       Atomic Center    8 is at   3.140111  0.794002 -0.007919
     814 points will be used for fitting atomic charges
 Fitting point charges to eletrostatic potential
 Charges from ESP fit, RMS=   0.00580 RRMS=   0.03884:
 Charge=   1.00000 Dipole=     0.2325     8.4282     0.0282 Tot=     8.4314
              1
     1  O   -0.643718
     2  O   -1.715559
     3  O   -0.735105
     4  O   -1.483859
     5  P    0.566778
     6  Ca   1.670496
     7  Ca   1.713484
     8  Ca   1.627484
 -----------------------------------------------------------------

              Electrostatic Properties (Atomic Units)

 -----------------------------------------------------------------
    Center     Electric         -------- Electric Field --------
               Potential          X             Y             Z
 -----------------------------------------------------------------
    1 Atom    -22.177854
    2 Atom    -22.292233
    3 Atom    -22.167854
    4 Atom    -22.365004
    5 Atom    -53.903891
    6 Atom    -80.086338
    7 Atom    -80.016857
    8 Atom    -80.074210
 -----------------------------------------------------------------
 1\1\GINC-N033\SP\RB3LYP\6-31+G(d,p)\Ca3O4P1(1+)\TIMN\12-Jun-2015\0\\# 
 b3lyp/6-31+G(d,p) int=ultrafine pop=(ReadRadii,MK)\\Ca3PO4_189.mol2cc_
 plusQc.z51690.zip.xyz\\1,1\O,0,-3.36051,0.66631,-0.0063\O,0,0.88875,0.
 95878,0.01589\O,0,-1.55727,-1.02471,-0.00277\O,0,2.96307,-1.32819,-0.0
 1194\P,0,-3.11278,-0.85288,-0.00786\Ca,0,0.80594,-1.42216,0.01186\Ca,0
 ,-1.18509,1.55894,0.004\Ca,0,3.14011,0.794,-0.00792\\Version=EM64T-G03
 RevE.01\State=1-A\HF=-2675.0068939\RMSD=6.311e-05\Thermal=0.\Dipole=-0
 .0725377,3.202723,0.0157972\PG=C01 [X(Ca3O4P1)]\\@


 BLESSED ARE THOSE WHO NOUGHT EXPECT,
 FOR THEY SHALL NOT BE DISAPPOINTED..  WALCOT - ODE TO PITT
 Job cpu time:  0 days  0 hours  1 minutes 46.5 seconds.
 File lengths (MBytes):  RWF=     32 Int=      0 D2E=      0 Chk=     11 Scr=      1
 Normal termination of Gaussian 03 at Fri Jun 12 17:40:31 2015.
