 Entering Gaussian System, Link 0=/home/timn/tmp/g03.e01/g03
 Input=Ca3PO4_51.mol2c_plusQ.z51465.zip.xyz.gjf
 Output=Ca3PO4_51.mol2c_plusQ.z51465.zip.xyz.out
 Initial command:
 /home/timn/tmp/g03.e01/l1.exe /home/timn/tmp/g03.e01/Gau-14016.inp -scrdir=/home/timn/tmp/g03.e01/
 Default is to use a total of   2 processors:
                                2 via shared-memory
                                1 via Linda
 Entering Link 1 = /home/timn/tmp/g03.e01/l1.exe PID=     14017.
  
 Copyright (c) 1988,1990,1992,1993,1995,1998,2003,2004,2007, Gaussian, Inc.
                  All Rights Reserved.
  
 This is the Gaussian(R) 03 program.  It is based on the
 the Gaussian(R) 98 system (copyright 1998, Gaussian, Inc.),
 the Gaussian(R) 94 system (copyright 1995, Gaussian, Inc.),
 the Gaussian 92(TM) system (copyright 1992, Gaussian, Inc.),
 the Gaussian 90(TM) system (copyright 1990, Gaussian, Inc.),
 the Gaussian 88(TM) system (copyright 1988, Gaussian, Inc.),
 the Gaussian 86(TM) system (copyright 1986, Carnegie Mellon
 University), and the Gaussian 82(TM) system (copyright 1983,
 Carnegie Mellon University). Gaussian is a federally registered
 trademark of Gaussian, Inc.
  
 This software contains proprietary and confidential information,
 including trade secrets, belonging to Gaussian, Inc.
  
 This software is provided under written license and may be
 used, copied, transmitted, or stored only in accord with that
 written license.
  
 The following legend is applicable only to US Government
 contracts under FAR:
  
                    RESTRICTED RIGHTS LEGEND
  
 Use, reproduction and disclosure by the US Government is
 subject to restrictions as set forth in subparagraphs (a)
 and (c) of the Commercial Computer Software - Restricted
 Rights clause in FAR 52.227-19.
  
 Gaussian, Inc.
 340 Quinnipiac St., Bldg. 40, Wallingford CT 06492
  
  
 ---------------------------------------------------------------
 Warning -- This program may not be used in any manner that
 competes with the business of Gaussian, Inc. or will provide
 assistance to any competitor of Gaussian, Inc.  The licensee
 of this program is prohibited from giving any competitor of
 Gaussian, Inc. access to this program.  By using this program,
 the user acknowledges that Gaussian, Inc. is engaged in the
 business of creating and licensing software in the field of
 computational chemistry and represents and warrants to the
 licensee that it is not a competitor of Gaussian, Inc. and that
 it will not use this program in any manner prohibited above.
 ---------------------------------------------------------------
  

 Cite this work as:
 Gaussian 03, Revision E.01,
 M. J. Frisch, G. W. Trucks, H. B. Schlegel, G. E. Scuseria, 
 M. A. Robb, J. R. Cheeseman, J. A. Montgomery, Jr., T. Vreven, 
 K. N. Kudin, J. C. Burant, J. M. Millam, S. S. Iyengar, J. Tomasi, 
 V. Barone, B. Mennucci, M. Cossi, G. Scalmani, N. Rega, 
 G. A. Petersson, H. Nakatsuji, M. Hada, M. Ehara, K. Toyota, 
 R. Fukuda, J. Hasegawa, M. Ishida, T. Nakajima, Y. Honda, O. Kitao, 
 H. Nakai, M. Klene, X. Li, J. E. Knox, H. P. Hratchian, J. B. Cross, 
 V. Bakken, C. Adamo, J. Jaramillo, R. Gomperts, R. E. Stratmann, 
 O. Yazyev, A. J. Austin, R. Cammi, C. Pomelli, J. W. Ochterski, 
 P. Y. Ayala, K. Morokuma, G. A. Voth, P. Salvador, J. J. Dannenberg, 
 V. G. Zakrzewski, S. Dapprich, A. D. Daniels, M. C. Strain, 
 O. Farkas, D. K. Malick, A. D. Rabuck, K. Raghavachari, 
 J. B. Foresman, J. V. Ortiz, Q. Cui, A. G. Baboul, S. Clifford, 
 J. Cioslowski, B. B. Stefanov, G. Liu, A. Liashenko, P. Piskorz, 
 I. Komaromi, R. L. Martin, D. J. Fox, T. Keith, M. A. Al-Laham, 
 C. Y. Peng, A. Nanayakkara, M. Challacombe, P. M. W. Gill, 
 B. Johnson, W. Chen, M. W. Wong, C. Gonzalez, and J. A. Pople, 
 Gaussian, Inc., Wallingford CT, 2004.
 
 ******************************************
 Gaussian 03:  EM64T-G03RevE.01 11-Sep-2007
                12-Jun-2015 
 ******************************************
 %nproc=2
 Will use up to    2 processors via shared memory.
 Default route:  MP2=Direct MaxDisk=2000MB
 ----------------------------------------------------
 # b3lyp/6-31+G(d,p) int=ultrafine pop=(ReadRadii,MK)
 ----------------------------------------------------

 Warning!  SCF SP cutoffs with diffuse functions may be unreliable.
 Consider SCF=Tight

 1/38=1/1;
 2/17=6,18=5,40=1/2;
 3/5=1,6=6,7=111,11=2,16=1,25=1,30=1,74=-5,75=5/1,2,3;
 4//1;
 5/5=2,32=1,38=5/2;
 6/7=2,8=2,9=2,10=2,15=8,20=101,28=1/1,2;
 99/5=1,9=1/99;
 ------------------------------------
 Ca3PO4_51.mol2c_plusQ.z51465.zip.xyz
 ------------------------------------
 Symbolic Z-matrix:
 Charge =  1 Multiplicity = 1
 O                     1.41868   0.42775   0.92141 
 O                    -1.07806   1.01444   0.92432 
 O                    -0.00167  -0.00008  -1.71209 
 O                    -0.33795  -1.441     0.92255 
 P                     0.00268  -0.00033   1.71838 
 Ca                   -1.86449  -0.56147  -0.56853 
 Ca                    0.44447   1.89345  -0.57109 
 Ca                    1.41761  -1.33219  -0.57164 
 
                          Input orientation:                          
 ---------------------------------------------------------------------
 Center     Atomic     Atomic              Coordinates (Angstroms)
 Number     Number      Type              X           Y           Z
 ---------------------------------------------------------------------
    1          8             0        1.418680    0.427750    0.921410
    2          8             0       -1.078060    1.014440    0.924320
    3          8             0       -0.001670   -0.000080   -1.712090
    4          8             0       -0.337950   -1.441000    0.922550
    5         15             0        0.002680   -0.000330    1.718380
    6         20             0       -1.864490   -0.561470   -0.568530
    7         20             0        0.444470    1.893450   -0.571090
    8         20             0        1.417610   -1.332190   -0.571640
 ---------------------------------------------------------------------
                    Distance matrix (angstroms):
                    1          2          3          4          5
     1  O    0.000000
     2  O    2.564746   0.000000
     3  O    3.022541   3.022999   0.000000
     4  O    2.564757   2.564557   3.021699   0.000000
     5  P    1.680318   1.681752   3.430473   1.680745   0.000000
     6  Ca   3.738674   2.308802   2.256765   2.308076   3.005189
     7  Ca   2.307578   2.308031   2.255300   3.736536   3.003873
     8  Ca   2.307940   3.738039   2.255992   2.307907   3.003343
                    6          7          8
     6  Ca   0.000000
     7  Ca   3.370154   0.000000
     8  Ca   3.371379   3.369237   0.000000
 Stoichiometry    Ca3O4P(1+)
 Framework group  C1[X(Ca3O4P)]
 Deg. of freedom    18
 Full point group                 C1
 Largest Abelian subgroup         C1      NOp   1
 Largest concise Abelian subgroup C1      NOp   1
                         Standard orientation:                         
 ---------------------------------------------------------------------
 Center     Atomic     Atomic              Coordinates (Angstroms)
 Number     Number      Type              X           Y           Z
 ---------------------------------------------------------------------
    1          8             0        1.418186    0.429388    0.921410
    2          8             0       -1.079229    1.013198    0.924320
    3          8             0       -0.001670   -0.000079   -1.712090
    4          8             0       -0.336288   -1.441386    0.922550
    5         15             0        0.002680   -0.000324    1.718380
    6         20             0       -1.863841   -0.563618   -0.568530
    7         20             0        0.442286    1.893964   -0.571090
    8         20             0        1.419146   -1.330552   -0.571640
 ---------------------------------------------------------------------
 Rotational constants (GHZ):      1.0156496      1.0149499      0.9038687
 Standard basis: 6-31+G(d,p) (6D, 7F)
 There are   180 symmetry adapted basis functions of A   symmetry.
 Integral buffers will be    131072 words long.
 Raffenetti 2 integral format.
 Two-electron integral symmetry is turned on.
   180 basis functions,   424 primitive gaussians,   180 cartesian basis functions
    53 alpha electrons       53 beta electrons
       nuclear repulsion energy       952.6758195054 Hartrees.
 NAtoms=    8 NActive=    8 NUniq=    8 SFac= 7.50D-01 NAtFMM=   80 NAOKFM=F Big=F
 One-electron integrals computed using PRISM.
 NBasis=   180 RedAO= T  NBF=   180
 NBsUse=   180 1.00D-06 NBFU=   180
 Harris functional with IExCor=  402 diagonalized for initial guess.
 ExpMin= 7.10D-03 ExpMax= 3.53D+04 ExpMxC= 5.30D+03 IAcc=3 IRadAn=         5 AccDes= 0.00D+00
 HarFok:  IExCor= 402 AccDes= 0.00D+00 IRadAn=         5 IDoV=1
 ScaDFX=  1.000000  1.000000  1.000000  1.000000
 Initial guess orbital symmetries:
       Occupied  (A) (A) (A) (A) (A) (A) (A) (A) (A) (A) (A) (A)
                 (A) (A) (A) (A) (A) (A) (A) (A) (A) (A) (A) (A)
                 (A) (A) (A) (A) (A) (A) (A) (A) (A) (A) (A) (A)
                 (A) (A) (A) (A) (A) (A) (A) (A) (A) (A) (A) (A)
                 (A) (A) (A) (A) (A)
       Virtual   (A) (A) (A) (A) (A) (A) (A) (A) (A) (A) (A) (A)
                 (A) (A) (A) (A) (A) (A) (A) (A) (A) (A) (A) (A)
                 (A) (A) (A) (A) (A) (A) (A) (A) (A) (A) (A) (A)
                 (A) (A) (A) (A) (A) (A) (A) (A) (A) (A) (A) (A)
                 (A) (A) (A) (A) (A) (A) (A) (A) (A) (A) (A) (A)
                 (A) (A) (A) (A) (A) (A) (A) (A) (A) (A) (A) (A)
                 (A) (A) (A) (A) (A) (A) (A) (A) (A) (A) (A) (A)
                 (A) (A) (A) (A) (A) (A) (A) (A) (A) (A) (A) (A)
                 (A) (A) (A) (A) (A) (A) (A) (A) (A) (A) (A) (A)
                 (A) (A) (A) (A) (A) (A) (A) (A) (A) (A) (A) (A)
                 (A) (A) (A) (A) (A) (A) (A)
 The electronic state of the initial guess is 1-A.
 Requested convergence on RMS density matrix=1.00D-04 within 128 cycles.
 Requested convergence on MAX density matrix=1.00D-02.
 Requested convergence on             energy=1.00D-02.
 No special actions if energy rises.
 SCF Done:  E(RB+HF-LYP) =  -2675.07105689     A.U. after    8 cycles
             Convg  =    0.8095D-04             -V/T =  2.0028
             S**2   =   0.0000

 **********************************************************************

            Population analysis using the SCF density.

 **********************************************************************

 Orbital symmetries:
       Occupied  (A) (A) (A) (A) (A) (A) (A) (A) (A) (A) (A) (A)
                 (A) (A) (A) (A) (A) (A) (A) (A) (A) (A) (A) (A)
                 (A) (A) (A) (A) (A) (A) (A) (A) (A) (A) (A) (A)
                 (A) (A) (A) (A) (A) (A) (A) (A) (A) (A) (A) (A)
                 (A) (A) (A) (A) (A)
       Virtual   (A) (A) (A) (A) (A) (A) (A) (A) (A) (A) (A) (A)
                 (A) (A) (A) (A) (A) (A) (A) (A) (A) (A) (A) (A)
                 (A) (A) (A) (A) (A) (A) (A) (A) (A) (A) (A) (A)
                 (A) (A) (A) (A) (A) (A) (A) (A) (A) (A) (A) (A)
                 (A) (A) (A) (A) (A) (A) (A) (A) (A) (A) (A) (A)
                 (A) (A) (A) (A) (A) (A) (A) (A) (A) (A) (A) (A)
                 (A) (A) (A) (A) (A) (A) (A) (A) (A) (A) (A) (A)
                 (A) (A) (A) (A) (A) (A) (A) (A) (A) (A) (A) (A)
                 (A) (A) (A) (A) (A) (A) (A) (A) (A) (A) (A) (A)
                 (A) (A) (A) (A) (A) (A) (A) (A) (A) (A) (A) (A)
                 (A) (A) (A) (A) (A) (A) (A)
 The electronic state is 1-A.
 Alpha  occ. eigenvalues -- -145.49650-145.49644-145.49623 -77.25048 -19.21279
 Alpha  occ. eigenvalues --  -19.21222 -19.21154 -19.15938 -15.56483 -15.56479
 Alpha  occ. eigenvalues --  -15.56459 -12.69681 -12.69678 -12.69659 -12.69657
 Alpha  occ. eigenvalues --  -12.69655 -12.69635 -12.69611 -12.69608 -12.69587
 Alpha  occ. eigenvalues --   -6.70078  -4.86427  -4.86427  -4.85890  -1.93826
 Alpha  occ. eigenvalues --   -1.93747  -1.93733  -1.22377  -1.21699  -1.21693
 Alpha  occ. eigenvalues --   -1.21307  -1.21141  -1.21069  -1.21061  -1.20649
 Alpha  occ. eigenvalues --   -1.20637  -1.06757  -1.00380  -1.00319  -0.90937
 Alpha  occ. eigenvalues --   -0.62635  -0.50531  -0.50512  -0.47956  -0.43355
 Alpha  occ. eigenvalues --   -0.43349  -0.38356  -0.38317  -0.38168  -0.36137
 Alpha  occ. eigenvalues --   -0.36130  -0.34589  -0.30853
 Alpha virt. eigenvalues --   -0.19950  -0.18032  -0.18023  -0.12556  -0.12554
 Alpha virt. eigenvalues --   -0.10894  -0.09480  -0.09473  -0.08339  -0.07773
 Alpha virt. eigenvalues --   -0.06545  -0.06116  -0.06113  -0.04764  -0.04716
 Alpha virt. eigenvalues --   -0.04712  -0.04672  -0.04473  -0.04469  -0.04005
 Alpha virt. eigenvalues --   -0.04003  -0.03232  -0.02944  -0.02942  -0.02359
 Alpha virt. eigenvalues --   -0.02354  -0.00865   0.01028   0.02176   0.02616
 Alpha virt. eigenvalues --    0.02619   0.04572   0.04577   0.05229   0.06002
 Alpha virt. eigenvalues --    0.06006   0.06291   0.06298   0.07289   0.07295
 Alpha virt. eigenvalues --    0.07382   0.07662   0.07667   0.07822   0.08468
 Alpha virt. eigenvalues --    0.10680   0.10692   0.11336   0.11804   0.13658
 Alpha virt. eigenvalues --    0.15677   0.15685   0.19891   0.19896   0.20365
 Alpha virt. eigenvalues --    0.22084   0.22087   0.23486   0.23992   0.25317
 Alpha virt. eigenvalues --    0.25952   0.25968   0.30038   0.31446   0.31454
 Alpha virt. eigenvalues --    0.35744   0.35995   0.36012   0.37861   0.39077
 Alpha virt. eigenvalues --    0.39096   0.39778   0.45819   0.45844   0.53623
 Alpha virt. eigenvalues --    0.53639   0.55851   0.63367   0.63378   0.67687
 Alpha virt. eigenvalues --    0.82893   0.86923   0.86973   0.94089   0.94129
 Alpha virt. eigenvalues --    1.14548   1.16747   1.16769   1.18036   1.20770
 Alpha virt. eigenvalues --    1.21963   1.21997   1.23402   1.23418   1.28220
 Alpha virt. eigenvalues --    1.34130   1.34193   1.36428   1.54439   1.54494
 Alpha virt. eigenvalues --    1.57775   1.68373   1.71628   1.73133   1.73168
 Alpha virt. eigenvalues --    1.77476   1.77503   1.87074   1.87365   1.87370
 Alpha virt. eigenvalues --    1.88071   1.92073   1.92094   1.93336   1.98428
 Alpha virt. eigenvalues --    1.98458   2.03006   2.03021   2.14770   2.38187
 Alpha virt. eigenvalues --    2.55126   2.55225   3.54381   4.05620   4.14247
 Alpha virt. eigenvalues --    4.14314   4.31205
          Condensed to atoms (all electrons):
              1          2          3          4          5          6
     1  O    8.967279   0.058664   0.024063   0.058907  -0.201934   0.006238
     2  O    0.058664   8.964450   0.023859   0.058390  -0.199683   0.060023
     3  O    0.024063   0.023859   8.852556   0.023945  -0.039938   0.122046
     4  O    0.058907   0.058390   0.023945   8.966187  -0.201052   0.059822
     5  P   -0.201934  -0.199683  -0.039938  -0.201052  14.442828   0.033600
     6  Ca   0.006238   0.060023   0.122046   0.059822   0.033600  18.396340
     7  Ca   0.059628   0.059957   0.122165   0.006195   0.033900  -0.047471
     8  Ca   0.059742   0.006244   0.122164   0.059865   0.034011  -0.047519
              7          8
     1  O    0.059628   0.059742
     2  O    0.059957   0.006244
     3  O    0.122165   0.122164
     4  O    0.006195   0.059865
     5  P    0.033900   0.034011
     6  Ca  -0.047471  -0.047519
     7  Ca  18.397426  -0.047891
     8  Ca  -0.047891  18.397057
 Mulliken atomic charges:
              1
     1  O   -1.032587
     2  O   -1.031903
     3  O   -1.250859
     4  O   -1.032258
     5  P    1.098269
     6  Ca   1.416921
     7  Ca   1.416091
     8  Ca   1.416327
 Sum of Mulliken charges=   1.00000
 Atomic charges with hydrogens summed into heavy atoms:
              1
     1  O   -1.032587
     2  O   -1.031903
     3  O   -1.250859
     4  O   -1.032258
     5  P    1.098269
     6  Ca   1.416921
     7  Ca   1.416091
     8  Ca   1.416327
 Sum of Mulliken charges=   1.00000
 Electronic spatial extent (au):  <R**2>=  1510.2377
 Charge=     1.0000 electrons
 Dipole moment (field-independent basis, Debye):
    X=    -0.0147    Y=    -0.0083    Z=    -8.2358  Tot=     8.2358
 Quadrupole moment (field-independent basis, Debye-Ang):
   XX=   -40.0106   YY=   -40.0746   ZZ=   -90.0204
   XY=     0.0007   XZ=    -0.0443   YZ=    -0.0113
 Traceless Quadrupole moment (field-independent basis, Debye-Ang):
   XX=    16.6913   YY=    16.6273   ZZ=   -33.3185
   XY=     0.0007   XZ=    -0.0443   YZ=    -0.0113
 Octapole moment (field-independent basis, Debye-Ang**2):
  XXX=   -37.4436  YYY=    45.1337  ZZZ=    -1.7032  XYY=    37.1867
  XXY=   -45.2606  XXZ=   -46.6640  XZZ=     0.0842  YZZ=    -0.0055
  YYZ=   -46.7047  XYZ=     0.0487
 Hexadecapole moment (field-independent basis, Debye-Ang**3):
 XXXX=  -416.0495 YYYY=  -416.0800 ZZZZ=  -722.0159 XXXY=     0.0831
 XXXZ=     9.6679 YYYX=     0.0061 YYYZ=   -11.9480 ZZZX=    -0.2188
 ZZZY=    -0.0142 XXYY=  -138.7228 XXZZ=  -187.6998 YYZZ=  -187.5901
 XXYZ=    11.9087 YYXZ=    -9.8623 ZZXY=    -0.0025
 N-N= 9.526758195054D+02 E-N=-8.229819333440D+03  KE= 2.667692400751D+03
 Merz-Kollman atomic radii used.
 Read replacement radii for each type of atom:
 Rad(20) =   1.188000000000D+00
 Atom Element Radius
    1     8    1.40
    2     8    1.40
    3     8    1.40
    4     8    1.40
    5    15    1.80
    6    20    1.19
    7    20    1.19
    8    20    1.19

 **********************************************************************

            Electrostatic Properties Using The SCF Density

 **********************************************************************

       Atomic Center    1 is at   1.418186  0.429388  0.921410
       Atomic Center    2 is at  -1.079229  1.013198  0.924320
       Atomic Center    3 is at  -0.001670 -0.000079 -1.712090
       Atomic Center    4 is at  -0.336288 -1.441386  0.922550
       Atomic Center    5 is at   0.002680 -0.000324  1.718380
       Atomic Center    6 is at  -1.863841 -0.563618 -0.568530
       Atomic Center    7 is at   0.442286  1.893964 -0.571090
       Atomic Center    8 is at   1.419146 -1.330552 -0.571640
     691 points will be used for fitting atomic charges
 Fitting point charges to eletrostatic potential
 Charges from ESP fit, RMS=   0.00609 RRMS=   0.03745:
 Charge=   1.00000 Dipole=     0.0185     0.0022    -8.4488 Tot=     8.4488
              1
     1  O   -0.943283
     2  O   -0.946691
     3  O   -1.633409
     4  O   -0.949777
     5  P    0.518558
     6  Ca   1.651803
     7  Ca   1.650248
     8  Ca   1.652551
 -----------------------------------------------------------------

              Electrostatic Properties (Atomic Units)

 -----------------------------------------------------------------
    Center     Electric         -------- Electric Field --------
               Potential          X             Y             Z
 -----------------------------------------------------------------
    1 Atom    -22.252349
    2 Atom    -22.250074
    3 Atom    -22.290455
    4 Atom    -22.251243
    5 Atom    -53.968011
    6 Atom    -80.043081
    7 Atom    -80.043397
    8 Atom    -80.043251
 -----------------------------------------------------------------
 1\1\GINC-N030\SP\RB3LYP\6-31+G(d,p)\Ca3O4P1(1+)\TIMN\12-Jun-2015\0\\# 
 b3lyp/6-31+G(d,p) int=ultrafine pop=(ReadRadii,MK)\\Ca3PO4_51.mol2c_pl
 usQ.z51465.zip.xyz\\1,1\O,0,1.41868,0.42775,0.92141\O,0,-1.07806,1.014
 44,0.92432\O,0,-0.00167,-0.00008,-1.71209\O,0,-0.33795,-1.441,0.92255\
 P,0,0.00268,-0.00033,1.71838\Ca,0,-1.86449,-0.56147,-0.56853\Ca,0,0.44
 447,1.89345,-0.57109\Ca,0,1.41761,-1.33219,-0.57164\\Version=EM64T-G03
 RevE.01\State=1-A\HF=-2675.0710569\RMSD=8.095e-05\Thermal=0.\Dipole=-0
 .0057912,-0.0032557,-3.2401947\PG=C01 [X(Ca3O4P1)]\\@


 THERE'S NOTHING WRONG WITH FOLLOWING A TRAIN OF THOUGHT...
 AS LONG AS IT ULTIMATELY PULLS INTO THE STATION.
 Job cpu time:  0 days  0 hours  1 minutes 41.8 seconds.
 File lengths (MBytes):  RWF=     32 Int=      0 D2E=      0 Chk=     11 Scr=      1
 Normal termination of Gaussian 03 at Fri Jun 12 17:44:11 2015.
