 Entering Gaussian System, Link 0=/home/timn/tmp/g03.e01/g03
 Input=Ca3PO4_125.mol2c_plusQ.z51127.zip.xyz.gjf
 Output=Ca3PO4_125.mol2c_plusQ.z51127.zip.xyz.out
 Initial command:
 /home/timn/tmp/g03.e01/l1.exe /home/timn/tmp/g03.e01/Gau-16827.inp -scrdir=/home/timn/tmp/g03.e01/
 Default is to use a total of   2 processors:
                                2 via shared-memory
                                1 via Linda
 Entering Link 1 = /home/timn/tmp/g03.e01/l1.exe PID=     16829.
  
 Copyright (c) 1988,1990,1992,1993,1995,1998,2003,2004,2007, Gaussian, Inc.
                  All Rights Reserved.
  
 This is the Gaussian(R) 03 program.  It is based on the
 the Gaussian(R) 98 system (copyright 1998, Gaussian, Inc.),
 the Gaussian(R) 94 system (copyright 1995, Gaussian, Inc.),
 the Gaussian 92(TM) system (copyright 1992, Gaussian, Inc.),
 the Gaussian 90(TM) system (copyright 1990, Gaussian, Inc.),
 the Gaussian 88(TM) system (copyright 1988, Gaussian, Inc.),
 the Gaussian 86(TM) system (copyright 1986, Carnegie Mellon
 University), and the Gaussian 82(TM) system (copyright 1983,
 Carnegie Mellon University). Gaussian is a federally registered
 trademark of Gaussian, Inc.
  
 This software contains proprietary and confidential information,
 including trade secrets, belonging to Gaussian, Inc.
  
 This software is provided under written license and may be
 used, copied, transmitted, or stored only in accord with that
 written license.
  
 The following legend is applicable only to US Government
 contracts under FAR:
  
                    RESTRICTED RIGHTS LEGEND
  
 Use, reproduction and disclosure by the US Government is
 subject to restrictions as set forth in subparagraphs (a)
 and (c) of the Commercial Computer Software - Restricted
 Rights clause in FAR 52.227-19.
  
 Gaussian, Inc.
 340 Quinnipiac St., Bldg. 40, Wallingford CT 06492
  
  
 ---------------------------------------------------------------
 Warning -- This program may not be used in any manner that
 competes with the business of Gaussian, Inc. or will provide
 assistance to any competitor of Gaussian, Inc.  The licensee
 of this program is prohibited from giving any competitor of
 Gaussian, Inc. access to this program.  By using this program,
 the user acknowledges that Gaussian, Inc. is engaged in the
 business of creating and licensing software in the field of
 computational chemistry and represents and warrants to the
 licensee that it is not a competitor of Gaussian, Inc. and that
 it will not use this program in any manner prohibited above.
 ---------------------------------------------------------------
  

 Cite this work as:
 Gaussian 03, Revision E.01,
 M. J. Frisch, G. W. Trucks, H. B. Schlegel, G. E. Scuseria, 
 M. A. Robb, J. R. Cheeseman, J. A. Montgomery, Jr., T. Vreven, 
 K. N. Kudin, J. C. Burant, J. M. Millam, S. S. Iyengar, J. Tomasi, 
 V. Barone, B. Mennucci, M. Cossi, G. Scalmani, N. Rega, 
 G. A. Petersson, H. Nakatsuji, M. Hada, M. Ehara, K. Toyota, 
 R. Fukuda, J. Hasegawa, M. Ishida, T. Nakajima, Y. Honda, O. Kitao, 
 H. Nakai, M. Klene, X. Li, J. E. Knox, H. P. Hratchian, J. B. Cross, 
 V. Bakken, C. Adamo, J. Jaramillo, R. Gomperts, R. E. Stratmann, 
 O. Yazyev, A. J. Austin, R. Cammi, C. Pomelli, J. W. Ochterski, 
 P. Y. Ayala, K. Morokuma, G. A. Voth, P. Salvador, J. J. Dannenberg, 
 V. G. Zakrzewski, S. Dapprich, A. D. Daniels, M. C. Strain, 
 O. Farkas, D. K. Malick, A. D. Rabuck, K. Raghavachari, 
 J. B. Foresman, J. V. Ortiz, Q. Cui, A. G. Baboul, S. Clifford, 
 J. Cioslowski, B. B. Stefanov, G. Liu, A. Liashenko, P. Piskorz, 
 I. Komaromi, R. L. Martin, D. J. Fox, T. Keith, M. A. Al-Laham, 
 C. Y. Peng, A. Nanayakkara, M. Challacombe, P. M. W. Gill, 
 B. Johnson, W. Chen, M. W. Wong, C. Gonzalez, and J. A. Pople, 
 Gaussian, Inc., Wallingford CT, 2004.
 
 ******************************************
 Gaussian 03:  EM64T-G03RevE.01 11-Sep-2007
                12-Jun-2015 
 ******************************************
 %nproc=2
 Will use up to    2 processors via shared memory.
 Default route:  MP2=Direct MaxDisk=2000MB
 ----------------------------------------------------
 # b3lyp/6-31+G(d,p) int=ultrafine pop=(ReadRadii,MK)
 ----------------------------------------------------

 Warning!  SCF SP cutoffs with diffuse functions may be unreliable.
 Consider SCF=Tight

 1/38=1/1;
 2/17=6,18=5,40=1/2;
 3/5=1,6=6,7=111,11=2,16=1,25=1,30=1,74=-5,75=5/1,2,3;
 4//1;
 5/5=2,32=1,38=5/2;
 6/7=2,8=2,9=2,10=2,15=8,20=101,28=1/1,2;
 99/5=1,9=1/99;
 -------------------------------------
 Ca3PO4_125.mol2c_plusQ.z51127.zip.xyz
 -------------------------------------
 Symbolic Z-matrix:
 Charge =  1 Multiplicity = 1
 O                    -1.85534  -0.4307   -1.1739 
 O                    -0.59471   1.14198   1.1658 
 O                    -0.42495  -0.95722  -1.07371 
 O                     1.58232   0.96799  -0.1195 
 P                     1.00496   0.86926   1.43191 
 Ca                   -0.47517   1.39548  -1.15991 
 Ca                    1.73294  -1.33446  -0.45999 
 Ca                   -1.49442  -1.00179   1.0265 
 
                          Input orientation:                          
 ---------------------------------------------------------------------
 Center     Atomic     Atomic              Coordinates (Angstroms)
 Number     Number      Type              X           Y           Z
 ---------------------------------------------------------------------
    1          8             0       -1.855340   -0.430700   -1.173900
    2          8             0       -0.594710    1.141980    1.165800
    3          8             0       -0.424950   -0.957220   -1.073710
    4          8             0        1.582320    0.967990   -0.119500
    5         15             0        1.004960    0.869260    1.431910
    6         20             0       -0.475170    1.395480   -1.159910
    7         20             0        1.732940   -1.334460   -0.459990
    8         20             0       -1.494420   -1.001790    1.026500
 ---------------------------------------------------------------------
                    Distance matrix (angstroms):
                    1          2          3          4          5
     1  O    0.000000
     2  O    3.088156   0.000000
     3  O    1.527507   3.074226   0.000000
     4  O    3.858186   2.534113   2.940422   0.000000
     5  P    4.081845   1.644425   3.414499   1.658302   0.000000
     6  Ca   2.289104   2.342537   2.354814   2.344881   3.030713
     7  Ca   3.768581   3.767480   2.274962   2.332358   2.994265
     8  Ca   2.301775   2.329084   2.357251   3.828796   3.148347
                    6          7          8
     6  Ca   0.000000
     7  Ca   3.580253   0.000000
     8  Ca   3.400906   3.568778   0.000000
 Stoichiometry    Ca3O4P(1+)
 Framework group  C1[X(Ca3O4P)]
 Deg. of freedom    18
 Full point group                 C1
 Largest Abelian subgroup         C1      NOp   1
 Largest concise Abelian subgroup C1      NOp   1
                         Standard orientation:                         
 ---------------------------------------------------------------------
 Center     Atomic     Atomic              Coordinates (Angstroms)
 Number     Number      Type              X           Y           Z
 ---------------------------------------------------------------------
    1          8             0       -1.855340   -0.430699   -1.173902
    2          8             0       -0.594710    1.141981    1.165798
    3          8             0       -0.424950   -0.957219   -1.073712
    4          8             0        1.582320    0.967991   -0.119502
    5         15             0        1.004960    0.869261    1.431908
    6         20             0       -0.475170    1.395481   -1.159912
    7         20             0        1.732941   -1.334459   -0.459992
    8         20             0       -1.494420   -1.001789    1.026498
 ---------------------------------------------------------------------
 Rotational constants (GHZ):      1.0184744      0.8661875      0.8161352
 Standard basis: 6-31+G(d,p) (6D, 7F)
 There are   180 symmetry adapted basis functions of A   symmetry.
 Integral buffers will be    131072 words long.
 Raffenetti 2 integral format.
 Two-electron integral symmetry is turned on.
   180 basis functions,   424 primitive gaussians,   180 cartesian basis functions
    53 alpha electrons       53 beta electrons
       nuclear repulsion energy       920.1995634494 Hartrees.
 NAtoms=    8 NActive=    8 NUniq=    8 SFac= 7.50D-01 NAtFMM=   80 NAOKFM=F Big=F
 One-electron integrals computed using PRISM.
 NBasis=   180 RedAO= T  NBF=   180
 NBsUse=   180 1.00D-06 NBFU=   180
 Harris functional with IExCor=  402 diagonalized for initial guess.
 ExpMin= 7.10D-03 ExpMax= 3.53D+04 ExpMxC= 5.30D+03 IAcc=3 IRadAn=         5 AccDes= 0.00D+00
 HarFok:  IExCor= 402 AccDes= 0.00D+00 IRadAn=         5 IDoV=1
 ScaDFX=  1.000000  1.000000  1.000000  1.000000
 Initial guess orbital symmetries:
       Occupied  (A) (A) (A) (A) (A) (A) (A) (A) (A) (A) (A) (A)
                 (A) (A) (A) (A) (A) (A) (A) (A) (A) (A) (A) (A)
                 (A) (A) (A) (A) (A) (A) (A) (A) (A) (A) (A) (A)
                 (A) (A) (A) (A) (A) (A) (A) (A) (A) (A) (A) (A)
                 (A) (A) (A) (A) (A)
       Virtual   (A) (A) (A) (A) (A) (A) (A) (A) (A) (A) (A) (A)
                 (A) (A) (A) (A) (A) (A) (A) (A) (A) (A) (A) (A)
                 (A) (A) (A) (A) (A) (A) (A) (A) (A) (A) (A) (A)
                 (A) (A) (A) (A) (A) (A) (A) (A) (A) (A) (A) (A)
                 (A) (A) (A) (A) (A) (A) (A) (A) (A) (A) (A) (A)
                 (A) (A) (A) (A) (A) (A) (A) (A) (A) (A) (A) (A)
                 (A) (A) (A) (A) (A) (A) (A) (A) (A) (A) (A) (A)
                 (A) (A) (A) (A) (A) (A) (A) (A) (A) (A) (A) (A)
                 (A) (A) (A) (A) (A) (A) (A) (A) (A) (A) (A) (A)
                 (A) (A) (A) (A) (A) (A) (A) (A) (A) (A) (A) (A)
                 (A) (A) (A) (A) (A) (A) (A)
 The electronic state of the initial guess is 1-A.
 Requested convergence on RMS density matrix=1.00D-04 within 128 cycles.
 Requested convergence on MAX density matrix=1.00D-02.
 Requested convergence on             energy=1.00D-02.
 No special actions if energy rises.
 SCF Done:  E(RB+HF-LYP) =  -2674.89709021     A.U. after    8 cycles
             Convg  =    0.8076D-04             -V/T =  2.0027
             S**2   =   0.0000

 **********************************************************************

            Population analysis using the SCF density.

 **********************************************************************

 Orbital symmetries:
       Occupied  (A) (A) (A) (A) (A) (A) (A) (A) (A) (A) (A) (A)
                 (A) (A) (A) (A) (A) (A) (A) (A) (A) (A) (A) (A)
                 (A) (A) (A) (A) (A) (A) (A) (A) (A) (A) (A) (A)
                 (A) (A) (A) (A) (A) (A) (A) (A) (A) (A) (A) (A)
                 (A) (A) (A) (A) (A)
       Virtual   (A) (A) (A) (A) (A) (A) (A) (A) (A) (A) (A) (A)
                 (A) (A) (A) (A) (A) (A) (A) (A) (A) (A) (A) (A)
                 (A) (A) (A) (A) (A) (A) (A) (A) (A) (A) (A) (A)
                 (A) (A) (A) (A) (A) (A) (A) (A) (A) (A) (A) (A)
                 (A) (A) (A) (A) (A) (A) (A) (A) (A) (A) (A) (A)
                 (A) (A) (A) (A) (A) (A) (A) (A) (A) (A) (A) (A)
                 (A) (A) (A) (A) (A) (A) (A) (A) (A) (A) (A) (A)
                 (A) (A) (A) (A) (A) (A) (A) (A) (A) (A) (A) (A)
                 (A) (A) (A) (A) (A) (A) (A) (A) (A) (A) (A) (A)
                 (A) (A) (A) (A) (A) (A) (A) (A) (A) (A) (A) (A)
                 (A) (A) (A) (A) (A) (A) (A)
 The electronic state is 1-A.
 Alpha  occ. eigenvalues -- -145.52626-145.51617-145.51311 -77.24822 -19.26791
 Alpha  occ. eigenvalues --  -19.26189 -19.24041 -19.23888 -15.59465 -15.58471
 Alpha  occ. eigenvalues --  -15.58130 -12.72674 -12.72637 -12.72599 -12.71683
 Alpha  occ. eigenvalues --  -12.71642 -12.71609 -12.71337 -12.71328 -12.71249
 Alpha  occ. eigenvalues --   -6.70499  -4.86858  -4.86657  -4.86361  -1.96518
 Alpha  occ. eigenvalues --   -1.95630  -1.95355  -1.24676  -1.23970  -1.23922
 Alpha  occ. eigenvalues --   -1.23731  -1.23292  -1.23085  -1.22862  -1.22794
 Alpha  occ. eigenvalues --   -1.22505  -1.10500  -1.08207  -1.03321  -0.90060
 Alpha  occ. eigenvalues --   -0.64733  -0.52138  -0.51958  -0.50422  -0.49830
 Alpha  occ. eigenvalues --   -0.48945  -0.46433  -0.43424  -0.40654  -0.38963
 Alpha  occ. eigenvalues --   -0.36581  -0.34904  -0.26278
 Alpha virt. eigenvalues --   -0.20737  -0.19892  -0.18854  -0.13938  -0.13323
 Alpha virt. eigenvalues --   -0.11708  -0.11216  -0.10571  -0.09636  -0.09400
 Alpha virt. eigenvalues --   -0.08747  -0.07314  -0.06832  -0.06426  -0.06002
 Alpha virt. eigenvalues --   -0.05546  -0.04892  -0.04865  -0.04614  -0.04567
 Alpha virt. eigenvalues --   -0.04268  -0.04177  -0.03869  -0.03382  -0.03254
 Alpha virt. eigenvalues --   -0.02966  -0.02396  -0.01835  -0.00061   0.00987
 Alpha virt. eigenvalues --    0.01598   0.02106   0.02944   0.03943   0.04126
 Alpha virt. eigenvalues --    0.04673   0.05237   0.05363   0.05854   0.06132
 Alpha virt. eigenvalues --    0.06433   0.06683   0.06906   0.06947   0.07118
 Alpha virt. eigenvalues --    0.08292   0.09301   0.09813   0.10555   0.11537
 Alpha virt. eigenvalues --    0.13155   0.14044   0.15086   0.16494   0.17443
 Alpha virt. eigenvalues --    0.19175   0.19495   0.20916   0.22345   0.22667
 Alpha virt. eigenvalues --    0.24242   0.25040   0.26833   0.27376   0.30479
 Alpha virt. eigenvalues --    0.31611   0.31729   0.34489   0.34639   0.37350
 Alpha virt. eigenvalues --    0.37974   0.40053   0.40780   0.43457   0.48306
 Alpha virt. eigenvalues --    0.51326   0.53536   0.60166   0.62317   0.63898
 Alpha virt. eigenvalues --    0.67822   0.70440   0.86276   0.89818   0.93914
 Alpha virt. eigenvalues --    1.08462   1.11555   1.13365   1.14845   1.15220
 Alpha virt. eigenvalues --    1.16515   1.18754   1.19345   1.19568   1.22374
 Alpha virt. eigenvalues --    1.26475   1.28979   1.37699   1.43690   1.45238
 Alpha virt. eigenvalues --    1.49506   1.57709   1.58846   1.63644   1.72911
 Alpha virt. eigenvalues --    1.74485   1.78724   1.79457   1.80092   1.81956
 Alpha virt. eigenvalues --    1.85357   1.86649   1.87495   1.89487   1.90592
 Alpha virt. eigenvalues --    1.95213   2.00343   2.19917   2.22223   2.39979
 Alpha virt. eigenvalues --    2.55822   3.05661   3.46164   4.01708   4.04354
 Alpha virt. eigenvalues --    4.14536   4.15895
          Condensed to atoms (all electrons):
              1          2          3          4          5          6
     1  O    8.583654   0.025767  -0.083008   0.010717  -0.054068   0.121226
     2  O    0.025767   9.104181   0.095328   0.184876  -0.598813   0.072279
     3  O   -0.083008   0.095328   8.727141   0.113748  -0.199339   0.038794
     4  O    0.010717   0.184876   0.113748   9.209100  -0.652329   0.068399
     5  P   -0.054068  -0.598813  -0.199339  -0.652329  15.963333  -0.049293
     6  Ca   0.121226   0.072279   0.038794   0.068399  -0.049293  18.301291
     7  Ca  -0.061832  -0.122846  -0.055892  -0.182515   0.476864  -0.026197
     8  Ca   0.085204  -0.037130  -0.009218  -0.048602   0.202102  -0.040647
              7          8
     1  O   -0.061832   0.085204
     2  O   -0.122846  -0.037130
     3  O   -0.055892  -0.009218
     4  O   -0.182515  -0.048602
     5  P    0.476864   0.202102
     6  Ca  -0.026197  -0.040647
     7  Ca  18.903072   0.099397
     8  Ca   0.099397  18.462286
 Mulliken atomic charges:
              1
     1  O   -0.627659
     2  O   -0.723643
     3  O   -0.627555
     4  O   -0.703393
     5  P   -0.088457
     6  Ca   1.514148
     7  Ca   0.969949
     8  Ca   1.286609
 Sum of Mulliken charges=   1.00000
 Atomic charges with hydrogens summed into heavy atoms:
              1
     1  O   -0.627659
     2  O   -0.723643
     3  O   -0.627555
     4  O   -0.703393
     5  P   -0.088457
     6  Ca   1.514148
     7  Ca   0.969949
     8  Ca   1.286609
 Sum of Mulliken charges=   1.00000
 Electronic spatial extent (au):  <R**2>=  1650.5039
 Charge=     1.0000 electrons
 Dipole moment (field-independent basis, Debye):
    X=    -1.3463    Y=    -1.5916    Z=    -2.9600  Tot=     3.6204
 Quadrupole moment (field-independent basis, Debye-Ang):
   XX=   -59.4338   YY=   -58.1207   ZZ=   -69.9542
   XY=   -10.3652   XZ=   -18.1624   YZ=   -19.1805
 Traceless Quadrupole moment (field-independent basis, Debye-Ang):
   XX=     3.0691   YY=     4.3822   ZZ=    -7.4513
   XY=   -10.3652   XZ=   -18.1624   YZ=   -19.1805
 Octapole moment (field-independent basis, Debye-Ang**2):
  XXX=   -14.5865  YYY=    22.1454  ZZZ=   -34.1499  XYY=   -14.2502
  XXY=   -38.2955  XXZ=     8.8600  XZZ=   -13.8338  YZZ=    16.7823
  YYZ=   -32.4524  XYZ=    36.8946
 Hexadecapole moment (field-independent basis, Debye-Ang**3):
 XXXX=  -760.7450 YYYY=  -619.9954 ZZZZ=  -597.0709 XXXY=   -41.0138
 XXXZ=  -106.3251 YYYX=   -22.9083 YYYZ=   -62.1224 ZZZX=   -62.5392
 ZZZY=   -68.8147 XXYY=  -211.0031 XXZZ=  -231.4533 YYZZ=  -194.9141
 XXYZ=   -23.9266 YYXZ=   -24.0424 ZZXY=    -2.7240
 N-N= 9.201995634494D+02 E-N=-8.162129734142D+03  KE= 2.667651221356D+03
 Merz-Kollman atomic radii used.
 Read replacement radii for each type of atom:
 Rad(20) =   1.188000000000D+00
 Atom Element Radius
    1     8    1.40
    2     8    1.40
    3     8    1.40
    4     8    1.40
    5    15    1.80
    6    20    1.19
    7    20    1.19
    8    20    1.19

 **********************************************************************

            Electrostatic Properties Using The SCF Density

 **********************************************************************

       Atomic Center    1 is at  -1.855340 -0.430699 -1.173902
       Atomic Center    2 is at  -0.594710  1.141981  1.165798
       Atomic Center    3 is at  -0.424950 -0.957219 -1.073712
       Atomic Center    4 is at   1.582320  0.967991 -0.119502
       Atomic Center    5 is at   1.004960  0.869261  1.431908
       Atomic Center    6 is at  -0.475170  1.395481 -1.159912
       Atomic Center    7 is at   1.732941 -1.334459 -0.459992
       Atomic Center    8 is at  -1.494420 -1.001789  1.026498
     725 points will be used for fitting atomic charges
 Fitting point charges to eletrostatic potential
 Charges from ESP fit, RMS=   0.01980 RRMS=   0.12246:
 Charge=   1.00000 Dipole=    -0.9676    -3.5019    -2.8775 Tot=     4.6346
              1
     1  O   -0.560789
     2  O   -0.469486
     3  O   -0.860392
     4  O   -0.416257
     5  P   -0.470176
     6  Ca   1.535130
     7  Ca   1.030039
     8  Ca   1.211930
 -----------------------------------------------------------------

              Electrostatic Properties (Atomic Units)

 -----------------------------------------------------------------
    Center     Electric         -------- Electric Field --------
               Potential          X             Y             Z
 -----------------------------------------------------------------
    1 Atom    -22.207870
    2 Atom    -22.219973
    3 Atom    -22.205093
    4 Atom    -22.225383
    5 Atom    -53.968813
    6 Atom    -80.026983
    7 Atom    -80.018026
    8 Atom    -80.021583
 -----------------------------------------------------------------
 1\1\GINC-N025\SP\RB3LYP\6-31+G(d,p)\Ca3O4P1(1+)\TIMN\12-Jun-2015\0\\# 
 b3lyp/6-31+G(d,p) int=ultrafine pop=(ReadRadii,MK)\\Ca3PO4_125.mol2c_p
 lusQ.z51127.zip.xyz\\1,1\O,0,-1.85534,-0.4307,-1.1739\O,0,-0.59471,1.1
 4198,1.1658\O,0,-0.42495,-0.95722,-1.07371\O,0,1.58232,0.96799,-0.1195
 \P,0,1.00496,0.86926,1.43191\Ca,0,-0.47517,1.39548,-1.15991\Ca,0,1.732
 94,-1.33446,-0.45999\Ca,0,-1.49442,-1.00179,1.0265\\Version=EM64T-G03R
 evE.01\State=1-A\HF=-2674.8970902\RMSD=8.076e-05\Thermal=0.\Dipole=-0.
 5296656,-0.626191,-1.16455\PG=C01 [X(Ca3O4P1)]\\@


 A MUSTACHE HAIR ACROSS A CHIP IS LIKE A REDWOOD
 TREE FALLING THROUGH A HOUSING PROJECT.
 - AN IBM MANAGER IN EAST FISHKILL, NEW YORK
   AS QUOTED IN "FROM SANDS TO CIRCUITS", IBM INNOVATION JANUARY 1985.
 Job cpu time:  0 days  0 hours  1 minutes 41.9 seconds.
 File lengths (MBytes):  RWF=     32 Int=      0 D2E=      0 Chk=     11 Scr=      1
 Normal termination of Gaussian 03 at Fri Jun 12 17:37:05 2015.
