 Entering Gaussian System, Link 0=/home/timn/tmp/g03.e01/g03
 Input=Ca3PO4_163.mol2cc_plusQc.z51689.zip.xyz.gjf
 Output=Ca3PO4_163.mol2cc_plusQc.z51689.zip.xyz.out
 Initial command:
 /home/timn/tmp/g03.e01/l1.exe /home/timn/tmp/g03.e01/Gau-18571.inp -scrdir=/home/timn/tmp/g03.e01/
 Default is to use a total of   2 processors:
                                2 via shared-memory
                                1 via Linda
 Entering Link 1 = /home/timn/tmp/g03.e01/l1.exe PID=     18572.
  
 Copyright (c) 1988,1990,1992,1993,1995,1998,2003,2004,2007, Gaussian, Inc.
                  All Rights Reserved.
  
 This is the Gaussian(R) 03 program.  It is based on the
 the Gaussian(R) 98 system (copyright 1998, Gaussian, Inc.),
 the Gaussian(R) 94 system (copyright 1995, Gaussian, Inc.),
 the Gaussian 92(TM) system (copyright 1992, Gaussian, Inc.),
 the Gaussian 90(TM) system (copyright 1990, Gaussian, Inc.),
 the Gaussian 88(TM) system (copyright 1988, Gaussian, Inc.),
 the Gaussian 86(TM) system (copyright 1986, Carnegie Mellon
 University), and the Gaussian 82(TM) system (copyright 1983,
 Carnegie Mellon University). Gaussian is a federally registered
 trademark of Gaussian, Inc.
  
 This software contains proprietary and confidential information,
 including trade secrets, belonging to Gaussian, Inc.
  
 This software is provided under written license and may be
 used, copied, transmitted, or stored only in accord with that
 written license.
  
 The following legend is applicable only to US Government
 contracts under FAR:
  
                    RESTRICTED RIGHTS LEGEND
  
 Use, reproduction and disclosure by the US Government is
 subject to restrictions as set forth in subparagraphs (a)
 and (c) of the Commercial Computer Software - Restricted
 Rights clause in FAR 52.227-19.
  
 Gaussian, Inc.
 340 Quinnipiac St., Bldg. 40, Wallingford CT 06492
  
  
 ---------------------------------------------------------------
 Warning -- This program may not be used in any manner that
 competes with the business of Gaussian, Inc. or will provide
 assistance to any competitor of Gaussian, Inc.  The licensee
 of this program is prohibited from giving any competitor of
 Gaussian, Inc. access to this program.  By using this program,
 the user acknowledges that Gaussian, Inc. is engaged in the
 business of creating and licensing software in the field of
 computational chemistry and represents and warrants to the
 licensee that it is not a competitor of Gaussian, Inc. and that
 it will not use this program in any manner prohibited above.
 ---------------------------------------------------------------
  

 Cite this work as:
 Gaussian 03, Revision E.01,
 M. J. Frisch, G. W. Trucks, H. B. Schlegel, G. E. Scuseria, 
 M. A. Robb, J. R. Cheeseman, J. A. Montgomery, Jr., T. Vreven, 
 K. N. Kudin, J. C. Burant, J. M. Millam, S. S. Iyengar, J. Tomasi, 
 V. Barone, B. Mennucci, M. Cossi, G. Scalmani, N. Rega, 
 G. A. Petersson, H. Nakatsuji, M. Hada, M. Ehara, K. Toyota, 
 R. Fukuda, J. Hasegawa, M. Ishida, T. Nakajima, Y. Honda, O. Kitao, 
 H. Nakai, M. Klene, X. Li, J. E. Knox, H. P. Hratchian, J. B. Cross, 
 V. Bakken, C. Adamo, J. Jaramillo, R. Gomperts, R. E. Stratmann, 
 O. Yazyev, A. J. Austin, R. Cammi, C. Pomelli, J. W. Ochterski, 
 P. Y. Ayala, K. Morokuma, G. A. Voth, P. Salvador, J. J. Dannenberg, 
 V. G. Zakrzewski, S. Dapprich, A. D. Daniels, M. C. Strain, 
 O. Farkas, D. K. Malick, A. D. Rabuck, K. Raghavachari, 
 J. B. Foresman, J. V. Ortiz, Q. Cui, A. G. Baboul, S. Clifford, 
 J. Cioslowski, B. B. Stefanov, G. Liu, A. Liashenko, P. Piskorz, 
 I. Komaromi, R. L. Martin, D. J. Fox, T. Keith, M. A. Al-Laham, 
 C. Y. Peng, A. Nanayakkara, M. Challacombe, P. M. W. Gill, 
 B. Johnson, W. Chen, M. W. Wong, C. Gonzalez, and J. A. Pople, 
 Gaussian, Inc., Wallingford CT, 2004.
 
 ******************************************
 Gaussian 03:  EM64T-G03RevE.01 11-Sep-2007
                12-Jun-2015 
 ******************************************
 %nproc=2
 Will use up to    2 processors via shared memory.
 Default route:  MP2=Direct MaxDisk=2000MB
 ----------------------------------------------------
 # b3lyp/6-31+G(d,p) int=ultrafine pop=(ReadRadii,MK)
 ----------------------------------------------------

 Warning!  SCF SP cutoffs with diffuse functions may be unreliable.
 Consider SCF=Tight

 1/38=1/1;
 2/17=6,18=5,40=1/2;
 3/5=1,6=6,7=111,11=2,16=1,25=1,30=1,74=-5,75=5/1,2,3;
 4//1;
 5/5=2,32=1,38=5/2;
 6/7=2,8=2,9=2,10=2,15=8,20=101,28=1/1,2;
 99/5=1,9=1/99;
 ---------------------------------------
 Ca3PO4_163.mol2cc_plusQc.z51689.zip.xyz
 ---------------------------------------
 Symbolic Z-matrix:
 Charge =  1 Multiplicity = 1
 O                    -2.94594   0.67049   0.00642 
 O                    -1.66941  -1.50436  -0.01306 
 O                     0.83135   0.94532  -0.00165 
 O                     2.83866  -1.41623   0.00358 
 P                    -3.07359  -0.87688   0.01231 
 Ca                    3.08613   0.68938   0.00675 
 Ca                    0.67105  -1.45754  -0.00704 
 Ca                   -1.07385   1.94773  -0.00706 
 
                          Input orientation:                          
 ---------------------------------------------------------------------
 Center     Atomic     Atomic              Coordinates (Angstroms)
 Number     Number      Type              X           Y           Z
 ---------------------------------------------------------------------
    1          8             0       -2.945940    0.670490    0.006420
    2          8             0       -1.669410   -1.504360   -0.013060
    3          8             0        0.831350    0.945320   -0.001650
    4          8             0        2.838660   -1.416230    0.003580
    5         15             0       -3.073590   -0.876880    0.012310
    6         20             0        3.086130    0.689380    0.006750
    7         20             0        0.671050   -1.457540   -0.007040
    8         20             0       -1.073850    1.947730   -0.007060
 ---------------------------------------------------------------------
                    Distance matrix (angstroms):
                    1          2          3          4          5
     1  O    0.000000
     2  O    2.521880   0.000000
     3  O    3.787284   3.500695   0.000000
     4  O    6.149472   4.508962   3.099393   0.000000
     5  P    1.552637   1.538212   4.309195   5.936807   0.000000
     6  Ca   6.032100   5.237179   2.269275   2.120105   6.355734
     7  Ca   4.196583   2.340936   2.408207   2.168030   3.789442
     8  Ca   2.266328   3.503092   2.152822   5.159852   3.460890
                    6          7          8
     6  Ca   0.000000
     7  Ca   3.231419   0.000000
     8  Ca   4.346156   3.826296   0.000000
 Stoichiometry    Ca3O4P(1+)
 Framework group  C1[X(Ca3O4P)]
 Deg. of freedom    18
 Full point group                 C1
 Largest Abelian subgroup         C1      NOp   1
 Largest concise Abelian subgroup C1      NOp   1
                         Standard orientation:                         
 ---------------------------------------------------------------------
 Center     Atomic     Atomic              Coordinates (Angstroms)
 Number     Number      Type              X           Y           Z
 ---------------------------------------------------------------------
    1          8             0       -2.945941    0.670488    0.006420
    2          8             0       -1.669409   -1.504361   -0.013060
    3          8             0        0.831349    0.945321   -0.001650
    4          8             0        2.838661   -1.416228    0.003580
    5         15             0       -3.073590   -0.876882    0.012310
    6         20             0        3.086129    0.689383    0.006750
    7         20             0        0.671051   -1.457539   -0.007040
    8         20             0       -1.073852    1.947730   -0.007060
 ---------------------------------------------------------------------
 Rotational constants (GHZ):      1.3693182      0.4764989      0.3534974
 Standard basis: 6-31+G(d,p) (6D, 7F)
 There are   180 symmetry adapted basis functions of A   symmetry.
 Integral buffers will be    131072 words long.
 Raffenetti 2 integral format.
 Two-electron integral symmetry is turned on.
   180 basis functions,   424 primitive gaussians,   180 cartesian basis functions
    53 alpha electrons       53 beta electrons
       nuclear repulsion energy       801.1471294795 Hartrees.
 NAtoms=    8 NActive=    8 NUniq=    8 SFac= 7.50D-01 NAtFMM=   80 NAOKFM=F Big=F
 One-electron integrals computed using PRISM.
 NBasis=   180 RedAO= T  NBF=   180
 NBsUse=   180 1.00D-06 NBFU=   180
 Harris functional with IExCor=  402 diagonalized for initial guess.
 ExpMin= 7.10D-03 ExpMax= 3.53D+04 ExpMxC= 5.30D+03 IAcc=3 IRadAn=         5 AccDes= 0.00D+00
 HarFok:  IExCor= 402 AccDes= 0.00D+00 IRadAn=         5 IDoV=1
 ScaDFX=  1.000000  1.000000  1.000000  1.000000
 Initial guess orbital symmetries:
       Occupied  (A) (A) (A) (A) (A) (A) (A) (A) (A) (A) (A) (A)
                 (A) (A) (A) (A) (A) (A) (A) (A) (A) (A) (A) (A)
                 (A) (A) (A) (A) (A) (A) (A) (A) (A) (A) (A) (A)
                 (A) (A) (A) (A) (A) (A) (A) (A) (A) (A) (A) (A)
                 (A) (A) (A) (A) (A)
       Virtual   (A) (A) (A) (A) (A) (A) (A) (A) (A) (A) (A) (A)
                 (A) (A) (A) (A) (A) (A) (A) (A) (A) (A) (A) (A)
                 (A) (A) (A) (A) (A) (A) (A) (A) (A) (A) (A) (A)
                 (A) (A) (A) (A) (A) (A) (A) (A) (A) (A) (A) (A)
                 (A) (A) (A) (A) (A) (A) (A) (A) (A) (A) (A) (A)
                 (A) (A) (A) (A) (A) (A) (A) (A) (A) (A) (A) (A)
                 (A) (A) (A) (A) (A) (A) (A) (A) (A) (A) (A) (A)
                 (A) (A) (A) (A) (A) (A) (A) (A) (A) (A) (A) (A)
                 (A) (A) (A) (A) (A) (A) (A) (A) (A) (A) (A) (A)
                 (A) (A) (A) (A) (A) (A) (A) (A) (A) (A) (A) (A)
                 (A) (A) (A) (A) (A) (A) (A)
 The electronic state of the initial guess is 1-A.
 Requested convergence on RMS density matrix=1.00D-04 within 128 cycles.
 Requested convergence on MAX density matrix=1.00D-02.
 Requested convergence on             energy=1.00D-02.
 No special actions if energy rises.
 EnCoef did     3 forward-backward iterations
 EnCoef did   100 forward-backward iterations
 EnCoef did     4 forward-backward iterations
 EnCoef did     3 forward-backward iterations
 SCF Done:  E(RB+HF-LYP) =  -2675.00577577     A.U. after   10 cycles
             Convg  =    0.8692D-04             -V/T =  2.0028
             S**2   =   0.0000

 **********************************************************************

            Population analysis using the SCF density.

 **********************************************************************

 Orbital symmetries:
       Occupied  (A) (A) (A) (A) (A) (A) (A) (A) (A) (A) (A) (A)
                 (A) (A) (A) (A) (A) (A) (A) (A) (A) (A) (A) (A)
                 (A) (A) (A) (A) (A) (A) (A) (A) (A) (A) (A) (A)
                 (A) (A) (A) (A) (A) (A) (A) (A) (A) (A) (A) (A)
                 (A) (A) (A) (A) (A)
       Virtual   (A) (A) (A) (A) (A) (A) (A) (A) (A) (A) (A) (A)
                 (A) (A) (A) (A) (A) (A) (A) (A) (A) (A) (A) (A)
                 (A) (A) (A) (A) (A) (A) (A) (A) (A) (A) (A) (A)
                 (A) (A) (A) (A) (A) (A) (A) (A) (A) (A) (A) (A)
                 (A) (A) (A) (A) (A) (A) (A) (A) (A) (A) (A) (A)
                 (A) (A) (A) (A) (A) (A) (A) (A) (A) (A) (A) (A)
                 (A) (A) (A) (A) (A) (A) (A) (A) (A) (A) (A) (A)
                 (A) (A) (A) (A) (A) (A) (A) (A) (A) (A) (A) (A)
                 (A) (A) (A) (A) (A) (A) (A) (A) (A) (A) (A) (A)
                 (A) (A) (A) (A) (A) (A) (A) (A) (A) (A) (A) (A)
                 (A) (A) (A) (A) (A) (A) (A)
 The electronic state is 1-A.
 Alpha  occ. eigenvalues -- -145.53285-145.47078-145.44480 -77.29397 -19.27577
 Alpha  occ. eigenvalues --  -19.27192 -19.17720 -19.10347 -15.60177 -15.53977
 Alpha  occ. eigenvalues --  -15.51438 -12.73434 -12.73381 -12.73220 -12.67217
 Alpha  occ. eigenvalues --  -12.67135 -12.67056 -12.64714 -12.64623 -12.64469
 Alpha  occ. eigenvalues --   -6.74946  -4.91386  -4.91162  -4.90725  -1.97376
 Alpha  occ. eigenvalues --   -1.91273  -1.88890  -1.25229  -1.25077  -1.24247
 Alpha  occ. eigenvalues --   -1.19139  -1.18813  -1.18231  -1.16995  -1.16384
 Alpha  occ. eigenvalues --   -1.16273  -1.13239  -1.07844  -0.92336  -0.84316
 Alpha  occ. eigenvalues --   -0.66976  -0.56443  -0.52393  -0.52181  -0.45140
 Alpha  occ. eigenvalues --   -0.43246  -0.40548  -0.38460  -0.37486  -0.36323
 Alpha  occ. eigenvalues --   -0.29849  -0.28440  -0.28143
 Alpha virt. eigenvalues --   -0.21384  -0.19371  -0.18292  -0.14049  -0.13464
 Alpha virt. eigenvalues --   -0.11742  -0.10627  -0.10448  -0.08683  -0.08515
 Alpha virt. eigenvalues --   -0.07774  -0.07166  -0.06433  -0.06124  -0.05565
 Alpha virt. eigenvalues --   -0.05537  -0.04824  -0.04710  -0.04333  -0.03842
 Alpha virt. eigenvalues --   -0.03765  -0.03758  -0.03490  -0.03199  -0.02769
 Alpha virt. eigenvalues --   -0.02683  -0.02490  -0.01507   0.00320   0.00758
 Alpha virt. eigenvalues --    0.02052   0.03222   0.03828   0.04046   0.04455
 Alpha virt. eigenvalues --    0.04567   0.05395   0.06090   0.06142   0.06377
 Alpha virt. eigenvalues --    0.06542   0.07575   0.07678   0.08102   0.08699
 Alpha virt. eigenvalues --    0.10062   0.10946   0.11860   0.12000   0.13509
 Alpha virt. eigenvalues --    0.14470   0.15681   0.15952   0.17394   0.18048
 Alpha virt. eigenvalues --    0.18307   0.20070   0.20941   0.21870   0.24093
 Alpha virt. eigenvalues --    0.25432   0.26596   0.27025   0.29653   0.30438
 Alpha virt. eigenvalues --    0.31673   0.32407   0.33022   0.35984   0.37351
 Alpha virt. eigenvalues --    0.39271   0.40354   0.43794   0.46189   0.48653
 Alpha virt. eigenvalues --    0.52109   0.56417   0.56687   0.58424   0.58769
 Alpha virt. eigenvalues --    0.67525   0.79928   0.90186   0.95056   1.01956
 Alpha virt. eigenvalues --    1.06688   1.07623   1.08716   1.10056   1.11367
 Alpha virt. eigenvalues --    1.17109   1.18610   1.19579   1.23474   1.26424
 Alpha virt. eigenvalues --    1.28697   1.32007   1.33506   1.39646   1.43381
 Alpha virt. eigenvalues --    1.47684   1.61489   1.66159   1.67039   1.70954
 Alpha virt. eigenvalues --    1.74753   1.77141   1.79307   1.82744   1.83701
 Alpha virt. eigenvalues --    1.85320   1.86226   1.87611   1.87717   1.89282
 Alpha virt. eigenvalues --    1.94197   1.99869   2.01590   2.10622   2.22830
 Alpha virt. eigenvalues --    2.54009   2.69088   3.39976   3.84715   3.91766
 Alpha virt. eigenvalues --    3.92598   4.07880
          Condensed to atoms (all electrons):
              1          2          3          4          5          6
     1  O    8.782220  -0.080219   0.003014   0.000009  -0.072714   0.003841
     2  O   -0.080219   8.836691  -0.009205  -0.001467  -0.109349   0.009049
     3  O    0.003014  -0.009205   9.066805  -0.023440  -0.007088   0.085549
     4  O    0.000009  -0.001467  -0.023440   8.690764  -0.000356   0.232609
     5  P   -0.072714  -0.109349  -0.007088  -0.000356  14.560087  -0.013992
     6  Ca   0.003841   0.009049   0.085549   0.232609  -0.013992  18.391890
     7  Ca  -0.001668   0.034737   0.040542   0.222684   0.007402  -0.029093
     8  Ca   0.085998   0.003245   0.189641  -0.001257  -0.035420  -0.006177
              7          8
     1  O   -0.001668   0.085998
     2  O    0.034737   0.003245
     3  O    0.040542   0.189641
     4  O    0.222684  -0.001257
     5  P    0.007402  -0.035420
     6  Ca  -0.029093  -0.006177
     7  Ca  18.384274  -0.006001
     8  Ca  -0.006001  18.245521
 Mulliken atomic charges:
              1
     1  O   -0.720483
     2  O   -0.683481
     3  O   -1.345819
     4  O   -1.119546
     5  P    0.671431
     6  Ca   1.326325
     7  Ca   1.347122
     8  Ca   1.524450
 Sum of Mulliken charges=   1.00000
 Atomic charges with hydrogens summed into heavy atoms:
              1
     1  O   -0.720483
     2  O   -0.683481
     3  O   -1.345819
     4  O   -1.119546
     5  P    0.671431
     6  Ca   1.326325
     7  Ca   1.347122
     8  Ca   1.524450
 Sum of Mulliken charges=   1.00000
 Electronic spatial extent (au):  <R**2>=  2666.5641
 Charge=     1.0000 electrons
 Dipole moment (field-independent basis, Debye):
    X=     0.3942    Y=    11.4506    Z=    -0.0308  Tot=    11.4574
 Quadrupole moment (field-independent basis, Debye-Ang):
   XX=   -58.9297   YY=   -46.9674   ZZ=   -69.1140
   XY=    17.4838   XZ=     0.1130   YZ=    -0.0318
 Traceless Quadrupole moment (field-independent basis, Debye-Ang):
   XX=    -0.5927   YY=    11.3696   ZZ=   -10.7770
   XY=    17.4838   XZ=     0.1130   YZ=    -0.0318
 Octapole moment (field-independent basis, Debye-Ang**2):
  XXX=   103.0252  YYY=    80.7633  ZZZ=    -0.1630  XYY=   -36.1291
  XXY=   115.5306  XXZ=     0.0379  XZZ=     0.3129  YZZ=     8.1746
  YYZ=    -0.3384  XYZ=     0.5035
 Hexadecapole moment (field-independent basis, Debye-Ang**3):
 XXXX= -2098.3462 YYYY=  -625.1144 ZZZZ=   -84.6875 XXXY=   423.3709
 XXXZ=     2.5504 YYYX=   -48.8208 YYYZ=    -0.2387 ZZZX=     0.4396
 ZZZY=     0.0644 XXYY=  -564.8449 XXZZ=  -384.8612 YYZZ=  -135.6660
 XXYZ=     0.4565 YYXZ=     0.2331 ZZXY=     5.3830
 N-N= 8.011471294795D+02 E-N=-7.926793449319D+03  KE= 2.667645559623D+03
 Merz-Kollman atomic radii used.
 Read replacement radii for each type of atom:
 Rad(20) =   1.188000000000D+00
 Atom Element Radius
    1     8    1.40
    2     8    1.40
    3     8    1.40
    4     8    1.40
    5    15    1.80
    6    20    1.19
    7    20    1.19
    8    20    1.19

 **********************************************************************

            Electrostatic Properties Using The SCF Density

 **********************************************************************

       Atomic Center    1 is at  -2.945941  0.670488  0.006420
       Atomic Center    2 is at  -1.669409 -1.504361 -0.013060
       Atomic Center    3 is at   0.831349  0.945321 -0.001650
       Atomic Center    4 is at   2.838661 -1.416228  0.003580
       Atomic Center    5 is at  -3.073590 -0.876882  0.012310
       Atomic Center    6 is at   3.086129  0.689383  0.006750
       Atomic Center    7 is at   0.671051 -1.457539 -0.007040
       Atomic Center    8 is at  -1.073852  1.947730 -0.007060
     824 points will be used for fitting atomic charges
 Fitting point charges to eletrostatic potential
 Charges from ESP fit, RMS=   0.00609 RRMS=   0.04016:
 Charge=   1.00000 Dipole=     0.7607    11.7876    -0.0235 Tot=    11.8121
              1
     1  O   -0.700248
     2  O   -0.654458
     3  O   -1.690911
     4  O   -1.467076
     5  P    0.537942
     6  Ca   1.591233
     7  Ca   1.690211
     8  Ca   1.693307
 -----------------------------------------------------------------

              Electrostatic Properties (Atomic Units)

 -----------------------------------------------------------------
    Center     Electric         -------- Electric Field --------
               Potential          X             Y             Z
 -----------------------------------------------------------------
    1 Atom    -22.188803
    2 Atom    -22.191196
    3 Atom    -22.280700
    4 Atom    -22.359674
    5 Atom    -53.918781
    6 Atom    -80.072299
    7 Atom    -80.096887
    8 Atom    -80.008536
 -----------------------------------------------------------------
 1\1\GINC-N026\SP\RB3LYP\6-31+G(d,p)\Ca3O4P1(1+)\TIMN\12-Jun-2015\0\\# 
 b3lyp/6-31+G(d,p) int=ultrafine pop=(ReadRadii,MK)\\Ca3PO4_163.mol2cc_
 plusQc.z51689.zip.xyz\\1,1\O,0,-2.94594,0.67049,0.00642\O,0,-1.66941,-
 1.50436,-0.01306\O,0,0.83135,0.94532,-0.00165\O,0,2.83866,-1.41623,0.0
 0358\P,0,-3.07359,-0.87688,0.01231\Ca,0,3.08613,0.68938,0.00675\Ca,0,0
 .67105,-1.45754,-0.00704\Ca,0,-1.07385,1.94773,-0.00706\\Version=EM64T
 -G03RevE.01\State=1-A\HF=-2675.0057758\RMSD=8.692e-05\Thermal=0.\Dipol
 e=0.1551005,4.5049974,-0.0121099\PG=C01 [X(Ca3O4P1)]\\@


      SCIENCE SANS CONSCIENCE N'EST QUE RUINE DE L'AME.

                                                  -- RABELAIS
 Job cpu time:  0 days  0 hours  1 minutes 47.2 seconds.
 File lengths (MBytes):  RWF=     32 Int=      0 D2E=      0 Chk=     11 Scr=      1
 Normal termination of Gaussian 03 at Fri Jun 12 17:39:13 2015.
