 Entering Gaussian System, Link 0=/home/timn/tmp/g03.e01/g03
 Input=Ca3PO4_159.mol2c_plusQ.z51164.zip.xyz.gjf
 Output=Ca3PO4_159.mol2c_plusQ.z51164.zip.xyz.out
 Initial command:
 /home/timn/tmp/g03.e01/l1.exe /home/timn/tmp/g03.e01/Gau-15997.inp -scrdir=/home/timn/tmp/g03.e01/
 Default is to use a total of   2 processors:
                                2 via shared-memory
                                1 via Linda
 Entering Link 1 = /home/timn/tmp/g03.e01/l1.exe PID=     15998.
  
 Copyright (c) 1988,1990,1992,1993,1995,1998,2003,2004,2007, Gaussian, Inc.
                  All Rights Reserved.
  
 This is the Gaussian(R) 03 program.  It is based on the
 the Gaussian(R) 98 system (copyright 1998, Gaussian, Inc.),
 the Gaussian(R) 94 system (copyright 1995, Gaussian, Inc.),
 the Gaussian 92(TM) system (copyright 1992, Gaussian, Inc.),
 the Gaussian 90(TM) system (copyright 1990, Gaussian, Inc.),
 the Gaussian 88(TM) system (copyright 1988, Gaussian, Inc.),
 the Gaussian 86(TM) system (copyright 1986, Carnegie Mellon
 University), and the Gaussian 82(TM) system (copyright 1983,
 Carnegie Mellon University). Gaussian is a federally registered
 trademark of Gaussian, Inc.
  
 This software contains proprietary and confidential information,
 including trade secrets, belonging to Gaussian, Inc.
  
 This software is provided under written license and may be
 used, copied, transmitted, or stored only in accord with that
 written license.
  
 The following legend is applicable only to US Government
 contracts under FAR:
  
                    RESTRICTED RIGHTS LEGEND
  
 Use, reproduction and disclosure by the US Government is
 subject to restrictions as set forth in subparagraphs (a)
 and (c) of the Commercial Computer Software - Restricted
 Rights clause in FAR 52.227-19.
  
 Gaussian, Inc.
 340 Quinnipiac St., Bldg. 40, Wallingford CT 06492
  
  
 ---------------------------------------------------------------
 Warning -- This program may not be used in any manner that
 competes with the business of Gaussian, Inc. or will provide
 assistance to any competitor of Gaussian, Inc.  The licensee
 of this program is prohibited from giving any competitor of
 Gaussian, Inc. access to this program.  By using this program,
 the user acknowledges that Gaussian, Inc. is engaged in the
 business of creating and licensing software in the field of
 computational chemistry and represents and warrants to the
 licensee that it is not a competitor of Gaussian, Inc. and that
 it will not use this program in any manner prohibited above.
 ---------------------------------------------------------------
  

 Cite this work as:
 Gaussian 03, Revision E.01,
 M. J. Frisch, G. W. Trucks, H. B. Schlegel, G. E. Scuseria, 
 M. A. Robb, J. R. Cheeseman, J. A. Montgomery, Jr., T. Vreven, 
 K. N. Kudin, J. C. Burant, J. M. Millam, S. S. Iyengar, J. Tomasi, 
 V. Barone, B. Mennucci, M. Cossi, G. Scalmani, N. Rega, 
 G. A. Petersson, H. Nakatsuji, M. Hada, M. Ehara, K. Toyota, 
 R. Fukuda, J. Hasegawa, M. Ishida, T. Nakajima, Y. Honda, O. Kitao, 
 H. Nakai, M. Klene, X. Li, J. E. Knox, H. P. Hratchian, J. B. Cross, 
 V. Bakken, C. Adamo, J. Jaramillo, R. Gomperts, R. E. Stratmann, 
 O. Yazyev, A. J. Austin, R. Cammi, C. Pomelli, J. W. Ochterski, 
 P. Y. Ayala, K. Morokuma, G. A. Voth, P. Salvador, J. J. Dannenberg, 
 V. G. Zakrzewski, S. Dapprich, A. D. Daniels, M. C. Strain, 
 O. Farkas, D. K. Malick, A. D. Rabuck, K. Raghavachari, 
 J. B. Foresman, J. V. Ortiz, Q. Cui, A. G. Baboul, S. Clifford, 
 J. Cioslowski, B. B. Stefanov, G. Liu, A. Liashenko, P. Piskorz, 
 I. Komaromi, R. L. Martin, D. J. Fox, T. Keith, M. A. Al-Laham, 
 C. Y. Peng, A. Nanayakkara, M. Challacombe, P. M. W. Gill, 
 B. Johnson, W. Chen, M. W. Wong, C. Gonzalez, and J. A. Pople, 
 Gaussian, Inc., Wallingford CT, 2004.
 
 ******************************************
 Gaussian 03:  EM64T-G03RevE.01 11-Sep-2007
                12-Jun-2015 
 ******************************************
 %nproc=2
 Will use up to    2 processors via shared memory.
 Default route:  MP2=Direct MaxDisk=2000MB
 ----------------------------------------------------
 # b3lyp/6-31+G(d,p) int=ultrafine pop=(ReadRadii,MK)
 ----------------------------------------------------

 Warning!  SCF SP cutoffs with diffuse functions may be unreliable.
 Consider SCF=Tight

 1/38=1/1;
 2/17=6,18=5,40=1/2;
 3/5=1,6=6,7=111,11=2,16=1,25=1,30=1,74=-5,75=5/1,2,3;
 4//1;
 5/5=2,32=1,38=5/2;
 6/7=2,8=2,9=2,10=2,15=8,20=101,28=1/1,2;
 99/5=1,9=1/99;
 -------------------------------------
 Ca3PO4_159.mol2c_plusQ.z51164.zip.xyz
 -------------------------------------
 Symbolic Z-matrix:
 Charge =  1 Multiplicity = 1
 O                     0.27994  -1.09112  -0.2088 
 O                    -1.59296   0.58479  -0.52858 
 O                     2.30292   0.89731   1.02908 
 O                     2.68755   0.83969  -0.49171 
 P                    -1.2089   -1.01904  -0.8083 
 Ca                   -3.58008  -0.00694   0.60294 
 Ca                    2.47068  -1.21278   0.33629 
 Ca                    0.5451    1.49173  -0.25301 
 
                          Input orientation:                          
 ---------------------------------------------------------------------
 Center     Atomic     Atomic              Coordinates (Angstroms)
 Number     Number      Type              X           Y           Z
 ---------------------------------------------------------------------
    1          8             0        0.279940   -1.091120   -0.208800
    2          8             0       -1.592960    0.584790   -0.528580
    3          8             0        2.302920    0.897310    1.029080
    4          8             0        2.687550    0.839690   -0.491710
    5         15             0       -1.208900   -1.019040   -0.808300
    6         20             0       -3.580080   -0.006940    0.602940
    7         20             0        2.470680   -1.212780    0.336290
    8         20             0        0.545100    1.491730   -0.253010
 ---------------------------------------------------------------------
                    Distance matrix (angstroms):
                    1          2          3          4          5
     1  O    0.000000
     2  O    2.533513   0.000000
     3  O    3.094939   4.207357   0.000000
     4  O    3.099137   4.288251   1.569733   0.000000
     5  P    1.606624   1.672727   4.402413   4.328675   0.000000
     6  Ca   4.090736   2.362018   5.967324   6.418584   2.939122
     7  Ca   2.260811   4.526856   2.227236   2.223792   3.858359
     8  Ca   2.596802   2.338756   2.255443   2.252160   3.112688
                    6          7          8
     6  Ca   0.000000
     7  Ca   6.175504   0.000000
     8  Ca   4.471663   3.371870   0.000000
 Stoichiometry    Ca3O4P(1+)
 Framework group  C1[X(Ca3O4P)]
 Deg. of freedom    18
 Full point group                 C1
 Largest Abelian subgroup         C1      NOp   1
 Largest concise Abelian subgroup C1      NOp   1
                         Standard orientation:                         
 ---------------------------------------------------------------------
 Center     Atomic     Atomic              Coordinates (Angstroms)
 Number     Number      Type              X           Y           Z
 ---------------------------------------------------------------------
    1          8             0        0.279939   -1.091120   -0.208798
    2          8             0       -1.592961    0.584790   -0.528578
    3          8             0        2.302919    0.897311    1.029082
    4          8             0        2.687549    0.839691   -0.491708
    5         15             0       -1.208901   -1.019040   -0.808298
    6         20             0       -3.580081   -0.006941    0.602942
    7         20             0        2.470679   -1.212779    0.336292
    8         20             0        0.545099    1.491731   -0.253008
 ---------------------------------------------------------------------
 Rotational constants (GHZ):      1.7053781      0.4499122      0.3935925
 Standard basis: 6-31+G(d,p) (6D, 7F)
 There are   180 symmetry adapted basis functions of A   symmetry.
 Integral buffers will be    131072 words long.
 Raffenetti 2 integral format.
 Two-electron integral symmetry is turned on.
   180 basis functions,   424 primitive gaussians,   180 cartesian basis functions
    53 alpha electrons       53 beta electrons
       nuclear repulsion energy       829.9979873992 Hartrees.
 NAtoms=    8 NActive=    8 NUniq=    8 SFac= 7.50D-01 NAtFMM=   80 NAOKFM=F Big=F
 One-electron integrals computed using PRISM.
 NBasis=   180 RedAO= T  NBF=   180
 NBsUse=   180 1.00D-06 NBFU=   180
 Harris functional with IExCor=  402 diagonalized for initial guess.
 ExpMin= 7.10D-03 ExpMax= 3.53D+04 ExpMxC= 5.30D+03 IAcc=3 IRadAn=         5 AccDes= 0.00D+00
 HarFok:  IExCor= 402 AccDes= 0.00D+00 IRadAn=         5 IDoV=1
 ScaDFX=  1.000000  1.000000  1.000000  1.000000
 Initial guess orbital symmetries:
       Occupied  (A) (A) (A) (A) (A) (A) (A) (A) (A) (A) (A) (A)
                 (A) (A) (A) (A) (A) (A) (A) (A) (A) (A) (A) (A)
                 (A) (A) (A) (A) (A) (A) (A) (A) (A) (A) (A) (A)
                 (A) (A) (A) (A) (A) (A) (A) (A) (A) (A) (A) (A)
                 (A) (A) (A) (A) (A)
       Virtual   (A) (A) (A) (A) (A) (A) (A) (A) (A) (A) (A) (A)
                 (A) (A) (A) (A) (A) (A) (A) (A) (A) (A) (A) (A)
                 (A) (A) (A) (A) (A) (A) (A) (A) (A) (A) (A) (A)
                 (A) (A) (A) (A) (A) (A) (A) (A) (A) (A) (A) (A)
                 (A) (A) (A) (A) (A) (A) (A) (A) (A) (A) (A) (A)
                 (A) (A) (A) (A) (A) (A) (A) (A) (A) (A) (A) (A)
                 (A) (A) (A) (A) (A) (A) (A) (A) (A) (A) (A) (A)
                 (A) (A) (A) (A) (A) (A) (A) (A) (A) (A) (A) (A)
                 (A) (A) (A) (A) (A) (A) (A) (A) (A) (A) (A) (A)
                 (A) (A) (A) (A) (A) (A) (A) (A) (A) (A) (A) (A)
                 (A) (A) (A) (A) (A) (A) (A)
 The electronic state of the initial guess is 1-A.
 Requested convergence on RMS density matrix=1.00D-04 within 128 cycles.
 Requested convergence on MAX density matrix=1.00D-02.
 Requested convergence on             energy=1.00D-02.
 No special actions if energy rises.
 EnCoef did     6 forward-backward iterations
 EnCoef did   100 forward-backward iterations
 EnCoef did   100 forward-backward iterations
 EnCoef did   100 forward-backward iterations
 SCF Done:  E(RB+HF-LYP) =  -2674.87852849     A.U. after   13 cycles
             Convg  =    0.8172D-04             -V/T =  2.0027
             S**2   =   0.0000

 **********************************************************************

            Population analysis using the SCF density.

 **********************************************************************

 Orbital symmetries:
       Occupied  (A) (A) (A) (A) (A) (A) (A) (A) (A) (A) (A) (A)
                 (A) (A) (A) (A) (A) (A) (A) (A) (A) (A) (A) (A)
                 (A) (A) (A) (A) (A) (A) (A) (A) (A) (A) (A) (A)
                 (A) (A) (A) (A) (A) (A) (A) (A) (A) (A) (A) (A)
                 (A) (A) (A) (A) (A)
       Virtual   (A) (A) (A) (A) (A) (A) (A) (A) (A) (A) (A) (A)
                 (A) (A) (A) (A) (A) (A) (A) (A) (A) (A) (A) (A)
                 (A) (A) (A) (A) (A) (A) (A) (A) (A) (A) (A) (A)
                 (A) (A) (A) (A) (A) (A) (A) (A) (A) (A) (A) (A)
                 (A) (A) (A) (A) (A) (A) (A) (A) (A) (A) (A) (A)
                 (A) (A) (A) (A) (A) (A) (A) (A) (A) (A) (A) (A)
                 (A) (A) (A) (A) (A) (A) (A) (A) (A) (A) (A) (A)
                 (A) (A) (A) (A) (A) (A) (A) (A) (A) (A) (A) (A)
                 (A) (A) (A) (A) (A) (A) (A) (A) (A) (A) (A) (A)
                 (A) (A) (A) (A) (A) (A) (A) (A) (A) (A) (A) (A)
                 (A) (A) (A) (A) (A) (A) (A)
 The electronic state is 1-A.
 Alpha  occ. eigenvalues -- -145.52026-145.51714-145.49195 -77.25374 -19.25140
 Alpha  occ. eigenvalues --  -19.24617 -19.22919 -19.22904 -15.58821 -15.58700
 Alpha  occ. eigenvalues --  -15.56087 -12.72031 -12.72007 -12.71953 -12.71895
 Alpha  occ. eigenvalues --  -12.71869 -12.71789 -12.69325 -12.69310 -12.69144
 Alpha  occ. eigenvalues --   -6.71041  -4.87421  -4.87167  -4.86928  -1.95957
 Alpha  occ. eigenvalues --   -1.95753  -1.93360  -1.24063  -1.23453  -1.23399
 Alpha  occ. eigenvalues --   -1.23269  -1.23061  -1.22992  -1.21211  -1.21056
 Alpha  occ. eigenvalues --   -1.20779  -1.09137  -1.05648  -1.03958  -0.86800
 Alpha  occ. eigenvalues --   -0.65660  -0.53358  -0.50994  -0.49154  -0.46366
 Alpha  occ. eigenvalues --   -0.45005  -0.44122  -0.43312  -0.41647  -0.39373
 Alpha  occ. eigenvalues --   -0.33868  -0.31839  -0.25237
 Alpha virt. eigenvalues --   -0.20653  -0.19678  -0.16782  -0.13714  -0.12704
 Alpha virt. eigenvalues --   -0.12388  -0.10600  -0.10417  -0.09895  -0.08626
 Alpha virt. eigenvalues --   -0.07609  -0.07018  -0.06824  -0.06415  -0.06195
 Alpha virt. eigenvalues --   -0.05446  -0.05163  -0.04834  -0.04651  -0.04295
 Alpha virt. eigenvalues --   -0.04057  -0.04001  -0.03917  -0.03362  -0.03217
 Alpha virt. eigenvalues --   -0.03156  -0.02732  -0.01868  -0.00365   0.01126
 Alpha virt. eigenvalues --    0.01362   0.02747   0.03395   0.03891   0.04104
 Alpha virt. eigenvalues --    0.04666   0.04967   0.05096   0.05566   0.05877
 Alpha virt. eigenvalues --    0.06425   0.06998   0.07203   0.07728   0.08180
 Alpha virt. eigenvalues --    0.08575   0.08874   0.09336   0.09924   0.10937
 Alpha virt. eigenvalues --    0.11467   0.14098   0.14395   0.15450   0.16623
 Alpha virt. eigenvalues --    0.17546   0.18217   0.19816   0.20359   0.21272
 Alpha virt. eigenvalues --    0.23586   0.24172   0.26769   0.26896   0.28752
 Alpha virt. eigenvalues --    0.30657   0.31416   0.33429   0.34895   0.36460
 Alpha virt. eigenvalues --    0.36622   0.37689   0.38907   0.42382   0.48539
 Alpha virt. eigenvalues --    0.50390   0.52906   0.57084   0.61049   0.64550
 Alpha virt. eigenvalues --    0.68209   0.70340   0.72323   0.87910   0.92648
 Alpha virt. eigenvalues --    1.06669   1.10322   1.10757   1.12703   1.13254
 Alpha virt. eigenvalues --    1.14686   1.16779   1.17678   1.19106   1.20585
 Alpha virt. eigenvalues --    1.25280   1.27975   1.35544   1.44759   1.48353
 Alpha virt. eigenvalues --    1.51755   1.53752   1.58593   1.65599   1.70590
 Alpha virt. eigenvalues --    1.71945   1.75078   1.76272   1.78234   1.81292
 Alpha virt. eigenvalues --    1.82386   1.83317   1.85654   1.88739   1.90340
 Alpha virt. eigenvalues --    1.98236   1.99230   2.18970   2.20799   2.38498
 Alpha virt. eigenvalues --    2.57835   3.03773   3.46029   3.91575   3.96557
 Alpha virt. eigenvalues --    4.03900   4.11959
          Condensed to atoms (all electrons):
              1          2          3          4          5          6
     1  O    8.983338   0.002041  -0.001288  -0.003130  -0.243459  -0.029146
     2  O    0.002041   9.308742  -0.000529  -0.002404  -0.407151  -0.223475
     3  O   -0.001288  -0.000529   8.481173  -0.031138  -0.003741   0.000763
     4  O   -0.003130  -0.002404  -0.031138   8.481104  -0.003843  -0.000385
     5  P   -0.243459  -0.407151  -0.003741  -0.003843  15.235492   0.302327
     6  Ca  -0.029146  -0.223475   0.000763  -0.000385   0.302327  19.174367
     7  Ca   0.066499   0.007174   0.101124   0.104560  -0.022099   0.011684
     8  Ca   0.028239   0.048653   0.105297   0.102378   0.014360   0.010071
              7          8
     1  O    0.066499   0.028239
     2  O    0.007174   0.048653
     3  O    0.101124   0.105297
     4  O    0.104560   0.102378
     5  P   -0.022099   0.014360
     6  Ca   0.011684   0.010071
     7  Ca  18.250170  -0.021893
     8  Ca  -0.021893  18.262636
 Mulliken atomic charges:
              1
     1  O   -0.803095
     2  O   -0.733050
     3  O   -0.651661
     4  O   -0.647143
     5  P    0.128113
     6  Ca   0.753796
     7  Ca   1.502781
     8  Ca   1.450258
 Sum of Mulliken charges=   1.00000
 Atomic charges with hydrogens summed into heavy atoms:
              1
     1  O   -0.803095
     2  O   -0.733050
     3  O   -0.651661
     4  O   -0.647143
     5  P    0.128113
     6  Ca   0.753796
     7  Ca   1.502781
     8  Ca   1.450258
 Sum of Mulliken charges=   1.00000
 Electronic spatial extent (au):  <R**2>=  2539.0405
 Charge=     1.0000 electrons
 Dipole moment (field-independent basis, Debye):
    X=    -1.0783    Y=    -1.7855    Z=     1.9134  Tot=     2.8305
 Quadrupole moment (field-independent basis, Debye-Ang):
   XX=   -38.4046   YY=   -56.0303   ZZ=   -79.1140
   XY=   -31.1375   XZ=    -3.6477   YZ=    -6.8575
 Traceless Quadrupole moment (field-independent basis, Debye-Ang):
   XX=    19.4450   YY=     1.8194   ZZ=   -21.2644
   XY=   -31.1375   XZ=    -3.6477   YZ=    -6.8575
 Octapole moment (field-independent basis, Debye-Ang**2):
  XXX=   -29.6841  YYY=    23.3027  ZZZ=    -3.0463  XYY=    59.9146
  XXY=   -87.5996  XXZ=    25.1236  XZZ=    18.5622  YZZ=     0.6432
  YYZ=    -0.6801  XYZ=   -18.1463
 Hexadecapole moment (field-independent basis, Debye-Ang**3):
 XXXX= -2024.5664 YYYY=  -454.4413 ZZZZ=  -297.2773 XXXY=  -332.0780
 XXXZ=    24.0094 YYYX=  -107.7775 YYYZ=   -32.4437 ZZZX=    24.1028
 ZZZY=   -27.1427 XXYY=  -469.5056 XXZZ=  -486.9761 YYZZ=  -138.9320
 XXYZ=   -27.2702 YYXZ=    15.2158 ZZXY=   -38.3899
 N-N= 8.299979873992D+02 E-N=-7.982729511036D+03  KE= 2.667645554257D+03
 Merz-Kollman atomic radii used.
 Read replacement radii for each type of atom:
 Rad(20) =   1.188000000000D+00
 Atom Element Radius
    1     8    1.40
    2     8    1.40
    3     8    1.40
    4     8    1.40
    5    15    1.80
    6    20    1.19
    7    20    1.19
    8    20    1.19

 **********************************************************************

            Electrostatic Properties Using The SCF Density

 **********************************************************************

       Atomic Center    1 is at   0.279939 -1.091120 -0.208798
       Atomic Center    2 is at  -1.592961  0.584790 -0.528578
       Atomic Center    3 is at   2.302919  0.897311  1.029082
       Atomic Center    4 is at   2.687549  0.839691 -0.491708
       Atomic Center    5 is at  -1.208901 -1.019040 -0.808298
       Atomic Center    6 is at  -3.580081 -0.006941  0.602942
       Atomic Center    7 is at   2.470679 -1.212779  0.336292
       Atomic Center    8 is at   0.545099  1.491731 -0.253008
     789 points will be used for fitting atomic charges
 Fitting point charges to eletrostatic potential
 Charges from ESP fit, RMS=   0.01459 RRMS=   0.09337:
 Charge=   1.00000 Dipole=    -4.1195    -1.7473     3.4814 Tot=     5.6695
              1
     1  O   -0.749148
     2  O   -0.608164
     3  O   -0.849101
     4  O   -0.727975
     5  P   -0.155620
     6  Ca   0.806861
     7  Ca   1.664961
     8  Ca   1.618185
 -----------------------------------------------------------------

              Electrostatic Properties (Atomic Units)

 -----------------------------------------------------------------
    Center     Electric         -------- Electric Field --------
               Potential          X             Y             Z
 -----------------------------------------------------------------
    1 Atom    -22.210096
    2 Atom    -22.220808
    3 Atom    -22.242717
    4 Atom    -22.243060
    5 Atom    -53.964966
    6 Atom    -80.025458
    7 Atom    -80.021251
    8 Atom    -80.049570
 -----------------------------------------------------------------
 1\1\GINC-N028\SP\RB3LYP\6-31+G(d,p)\Ca3O4P1(1+)\TIMN\12-Jun-2015\0\\# 
 b3lyp/6-31+G(d,p) int=ultrafine pop=(ReadRadii,MK)\\Ca3PO4_159.mol2c_p
 lusQ.z51164.zip.xyz\\1,1\O,0,0.27994,-1.09112,-0.2088\O,0,-1.59296,0.5
 8479,-0.52858\O,0,2.30292,0.89731,1.02908\O,0,2.68755,0.83969,-0.49171
 \P,0,-1.2089,-1.01904,-0.8083\Ca,0,-3.58008,-0.00694,0.60294\Ca,0,2.47
 068,-1.21278,0.33629\Ca,0,0.5451,1.49173,-0.25301\\Version=EM64T-G03Re
 vE.01\State=1-A\HF=-2674.8785285\RMSD=8.172e-05\Thermal=0.\Dipole=-0.4
 242323,-0.7024521,0.7527905\PG=C01 [X(Ca3O4P1)]\\@


 A MATHEMATICIAN IS A MACHINE FOR TURNING COFFEE INTO THEOREMS.
     -- QUOTED BY PAUL ERDOS
 Job cpu time:  0 days  0 hours  2 minutes 23.4 seconds.
 File lengths (MBytes):  RWF=     32 Int=      0 D2E=      0 Chk=     11 Scr=      1
 Normal termination of Gaussian 03 at Fri Jun 12 17:39:26 2015.
