 Entering Gaussian System, Link 0=/home/timn/tmp/g03.e01/g03
 Input=Ca3PO4_95.mol2_plusQ.z51513.zip.xyz.gjf
 Output=Ca3PO4_95.mol2_plusQ.z51513.zip.xyz.out
 Initial command:
 /home/timn/tmp/g03.e01/l1.exe /home/timn/tmp/g03.e01/Gau-19070.inp -scrdir=/home/timn/tmp/g03.e01/
 Default is to use a total of   2 processors:
                                2 via shared-memory
                                1 via Linda
 Entering Link 1 = /home/timn/tmp/g03.e01/l1.exe PID=     19071.
  
 Copyright (c) 1988,1990,1992,1993,1995,1998,2003,2004,2007, Gaussian, Inc.
                  All Rights Reserved.
  
 This is the Gaussian(R) 03 program.  It is based on the
 the Gaussian(R) 98 system (copyright 1998, Gaussian, Inc.),
 the Gaussian(R) 94 system (copyright 1995, Gaussian, Inc.),
 the Gaussian 92(TM) system (copyright 1992, Gaussian, Inc.),
 the Gaussian 90(TM) system (copyright 1990, Gaussian, Inc.),
 the Gaussian 88(TM) system (copyright 1988, Gaussian, Inc.),
 the Gaussian 86(TM) system (copyright 1986, Carnegie Mellon
 University), and the Gaussian 82(TM) system (copyright 1983,
 Carnegie Mellon University). Gaussian is a federally registered
 trademark of Gaussian, Inc.
  
 This software contains proprietary and confidential information,
 including trade secrets, belonging to Gaussian, Inc.
  
 This software is provided under written license and may be
 used, copied, transmitted, or stored only in accord with that
 written license.
  
 The following legend is applicable only to US Government
 contracts under FAR:
  
                    RESTRICTED RIGHTS LEGEND
  
 Use, reproduction and disclosure by the US Government is
 subject to restrictions as set forth in subparagraphs (a)
 and (c) of the Commercial Computer Software - Restricted
 Rights clause in FAR 52.227-19.
  
 Gaussian, Inc.
 340 Quinnipiac St., Bldg. 40, Wallingford CT 06492
  
  
 ---------------------------------------------------------------
 Warning -- This program may not be used in any manner that
 competes with the business of Gaussian, Inc. or will provide
 assistance to any competitor of Gaussian, Inc.  The licensee
 of this program is prohibited from giving any competitor of
 Gaussian, Inc. access to this program.  By using this program,
 the user acknowledges that Gaussian, Inc. is engaged in the
 business of creating and licensing software in the field of
 computational chemistry and represents and warrants to the
 licensee that it is not a competitor of Gaussian, Inc. and that
 it will not use this program in any manner prohibited above.
 ---------------------------------------------------------------
  

 Cite this work as:
 Gaussian 03, Revision E.01,
 M. J. Frisch, G. W. Trucks, H. B. Schlegel, G. E. Scuseria, 
 M. A. Robb, J. R. Cheeseman, J. A. Montgomery, Jr., T. Vreven, 
 K. N. Kudin, J. C. Burant, J. M. Millam, S. S. Iyengar, J. Tomasi, 
 V. Barone, B. Mennucci, M. Cossi, G. Scalmani, N. Rega, 
 G. A. Petersson, H. Nakatsuji, M. Hada, M. Ehara, K. Toyota, 
 R. Fukuda, J. Hasegawa, M. Ishida, T. Nakajima, Y. Honda, O. Kitao, 
 H. Nakai, M. Klene, X. Li, J. E. Knox, H. P. Hratchian, J. B. Cross, 
 V. Bakken, C. Adamo, J. Jaramillo, R. Gomperts, R. E. Stratmann, 
 O. Yazyev, A. J. Austin, R. Cammi, C. Pomelli, J. W. Ochterski, 
 P. Y. Ayala, K. Morokuma, G. A. Voth, P. Salvador, J. J. Dannenberg, 
 V. G. Zakrzewski, S. Dapprich, A. D. Daniels, M. C. Strain, 
 O. Farkas, D. K. Malick, A. D. Rabuck, K. Raghavachari, 
 J. B. Foresman, J. V. Ortiz, Q. Cui, A. G. Baboul, S. Clifford, 
 J. Cioslowski, B. B. Stefanov, G. Liu, A. Liashenko, P. Piskorz, 
 I. Komaromi, R. L. Martin, D. J. Fox, T. Keith, M. A. Al-Laham, 
 C. Y. Peng, A. Nanayakkara, M. Challacombe, P. M. W. Gill, 
 B. Johnson, W. Chen, M. W. Wong, C. Gonzalez, and J. A. Pople, 
 Gaussian, Inc., Wallingford CT, 2004.
 
 ******************************************
 Gaussian 03:  EM64T-G03RevE.01 11-Sep-2007
                12-Jun-2015 
 ******************************************
 %nproc=2
 Will use up to    2 processors via shared memory.
 Default route:  MP2=Direct MaxDisk=2000MB
 ----------------------------------------------------
 # b3lyp/6-31+G(d,p) int=ultrafine pop=(ReadRadii,MK)
 ----------------------------------------------------

 Warning!  SCF SP cutoffs with diffuse functions may be unreliable.
 Consider SCF=Tight

 1/38=1/1;
 2/17=6,18=5,40=1/2;
 3/5=1,6=6,7=111,11=2,16=1,25=1,30=1,74=-5,75=5/1,2,3;
 4//1;
 5/5=2,32=1,38=5/2;
 6/7=2,8=2,9=2,10=2,15=8,20=101,28=1/1,2;
 99/5=1,9=1/99;
 -----------------------------------
 Ca3PO4_95.mol2_plusQ.z51513.zip.xyz
 -----------------------------------
 Symbolic Z-matrix:
 Charge =  1 Multiplicity = 1
 O                     0.08978  -1.47724   0.92298 
 O                    -1.32505   0.66234   0.9218 
 O                     1.23486   0.81793   0.92207 
 O                     0.00017  -0.00152  -1.71182 
 P                    -0.0003    0.00213   1.71807 
 Ca                    1.74134  -0.86957  -0.56913 
 Ca                   -1.62305  -1.07412  -0.56933 
 Ca                   -0.11797   1.94149  -0.5721 
 
                          Input orientation:                          
 ---------------------------------------------------------------------
 Center     Atomic     Atomic              Coordinates (Angstroms)
 Number     Number      Type              X           Y           Z
 ---------------------------------------------------------------------
    1          8             0        0.089780   -1.477240    0.922980
    2          8             0       -1.325050    0.662340    0.921800
    3          8             0        1.234860    0.817930    0.922070
    4          8             0        0.000170   -0.001520   -1.711820
    5         15             0       -0.000300    0.002130    1.718070
    6         20             0        1.741340   -0.869570   -0.569130
    7         20             0       -1.623050   -1.074120   -0.569330
    8         20             0       -0.117970    1.941490   -0.572100
 ---------------------------------------------------------------------
                    Distance matrix (angstroms):
                    1          2          3          4          5
     1  O    0.000000
     2  O    2.565063   0.000000
     3  O    2.564959   2.564634   0.000000
     4  O    3.021250   3.022064   3.022141   0.000000
     5  P    1.681909   1.680740   1.680704   3.429892   0.000000
     6  Ca   2.307229   3.737963   2.308215   2.256308   3.004073
     7  Ca   2.307224   2.308152   3.737884   2.256235   3.003969
     8  Ca   3.737130   2.307597   2.307614   2.255705   3.003305
                    6          7          8
     6  Ca   0.000000
     7  Ca   3.370602   0.000000
     8  Ca   3.370327   3.370338   0.000000
 Stoichiometry    Ca3O4P(1+)
 Framework group  C1[X(Ca3O4P)]
 Deg. of freedom    18
 Full point group                 C1
 Largest Abelian subgroup         C1      NOp   1
 Largest concise Abelian subgroup C1      NOp   1
                         Standard orientation:                         
 ---------------------------------------------------------------------
 Center     Atomic     Atomic              Coordinates (Angstroms)
 Number     Number      Type              X           Y           Z
 ---------------------------------------------------------------------
    1          8             0        0.083865   -1.477588    0.922979
    2          8             0       -1.322387    0.667640    0.921799
    3          8             0        1.238125    0.812979    0.922069
    4          8             0        0.000164   -0.001521   -1.711821
    5         15             0       -0.000291    0.002131    1.718069
    6         20             0        1.737845   -0.876535   -0.569131
    7         20             0       -1.627337   -1.067613   -0.569331
    8         20             0       -0.110196    1.941946   -0.572101
 ---------------------------------------------------------------------
 Rotational constants (GHZ):      1.0155149      1.0154577      0.9037703
 Standard basis: 6-31+G(d,p) (6D, 7F)
 There are   180 symmetry adapted basis functions of A   symmetry.
 Integral buffers will be    131072 words long.
 Raffenetti 2 integral format.
 Two-electron integral symmetry is turned on.
   180 basis functions,   424 primitive gaussians,   180 cartesian basis functions
    53 alpha electrons       53 beta electrons
       nuclear repulsion energy       952.7148216371 Hartrees.
 NAtoms=    8 NActive=    8 NUniq=    8 SFac= 7.50D-01 NAtFMM=   80 NAOKFM=F Big=F
 One-electron integrals computed using PRISM.
 NBasis=   180 RedAO= T  NBF=   180
 NBsUse=   180 1.00D-06 NBFU=   180
 Harris functional with IExCor=  402 diagonalized for initial guess.
 ExpMin= 7.10D-03 ExpMax= 3.53D+04 ExpMxC= 5.30D+03 IAcc=3 IRadAn=         5 AccDes= 0.00D+00
 HarFok:  IExCor= 402 AccDes= 0.00D+00 IRadAn=         5 IDoV=1
 ScaDFX=  1.000000  1.000000  1.000000  1.000000
 Initial guess orbital symmetries:
       Occupied  (A) (A) (A) (A) (A) (A) (A) (A) (A) (A) (A) (A)
                 (A) (A) (A) (A) (A) (A) (A) (A) (A) (A) (A) (A)
                 (A) (A) (A) (A) (A) (A) (A) (A) (A) (A) (A) (A)
                 (A) (A) (A) (A) (A) (A) (A) (A) (A) (A) (A) (A)
                 (A) (A) (A) (A) (A)
       Virtual   (A) (A) (A) (A) (A) (A) (A) (A) (A) (A) (A) (A)
                 (A) (A) (A) (A) (A) (A) (A) (A) (A) (A) (A) (A)
                 (A) (A) (A) (A) (A) (A) (A) (A) (A) (A) (A) (A)
                 (A) (A) (A) (A) (A) (A) (A) (A) (A) (A) (A) (A)
                 (A) (A) (A) (A) (A) (A) (A) (A) (A) (A) (A) (A)
                 (A) (A) (A) (A) (A) (A) (A) (A) (A) (A) (A) (A)
                 (A) (A) (A) (A) (A) (A) (A) (A) (A) (A) (A) (A)
                 (A) (A) (A) (A) (A) (A) (A) (A) (A) (A) (A) (A)
                 (A) (A) (A) (A) (A) (A) (A) (A) (A) (A) (A) (A)
                 (A) (A) (A) (A) (A) (A) (A) (A) (A) (A) (A) (A)
                 (A) (A) (A) (A) (A) (A) (A)
 The electronic state of the initial guess is 1-A.
 Requested convergence on RMS density matrix=1.00D-04 within 128 cycles.
 Requested convergence on MAX density matrix=1.00D-02.
 Requested convergence on             energy=1.00D-02.
 No special actions if energy rises.
 SCF Done:  E(RB+HF-LYP) =  -2675.07103659     A.U. after    8 cycles
             Convg  =    0.8304D-04             -V/T =  2.0028
             S**2   =   0.0000

 **********************************************************************

            Population analysis using the SCF density.

 **********************************************************************

 Orbital symmetries:
       Occupied  (A) (A) (A) (A) (A) (A) (A) (A) (A) (A) (A) (A)
                 (A) (A) (A) (A) (A) (A) (A) (A) (A) (A) (A) (A)
                 (A) (A) (A) (A) (A) (A) (A) (A) (A) (A) (A) (A)
                 (A) (A) (A) (A) (A) (A) (A) (A) (A) (A) (A) (A)
                 (A) (A) (A) (A) (A)
       Virtual   (A) (A) (A) (A) (A) (A) (A) (A) (A) (A) (A) (A)
                 (A) (A) (A) (A) (A) (A) (A) (A) (A) (A) (A) (A)
                 (A) (A) (A) (A) (A) (A) (A) (A) (A) (A) (A) (A)
                 (A) (A) (A) (A) (A) (A) (A) (A) (A) (A) (A) (A)
                 (A) (A) (A) (A) (A) (A) (A) (A) (A) (A) (A) (A)
                 (A) (A) (A) (A) (A) (A) (A) (A) (A) (A) (A) (A)
                 (A) (A) (A) (A) (A) (A) (A) (A) (A) (A) (A) (A)
                 (A) (A) (A) (A) (A) (A) (A) (A) (A) (A) (A) (A)
                 (A) (A) (A) (A) (A) (A) (A) (A) (A) (A) (A) (A)
                 (A) (A) (A) (A) (A) (A) (A) (A) (A) (A) (A) (A)
                 (A) (A) (A) (A) (A) (A) (A)
 The electronic state is 1-A.
 Alpha  occ. eigenvalues -- -145.49638-145.49633-145.49631 -77.25053 -19.21250
 Alpha  occ. eigenvalues --  -19.21250 -19.21162 -19.15936 -15.56472 -15.56468
 Alpha  occ. eigenvalues --  -15.56467 -12.69669 -12.69667 -12.69666 -12.69647
 Alpha  occ. eigenvalues --  -12.69645 -12.69643 -12.69599 -12.69597 -12.69596
 Alpha  occ. eigenvalues --   -6.70083  -4.86431  -4.86431  -4.85895  -1.93821
 Alpha  occ. eigenvalues --   -1.93736  -1.93735  -1.22374  -1.21693  -1.21692
 Alpha  occ. eigenvalues --   -1.21303  -1.21136  -1.21062  -1.21061  -1.20639
 Alpha  occ. eigenvalues --   -1.20639  -1.06753  -1.00373  -1.00328  -0.90934
 Alpha  occ. eigenvalues --   -0.62640  -0.50529  -0.50518  -0.47956  -0.43355
 Alpha  occ. eigenvalues --   -0.43352  -0.38353  -0.38327  -0.38175  -0.36133
 Alpha  occ. eigenvalues --   -0.36128  -0.34586  -0.30858
 Alpha virt. eigenvalues --   -0.19948  -0.18025  -0.18024  -0.12553  -0.12552
 Alpha virt. eigenvalues --   -0.10892  -0.09477  -0.09476  -0.08337  -0.07770
 Alpha virt. eigenvalues --   -0.06545  -0.06114  -0.06113  -0.04764  -0.04716
 Alpha virt. eigenvalues --   -0.04714  -0.04672  -0.04474  -0.04472  -0.04003
 Alpha virt. eigenvalues --   -0.04003  -0.03231  -0.02943  -0.02942  -0.02358
 Alpha virt. eigenvalues --   -0.02355  -0.00866   0.01028   0.02177   0.02618
 Alpha virt. eigenvalues --    0.02619   0.04575   0.04577   0.05228   0.06004
 Alpha virt. eigenvalues --    0.06005   0.06294   0.06295   0.07291   0.07297
 Alpha virt. eigenvalues --    0.07383   0.07665   0.07670   0.07824   0.08467
 Alpha virt. eigenvalues --    0.10687   0.10687   0.11333   0.11805   0.13662
 Alpha virt. eigenvalues --    0.15682   0.15683   0.19891   0.19893   0.20374
 Alpha virt. eigenvalues --    0.22087   0.22094   0.23486   0.23995   0.25321
 Alpha virt. eigenvalues --    0.25958   0.25971   0.30034   0.31450   0.31458
 Alpha virt. eigenvalues --    0.35747   0.36005   0.36008   0.37870   0.39076
 Alpha virt. eigenvalues --    0.39090   0.39780   0.45832   0.45835   0.53631
 Alpha virt. eigenvalues --    0.53634   0.55847   0.63370   0.63373   0.67682
 Alpha virt. eigenvalues --    0.82900   0.86953   0.86971   0.94091   0.94120
 Alpha virt. eigenvalues --    1.14556   1.16752   1.16769   1.18031   1.20792
 Alpha virt. eigenvalues --    1.21961   1.21985   1.23406   1.23415   1.28212
 Alpha virt. eigenvalues --    1.34154   1.34197   1.36434   1.54453   1.54479
 Alpha virt. eigenvalues --    1.57770   1.68382   1.71621   1.73136   1.73162
 Alpha virt. eigenvalues --    1.77476   1.77490   1.87084   1.87374   1.87385
 Alpha virt. eigenvalues --    1.88080   1.92070   1.92079   1.93330   1.98430
 Alpha virt. eigenvalues --    1.98448   2.03028   2.03032   2.14792   2.38160
 Alpha virt. eigenvalues --    2.55091   2.55193   3.54380   4.05630   4.14263
 Alpha virt. eigenvalues --    4.14313   4.31234
          Condensed to atoms (all electrons):
              1          2          3          4          5          6
     1  O    8.964750   0.058557   0.058564   0.023949  -0.200043   0.059990
     2  O    0.058557   8.966249   0.058831   0.023968  -0.201084   0.006251
     3  O    0.058564   0.058831   8.966330   0.023977  -0.201126   0.059788
     4  O    0.023949   0.023968   0.023977   8.852628  -0.039977   0.122106
     5  P   -0.200043  -0.201084  -0.201126  -0.039977  14.442927   0.033655
     6  Ca   0.059990   0.006251   0.059788   0.122106   0.033655  18.396792
     7  Ca   0.060002   0.059817   0.006271   0.122110   0.033631  -0.047528
     8  Ca   0.006158   0.059729   0.059731   0.122245   0.034061  -0.047701
              7          8
     1  O    0.060002   0.006158
     2  O    0.059817   0.059729
     3  O    0.006271   0.059731
     4  O    0.122110   0.122245
     5  P    0.033631   0.034061
     6  Ca  -0.047528  -0.047701
     7  Ca  18.396812  -0.047722
     8  Ca  -0.047722  18.397093
 Mulliken atomic charges:
              1
     1  O   -1.031927
     2  O   -1.032318
     3  O   -1.032366
     4  O   -1.251006
     5  P    1.097957
     6  Ca   1.416646
     7  Ca   1.416608
     8  Ca   1.416406
 Sum of Mulliken charges=   1.00000
 Atomic charges with hydrogens summed into heavy atoms:
              1
     1  O   -1.031927
     2  O   -1.032318
     3  O   -1.032366
     4  O   -1.251006
     5  P    1.097957
     6  Ca   1.416646
     7  Ca   1.416608
     8  Ca   1.416406
 Sum of Mulliken charges=   1.00000
 Electronic spatial extent (au):  <R**2>=  1510.1150
 Charge=     1.0000 electrons
 Dipole moment (field-independent basis, Debye):
    X=     0.0021    Y=    -0.0139    Z=    -8.2286  Tot=     8.2286
 Quadrupole moment (field-independent basis, Debye-Ang):
   XX=   -40.0268   YY=   -40.0443   ZZ=   -90.0136
   XY=     0.0016   XZ=     0.0051   YZ=    -0.0486
 Traceless Quadrupole moment (field-independent basis, Debye-Ang):
   XX=    16.6681   YY=    16.6506   ZZ=   -33.3187
   XY=     0.0016   XZ=     0.0051   YZ=    -0.0486
 Octapole moment (field-independent basis, Debye-Ang**2):
  XXX=     9.9482  YYY=    57.5989  ZZZ=    -1.6888  XYY=    -9.9159
  XXY=   -57.8116  XXZ=   -46.6148  XZZ=    -0.0093  YZZ=     0.0760
  YYZ=   -46.7281  XYZ=     0.0028
 Hexadecapole moment (field-independent basis, Debye-Ang**3):
 XXXX=  -415.9908 YYYY=  -416.2369 ZZZZ=  -721.6734 XXXY=    -0.0049
 XXXZ=    -2.5924 YYYX=     0.0226 YYYZ=   -15.3868 ZZZX=     0.0254
 ZZZY=    -0.1985 XXYY=  -138.6473 XXZZ=  -187.6296 YYZZ=  -187.5682
 XXYZ=    15.1524 YYXZ=     2.6202 ZZXY=    -0.0015
 N-N= 9.527148216371D+02 E-N=-8.229902549933D+03  KE= 2.667693477352D+03
 Merz-Kollman atomic radii used.
 Read replacement radii for each type of atom:
 Rad(20) =   1.188000000000D+00
 Atom Element Radius
    1     8    1.40
    2     8    1.40
    3     8    1.40
    4     8    1.40
    5    15    1.80
    6    20    1.19
    7    20    1.19
    8    20    1.19

 **********************************************************************

            Electrostatic Properties Using The SCF Density

 **********************************************************************

       Atomic Center    1 is at   0.083865 -1.477588  0.922979
       Atomic Center    2 is at  -1.322387  0.667640  0.921799
       Atomic Center    3 is at   1.238125  0.812979  0.922069
       Atomic Center    4 is at   0.000164 -0.001521 -1.711821
       Atomic Center    5 is at  -0.000291  0.002131  1.718069
       Atomic Center    6 is at   1.737845 -0.876535 -0.569131
       Atomic Center    7 is at  -1.627337 -1.067613 -0.569331
       Atomic Center    8 is at  -0.110196  1.941946 -0.572101
     688 points will be used for fitting atomic charges
 Fitting point charges to eletrostatic potential
 Charges from ESP fit, RMS=   0.00619 RRMS=   0.03780:
 Charge=   1.00000 Dipole=     0.0341    -0.0386    -8.4019 Tot=     8.4021
              1
     1  O   -0.941186
     2  O   -0.943945
     3  O   -0.940850
     4  O   -1.634273
     5  P    0.512577
     6  Ca   1.650560
     7  Ca   1.649161
     8  Ca   1.647957
 -----------------------------------------------------------------

              Electrostatic Properties (Atomic Units)

 -----------------------------------------------------------------
    Center     Electric         -------- Electric Field --------
               Potential          X             Y             Z
 -----------------------------------------------------------------
    1 Atom    -22.250106
    2 Atom    -22.251771
    3 Atom    -22.251787
    4 Atom    -22.290737
    5 Atom    -53.967959
    6 Atom    -80.043258
    7 Atom    -80.043275
    8 Atom    -80.043385
 -----------------------------------------------------------------
 1\1\GINC-N026\SP\RB3LYP\6-31+G(d,p)\Ca3O4P1(1+)\TIMN\12-Jun-2015\0\\# 
 b3lyp/6-31+G(d,p) int=ultrafine pop=(ReadRadii,MK)\\Ca3PO4_95.mol2_plu
 sQ.z51513.zip.xyz\\1,1\O,0,0.08978,-1.47724,0.92298\O,0,-1.32505,0.662
 34,0.9218\O,0,1.23486,0.81793,0.92207\O,0,0.00017,-0.00152,-1.71182\P,
 0,-0.0003,0.00213,1.71807\Ca,0,1.74134,-0.86957,-0.56913\Ca,0,-1.62305
 ,-1.07412,-0.56933\Ca,0,-0.11797,1.94149,-0.5721\\Version=EM64T-G03Rev
 E.01\State=1-A\HF=-2675.0710366\RMSD=8.304e-05\Thermal=0.\Dipole=0.000
 856,-0.0054742,-3.237368\PG=C01 [X(Ca3O4P1)]\\@


 TERRY FORSTER, PORTLY ATLANTA BRAVES RELIEVER,
 ANNOUNCING THAT HE WAS GOING TO A FAT FARM:
 "A WAIST IS A TERRIBLE THING TO MIND."
 Job cpu time:  0 days  0 hours  1 minutes 43.1 seconds.
 File lengths (MBytes):  RWF=     32 Int=      0 D2E=      0 Chk=     11 Scr=      1
 Normal termination of Gaussian 03 at Fri Jun 12 17:46:23 2015.
