 Entering Gaussian System, Link 0=/home/timn/tmp/g03.e01/g03
 Input=Ca3PO4_168.mol2_plusQ.z51174.zip.xyz.gjf
 Output=Ca3PO4_168.mol2_plusQ.z51174.zip.xyz.out
 Initial command:
 /home/timn/tmp/g03.e01/l1.exe /home/timn/tmp/g03.e01/Gau-13278.inp -scrdir=/home/timn/tmp/g03.e01/
 Default is to use a total of   2 processors:
                                2 via shared-memory
                                1 via Linda
 Entering Link 1 = /home/timn/tmp/g03.e01/l1.exe PID=     13279.
  
 Copyright (c) 1988,1990,1992,1993,1995,1998,2003,2004,2007, Gaussian, Inc.
                  All Rights Reserved.
  
 This is the Gaussian(R) 03 program.  It is based on the
 the Gaussian(R) 98 system (copyright 1998, Gaussian, Inc.),
 the Gaussian(R) 94 system (copyright 1995, Gaussian, Inc.),
 the Gaussian 92(TM) system (copyright 1992, Gaussian, Inc.),
 the Gaussian 90(TM) system (copyright 1990, Gaussian, Inc.),
 the Gaussian 88(TM) system (copyright 1988, Gaussian, Inc.),
 the Gaussian 86(TM) system (copyright 1986, Carnegie Mellon
 University), and the Gaussian 82(TM) system (copyright 1983,
 Carnegie Mellon University). Gaussian is a federally registered
 trademark of Gaussian, Inc.
  
 This software contains proprietary and confidential information,
 including trade secrets, belonging to Gaussian, Inc.
  
 This software is provided under written license and may be
 used, copied, transmitted, or stored only in accord with that
 written license.
  
 The following legend is applicable only to US Government
 contracts under FAR:
  
                    RESTRICTED RIGHTS LEGEND
  
 Use, reproduction and disclosure by the US Government is
 subject to restrictions as set forth in subparagraphs (a)
 and (c) of the Commercial Computer Software - Restricted
 Rights clause in FAR 52.227-19.
  
 Gaussian, Inc.
 340 Quinnipiac St., Bldg. 40, Wallingford CT 06492
  
  
 ---------------------------------------------------------------
 Warning -- This program may not be used in any manner that
 competes with the business of Gaussian, Inc. or will provide
 assistance to any competitor of Gaussian, Inc.  The licensee
 of this program is prohibited from giving any competitor of
 Gaussian, Inc. access to this program.  By using this program,
 the user acknowledges that Gaussian, Inc. is engaged in the
 business of creating and licensing software in the field of
 computational chemistry and represents and warrants to the
 licensee that it is not a competitor of Gaussian, Inc. and that
 it will not use this program in any manner prohibited above.
 ---------------------------------------------------------------
  

 Cite this work as:
 Gaussian 03, Revision E.01,
 M. J. Frisch, G. W. Trucks, H. B. Schlegel, G. E. Scuseria, 
 M. A. Robb, J. R. Cheeseman, J. A. Montgomery, Jr., T. Vreven, 
 K. N. Kudin, J. C. Burant, J. M. Millam, S. S. Iyengar, J. Tomasi, 
 V. Barone, B. Mennucci, M. Cossi, G. Scalmani, N. Rega, 
 G. A. Petersson, H. Nakatsuji, M. Hada, M. Ehara, K. Toyota, 
 R. Fukuda, J. Hasegawa, M. Ishida, T. Nakajima, Y. Honda, O. Kitao, 
 H. Nakai, M. Klene, X. Li, J. E. Knox, H. P. Hratchian, J. B. Cross, 
 V. Bakken, C. Adamo, J. Jaramillo, R. Gomperts, R. E. Stratmann, 
 O. Yazyev, A. J. Austin, R. Cammi, C. Pomelli, J. W. Ochterski, 
 P. Y. Ayala, K. Morokuma, G. A. Voth, P. Salvador, J. J. Dannenberg, 
 V. G. Zakrzewski, S. Dapprich, A. D. Daniels, M. C. Strain, 
 O. Farkas, D. K. Malick, A. D. Rabuck, K. Raghavachari, 
 J. B. Foresman, J. V. Ortiz, Q. Cui, A. G. Baboul, S. Clifford, 
 J. Cioslowski, B. B. Stefanov, G. Liu, A. Liashenko, P. Piskorz, 
 I. Komaromi, R. L. Martin, D. J. Fox, T. Keith, M. A. Al-Laham, 
 C. Y. Peng, A. Nanayakkara, M. Challacombe, P. M. W. Gill, 
 B. Johnson, W. Chen, M. W. Wong, C. Gonzalez, and J. A. Pople, 
 Gaussian, Inc., Wallingford CT, 2004.
 
 ******************************************
 Gaussian 03:  EM64T-G03RevE.01 11-Sep-2007
                12-Jun-2015 
 ******************************************
 %nproc=2
 Will use up to    2 processors via shared memory.
 Default route:  MP2=Direct MaxDisk=2000MB
 ----------------------------------------------------
 # b3lyp/6-31+G(d,p) int=ultrafine pop=(ReadRadii,MK)
 ----------------------------------------------------

 Warning!  SCF SP cutoffs with diffuse functions may be unreliable.
 Consider SCF=Tight

 1/38=1/1;
 2/17=6,18=5,40=1/2;
 3/5=1,6=6,7=111,11=2,16=1,25=1,30=1,74=-5,75=5/1,2,3;
 4//1;
 5/5=2,32=1,38=5/2;
 6/7=2,8=2,9=2,10=2,15=8,20=101,28=1/1,2;
 99/5=1,9=1/99;
 ------------------------------------
 Ca3PO4_168.mol2_plusQ.z51174.zip.xyz
 ------------------------------------
 Symbolic Z-matrix:
 Charge =  1 Multiplicity = 1
 O                    -0.74134   1.2816    0.92238 
 O                    -0.73875  -1.28311   0.92235 
 O                    -0.00059   0.00001  -1.71198 
 O                     1.48127   0.00149   0.9223 
 P                     0.00018  -0.00002   1.71809 
 Ca                    0.97121   1.68602  -0.5704 
 Ca                   -1.9462   -0.00196  -0.56977 
 Ca                    0.97462  -1.68405  -0.57042 
 
                          Input orientation:                          
 ---------------------------------------------------------------------
 Center     Atomic     Atomic              Coordinates (Angstroms)
 Number     Number      Type              X           Y           Z
 ---------------------------------------------------------------------
    1          8             0       -0.741340    1.281600    0.922380
    2          8             0       -0.738750   -1.283110    0.922350
    3          8             0       -0.000590    0.000010   -1.711980
    4          8             0        1.481270    0.001490    0.922300
    5         15             0        0.000180   -0.000020    1.718090
    6         20             0        0.971210    1.686020   -0.570400
    7         20             0       -1.946200   -0.001960   -0.569770
    8         20             0        0.974620   -1.684050   -0.570420
 ---------------------------------------------------------------------
                    Distance matrix (angstroms):
                    1          2          3          4          5
     1  O    0.000000
     2  O    2.564711   0.000000
     3  O    3.021760   3.021750   0.000000
     4  O    2.564893   2.564895   3.022473   0.000000
     5  P    1.680939   1.680934   3.430070   1.681342   0.000000
     6  Ca   2.307547   3.737379   2.256154   2.307803   3.003800
     7  Ca   2.307753   2.307748   2.256113   3.738159   3.003781
     8  Ca   3.737386   2.307542   2.256159   2.307802   3.003792
                    6          7          8
     6  Ca   0.000000
     7  Ca   3.370543   0.000000
     8  Ca   3.370072   3.370551   0.000000
 Stoichiometry    Ca3O4P(1+)
 Framework group  C1[X(Ca3O4P)]
 Deg. of freedom    18
 Full point group                 C1
 Largest Abelian subgroup         C1      NOp   1
 Largest concise Abelian subgroup C1      NOp   1
                         Standard orientation:                         
 ---------------------------------------------------------------------
 Center     Atomic     Atomic              Coordinates (Angstroms)
 Number     Number      Type              X           Y           Z
 ---------------------------------------------------------------------
    1          8             0       -0.748566    1.277395    0.922380
    2          8             0       -0.731492   -1.287260    0.922350
    3          8             0       -0.000590    0.000008   -1.711980
    4          8             0        1.481238    0.009857    0.922300
    5         15             0        0.000180   -0.000017    1.718090
    6         20             0        0.961673    1.691480   -0.570400
    7         20             0       -1.946158   -0.012949   -0.569770
    8         20             0        0.984115   -1.678517   -0.570420
 ---------------------------------------------------------------------
 Rotational constants (GHZ):      1.0155619      1.0153673      0.9037919
 Standard basis: 6-31+G(d,p) (6D, 7F)
 There are   180 symmetry adapted basis functions of A   symmetry.
 Integral buffers will be    131072 words long.
 Raffenetti 2 integral format.
 Two-electron integral symmetry is turned on.
   180 basis functions,   424 primitive gaussians,   180 cartesian basis functions
    53 alpha electrons       53 beta electrons
       nuclear repulsion energy       952.7118998599 Hartrees.
 NAtoms=    8 NActive=    8 NUniq=    8 SFac= 7.50D-01 NAtFMM=   80 NAOKFM=F Big=F
 One-electron integrals computed using PRISM.
 NBasis=   180 RedAO= T  NBF=   180
 NBsUse=   180 1.00D-06 NBFU=   180
 Harris functional with IExCor=  402 diagonalized for initial guess.
 ExpMin= 7.10D-03 ExpMax= 3.53D+04 ExpMxC= 5.30D+03 IAcc=3 IRadAn=         5 AccDes= 0.00D+00
 HarFok:  IExCor= 402 AccDes= 0.00D+00 IRadAn=         5 IDoV=1
 ScaDFX=  1.000000  1.000000  1.000000  1.000000
 Initial guess orbital symmetries:
       Occupied  (A) (A) (A) (A) (A) (A) (A) (A) (A) (A) (A) (A)
                 (A) (A) (A) (A) (A) (A) (A) (A) (A) (A) (A) (A)
                 (A) (A) (A) (A) (A) (A) (A) (A) (A) (A) (A) (A)
                 (A) (A) (A) (A) (A) (A) (A) (A) (A) (A) (A) (A)
                 (A) (A) (A) (A) (A)
       Virtual   (A) (A) (A) (A) (A) (A) (A) (A) (A) (A) (A) (A)
                 (A) (A) (A) (A) (A) (A) (A) (A) (A) (A) (A) (A)
                 (A) (A) (A) (A) (A) (A) (A) (A) (A) (A) (A) (A)
                 (A) (A) (A) (A) (A) (A) (A) (A) (A) (A) (A) (A)
                 (A) (A) (A) (A) (A) (A) (A) (A) (A) (A) (A) (A)
                 (A) (A) (A) (A) (A) (A) (A) (A) (A) (A) (A) (A)
                 (A) (A) (A) (A) (A) (A) (A) (A) (A) (A) (A) (A)
                 (A) (A) (A) (A) (A) (A) (A) (A) (A) (A) (A) (A)
                 (A) (A) (A) (A) (A) (A) (A) (A) (A) (A) (A) (A)
                 (A) (A) (A) (A) (A) (A) (A) (A) (A) (A) (A) (A)
                 (A) (A) (A) (A) (A) (A) (A)
 The electronic state of the initial guess is 1-A.
 Requested convergence on RMS density matrix=1.00D-04 within 128 cycles.
 Requested convergence on MAX density matrix=1.00D-02.
 Requested convergence on             energy=1.00D-02.
 No special actions if energy rises.
 EnCoef did     1 forward-backward iterations
 SCF Done:  E(RB+HF-LYP) =  -2675.07103992     A.U. after    8 cycles
             Convg  =    0.8432D-04             -V/T =  2.0028
             S**2   =   0.0000

 **********************************************************************

            Population analysis using the SCF density.

 **********************************************************************

 Orbital symmetries:
       Occupied  (A) (A) (A) (A) (A) (A) (A) (A) (A) (A) (A) (A)
                 (A) (A) (A) (A) (A) (A) (A) (A) (A) (A) (A) (A)
                 (A) (A) (A) (A) (A) (A) (A) (A) (A) (A) (A) (A)
                 (A) (A) (A) (A) (A) (A) (A) (A) (A) (A) (A) (A)
                 (A) (A) (A) (A) (A)
       Virtual   (A) (A) (A) (A) (A) (A) (A) (A) (A) (A) (A) (A)
                 (A) (A) (A) (A) (A) (A) (A) (A) (A) (A) (A) (A)
                 (A) (A) (A) (A) (A) (A) (A) (A) (A) (A) (A) (A)
                 (A) (A) (A) (A) (A) (A) (A) (A) (A) (A) (A) (A)
                 (A) (A) (A) (A) (A) (A) (A) (A) (A) (A) (A) (A)
                 (A) (A) (A) (A) (A) (A) (A) (A) (A) (A) (A) (A)
                 (A) (A) (A) (A) (A) (A) (A) (A) (A) (A) (A) (A)
                 (A) (A) (A) (A) (A) (A) (A) (A) (A) (A) (A) (A)
                 (A) (A) (A) (A) (A) (A) (A) (A) (A) (A) (A) (A)
                 (A) (A) (A) (A) (A) (A) (A) (A) (A) (A) (A) (A)
                 (A) (A) (A) (A) (A) (A) (A)
 The electronic state is 1-A.
 Alpha  occ. eigenvalues -- -145.49642-145.49636-145.49634 -77.25055 -19.21229
 Alpha  occ. eigenvalues --  -19.21229 -19.21216 -19.15947 -15.56476 -15.56471
 Alpha  occ. eigenvalues --  -15.56470 -12.69674 -12.69670 -12.69669 -12.69651
 Alpha  occ. eigenvalues --  -12.69648 -12.69646 -12.69604 -12.69600 -12.69599
 Alpha  occ. eigenvalues --   -6.70086  -4.86434  -4.86434  -4.85898  -1.93824
 Alpha  occ. eigenvalues --   -1.93740  -1.93738  -1.22378  -1.21696  -1.21695
 Alpha  occ. eigenvalues --   -1.21307  -1.21140  -1.21066  -1.21064  -1.20644
 Alpha  occ. eigenvalues --   -1.20642  -1.06759  -1.00361  -1.00350  -0.90944
 Alpha  occ. eigenvalues --   -0.62644  -0.50529  -0.50526  -0.47961  -0.43359
 Alpha  occ. eigenvalues --   -0.43357  -0.38347  -0.38341  -0.38179  -0.36138
 Alpha  occ. eigenvalues --   -0.36138  -0.34594  -0.30861
 Alpha virt. eigenvalues --   -0.19950  -0.18027  -0.18025  -0.12554  -0.12554
 Alpha virt. eigenvalues --   -0.10894  -0.09479  -0.09477  -0.08338  -0.07772
 Alpha virt. eigenvalues --   -0.06546  -0.06114  -0.06114  -0.04765  -0.04716
 Alpha virt. eigenvalues --   -0.04715  -0.04673  -0.04475  -0.04473  -0.04003
 Alpha virt. eigenvalues --   -0.04003  -0.03232  -0.02944  -0.02942  -0.02359
 Alpha virt. eigenvalues --   -0.02357  -0.00867   0.01027   0.02176   0.02617
 Alpha virt. eigenvalues --    0.02617   0.04573   0.04575   0.05227   0.06003
 Alpha virt. eigenvalues --    0.06004   0.06292   0.06294   0.07290   0.07293
 Alpha virt. eigenvalues --    0.07382   0.07665   0.07665   0.07822   0.08465
 Alpha virt. eigenvalues --    0.10683   0.10687   0.11331   0.11803   0.13657
 Alpha virt. eigenvalues --    0.15678   0.15681   0.19889   0.19890   0.20369
 Alpha virt. eigenvalues --    0.22087   0.22088   0.23484   0.23992   0.25318
 Alpha virt. eigenvalues --    0.25960   0.25963   0.30033   0.31449   0.31453
 Alpha virt. eigenvalues --    0.35745   0.36001   0.36005   0.37866   0.39078
 Alpha virt. eigenvalues --    0.39082   0.39778   0.45829   0.45829   0.53629
 Alpha virt. eigenvalues --    0.53631   0.55846   0.63368   0.63369   0.67680
 Alpha virt. eigenvalues --    0.82896   0.86953   0.86961   0.94094   0.94114
 Alpha virt. eigenvalues --    1.14553   1.16753   1.16756   1.18029   1.20780
 Alpha virt. eigenvalues --    1.21968   1.21971   1.23403   1.23408   1.28209
 Alpha virt. eigenvalues --    1.34166   1.34174   1.36431   1.54458   1.54466
 Alpha virt. eigenvalues --    1.57770   1.68375   1.71618   1.73143   1.73146
 Alpha virt. eigenvalues --    1.77477   1.77481   1.87079   1.87367   1.87372
 Alpha virt. eigenvalues --    1.88071   1.92072   1.92073   1.93326   1.98432
 Alpha virt. eigenvalues --    1.98437   2.03020   2.03021   2.14780   2.38162
 Alpha virt. eigenvalues --    2.55126   2.55165   3.54376   4.05619   4.14279
 Alpha virt. eigenvalues --    4.14286   4.31221
          Condensed to atoms (all electrons):
              1          2          3          4          5          6
     1  O    8.965955   0.058707   0.023974   0.058642  -0.200946   0.059818
     2  O    0.058707   8.965957   0.023973   0.058643  -0.200949   0.006217
     3  O    0.023974   0.023973   8.852917   0.023957  -0.039950   0.122101
     4  O    0.058642   0.058643   0.023957   8.965525  -0.200511   0.059865
     5  P   -0.200946  -0.200949  -0.039950  -0.200511  14.443018   0.033776
     6  Ca   0.059818   0.006217   0.122101   0.059865   0.033776  18.396905
     7  Ca   0.059856   0.059854   0.122144   0.006230   0.033792  -0.047639
     8  Ca   0.006219   0.059820   0.122101   0.059866   0.033775  -0.047637
              7          8
     1  O    0.059856   0.006219
     2  O    0.059854   0.059820
     3  O    0.122144   0.122101
     4  O    0.006230   0.059866
     5  P    0.033792   0.033775
     6  Ca  -0.047639  -0.047637
     7  Ca  18.396705  -0.047641
     8  Ca  -0.047641  18.396903
 Mulliken atomic charges:
              1
     1  O   -1.032225
     2  O   -1.032222
     3  O   -1.251218
     4  O   -1.032216
     5  P    1.097994
     6  Ca   1.416594
     7  Ca   1.416700
     8  Ca   1.416593
 Sum of Mulliken charges=   1.00000
 Atomic charges with hydrogens summed into heavy atoms:
              1
     1  O   -1.032225
     2  O   -1.032222
     3  O   -1.251218
     4  O   -1.032216
     5  P    1.097994
     6  Ca   1.416594
     7  Ca   1.416700
     8  Ca   1.416593
 Sum of Mulliken charges=   1.00000
 Electronic spatial extent (au):  <R**2>=  1510.1143
 Charge=     1.0000 electrons
 Dipole moment (field-independent basis, Debye):
    X=    -0.0046    Y=     0.0000    Z=    -8.2285  Tot=     8.2285
 Quadrupole moment (field-independent basis, Debye-Ang):
   XX=   -40.0241   YY=   -40.0355   ZZ=   -90.0148
   XY=     0.0000   XZ=    -0.0172   YZ=     0.0001
 Traceless Quadrupole moment (field-independent basis, Debye-Ang):
   XX=    16.6674   YY=    16.6559   ZZ=   -33.3233
   XY=     0.0000   XZ=    -0.0172   YZ=     0.0001
 Octapole moment (field-independent basis, Debye-Ang**2):
  XXX=   -58.6591  YYY=     1.1708  ZZZ=    -1.6905  XYY=    58.5715
  XXY=    -1.1703  XXZ=   -46.6717  XZZ=     0.0171  YZZ=    -0.0006
  YYZ=   -46.6794  XYZ=     0.0005
 Hexadecapole moment (field-independent basis, Debye-Ang**3):
 XXXX=  -416.0514 YYYY=  -415.9774 ZZZZ=  -721.6959 XXXY=    -0.0001
 XXXZ=    15.3719 YYYX=     0.0002 YYYZ=    -0.3077 ZZZX=    -0.0618
 ZZZY=     0.0011 XXYY=  -138.6774 XXZZ=  -187.6120 YYZZ=  -187.5660
 XXYZ=     0.3085 YYXZ=   -15.4530 ZZXY=    -0.0002
 N-N= 9.527118998599D+02 E-N=-8.229901657069D+03  KE= 2.667694992470D+03
 Merz-Kollman atomic radii used.
 Read replacement radii for each type of atom:
 Rad(20) =   1.188000000000D+00
 Atom Element Radius
    1     8    1.40
    2     8    1.40
    3     8    1.40
    4     8    1.40
    5    15    1.80
    6    20    1.19
    7    20    1.19
    8    20    1.19

 **********************************************************************

            Electrostatic Properties Using The SCF Density

 **********************************************************************

       Atomic Center    1 is at  -0.748566  1.277395  0.922380
       Atomic Center    2 is at  -0.731492 -1.287260  0.922350
       Atomic Center    3 is at  -0.000590  0.000008 -1.711980
       Atomic Center    4 is at   1.481238  0.009857  0.922300
       Atomic Center    5 is at   0.000180 -0.000017  1.718090
       Atomic Center    6 is at   0.961673  1.691480 -0.570400
       Atomic Center    7 is at  -1.946158 -0.012949 -0.569770
       Atomic Center    8 is at   0.984115 -1.678517 -0.570420
     678 points will be used for fitting atomic charges
 Fitting point charges to eletrostatic potential
 Charges from ESP fit, RMS=   0.00602 RRMS=   0.03697:
 Charge=   1.00000 Dipole=    -0.0286     0.0000    -8.4181 Tot=     8.4182
              1
     1  O   -0.946429
     2  O   -0.946547
     3  O   -1.635063
     4  O   -0.952762
     5  P    0.523573
     6  Ca   1.653061
     7  Ca   1.651037
     8  Ca   1.653130
 -----------------------------------------------------------------

              Electrostatic Properties (Atomic Units)

 -----------------------------------------------------------------
    Center     Electric         -------- Electric Field --------
               Potential          X             Y             Z
 -----------------------------------------------------------------
    1 Atom    -22.251329
    2 Atom    -22.251333
    3 Atom    -22.291108
    4 Atom    -22.251152
    5 Atom    -53.968004
    6 Atom    -80.043318
    7 Atom    -80.043287
    8 Atom    -80.043317
 -----------------------------------------------------------------
 1\1\GINC-N032\SP\RB3LYP\6-31+G(d,p)\Ca3O4P1(1+)\TIMN\12-Jun-2015\0\\# 
 b3lyp/6-31+G(d,p) int=ultrafine pop=(ReadRadii,MK)\\Ca3PO4_168.mol2_pl
 usQ.z51174.zip.xyz\\1,1\O,0,-0.74134,1.2816,0.92238\O,0,-0.73875,-1.28
 311,0.92235\O,0,-0.00059,0.00001,-1.71198\O,0,1.48127,0.00149,0.9223\P
 ,0,0.00018,-0.00002,1.71809\Ca,0,0.97121,1.68602,-0.5704\Ca,0,-1.9462,
 -0.00196,-0.56977\Ca,0,0.97462,-1.68405,-0.57042\\Version=EM64T-G03Rev
 E.01\State=1-A\HF=-2675.0710399\RMSD=8.432e-05\Thermal=0.\Dipole=-0.00
 18227,0.0000158,-3.2373485\PG=C01 [X(Ca3O4P1)]\\@


      SCIENCE SANS CONSCIENCE N'EST QUE RUINE DE L'AME.

                                                  -- RABELAIS
 Job cpu time:  0 days  0 hours  1 minutes 43.3 seconds.
 File lengths (MBytes):  RWF=     32 Int=      0 D2E=      0 Chk=     11 Scr=      1
 Normal termination of Gaussian 03 at Fri Jun 12 17:39:13 2015.
