 Entering Gaussian System, Link 0=/home/timn/tmp/g03.e01/g03
 Input=Ca3PO4_83.mol2c_plusQ.z51500.zip.xyz.gjf
 Output=Ca3PO4_83.mol2c_plusQ.z51500.zip.xyz.out
 Initial command:
 /home/timn/tmp/g03.e01/l1.exe /home/timn/tmp/g03.e01/Gau-12266.inp -scrdir=/home/timn/tmp/g03.e01/
 Default is to use a total of   2 processors:
                                2 via shared-memory
                                1 via Linda
 Entering Link 1 = /home/timn/tmp/g03.e01/l1.exe PID=     12267.
  
 Copyright (c) 1988,1990,1992,1993,1995,1998,2003,2004,2007, Gaussian, Inc.
                  All Rights Reserved.
  
 This is the Gaussian(R) 03 program.  It is based on the
 the Gaussian(R) 98 system (copyright 1998, Gaussian, Inc.),
 the Gaussian(R) 94 system (copyright 1995, Gaussian, Inc.),
 the Gaussian 92(TM) system (copyright 1992, Gaussian, Inc.),
 the Gaussian 90(TM) system (copyright 1990, Gaussian, Inc.),
 the Gaussian 88(TM) system (copyright 1988, Gaussian, Inc.),
 the Gaussian 86(TM) system (copyright 1986, Carnegie Mellon
 University), and the Gaussian 82(TM) system (copyright 1983,
 Carnegie Mellon University). Gaussian is a federally registered
 trademark of Gaussian, Inc.
  
 This software contains proprietary and confidential information,
 including trade secrets, belonging to Gaussian, Inc.
  
 This software is provided under written license and may be
 used, copied, transmitted, or stored only in accord with that
 written license.
  
 The following legend is applicable only to US Government
 contracts under FAR:
  
                    RESTRICTED RIGHTS LEGEND
  
 Use, reproduction and disclosure by the US Government is
 subject to restrictions as set forth in subparagraphs (a)
 and (c) of the Commercial Computer Software - Restricted
 Rights clause in FAR 52.227-19.
  
 Gaussian, Inc.
 340 Quinnipiac St., Bldg. 40, Wallingford CT 06492
  
  
 ---------------------------------------------------------------
 Warning -- This program may not be used in any manner that
 competes with the business of Gaussian, Inc. or will provide
 assistance to any competitor of Gaussian, Inc.  The licensee
 of this program is prohibited from giving any competitor of
 Gaussian, Inc. access to this program.  By using this program,
 the user acknowledges that Gaussian, Inc. is engaged in the
 business of creating and licensing software in the field of
 computational chemistry and represents and warrants to the
 licensee that it is not a competitor of Gaussian, Inc. and that
 it will not use this program in any manner prohibited above.
 ---------------------------------------------------------------
  

 Cite this work as:
 Gaussian 03, Revision E.01,
 M. J. Frisch, G. W. Trucks, H. B. Schlegel, G. E. Scuseria, 
 M. A. Robb, J. R. Cheeseman, J. A. Montgomery, Jr., T. Vreven, 
 K. N. Kudin, J. C. Burant, J. M. Millam, S. S. Iyengar, J. Tomasi, 
 V. Barone, B. Mennucci, M. Cossi, G. Scalmani, N. Rega, 
 G. A. Petersson, H. Nakatsuji, M. Hada, M. Ehara, K. Toyota, 
 R. Fukuda, J. Hasegawa, M. Ishida, T. Nakajima, Y. Honda, O. Kitao, 
 H. Nakai, M. Klene, X. Li, J. E. Knox, H. P. Hratchian, J. B. Cross, 
 V. Bakken, C. Adamo, J. Jaramillo, R. Gomperts, R. E. Stratmann, 
 O. Yazyev, A. J. Austin, R. Cammi, C. Pomelli, J. W. Ochterski, 
 P. Y. Ayala, K. Morokuma, G. A. Voth, P. Salvador, J. J. Dannenberg, 
 V. G. Zakrzewski, S. Dapprich, A. D. Daniels, M. C. Strain, 
 O. Farkas, D. K. Malick, A. D. Rabuck, K. Raghavachari, 
 J. B. Foresman, J. V. Ortiz, Q. Cui, A. G. Baboul, S. Clifford, 
 J. Cioslowski, B. B. Stefanov, G. Liu, A. Liashenko, P. Piskorz, 
 I. Komaromi, R. L. Martin, D. J. Fox, T. Keith, M. A. Al-Laham, 
 C. Y. Peng, A. Nanayakkara, M. Challacombe, P. M. W. Gill, 
 B. Johnson, W. Chen, M. W. Wong, C. Gonzalez, and J. A. Pople, 
 Gaussian, Inc., Wallingford CT, 2004.
 
 ******************************************
 Gaussian 03:  EM64T-G03RevE.01 11-Sep-2007
                12-Jun-2015 
 ******************************************
 %nproc=2
 Will use up to    2 processors via shared memory.
 Default route:  MP2=Direct MaxDisk=2000MB
 ----------------------------------------------------
 # b3lyp/6-31+G(d,p) int=ultrafine pop=(ReadRadii,MK)
 ----------------------------------------------------

 Warning!  SCF SP cutoffs with diffuse functions may be unreliable.
 Consider SCF=Tight

 1/38=1/1;
 2/17=6,18=5,40=1/2;
 3/5=1,6=6,7=111,11=2,16=1,25=1,30=1,74=-5,75=5/1,2,3;
 4//1;
 5/5=2,32=1,38=5/2;
 6/7=2,8=2,9=2,10=2,15=8,20=101,28=1/1,2;
 99/5=1,9=1/99;
 ------------------------------------
 Ca3PO4_83.mol2c_plusQ.z51500.zip.xyz
 ------------------------------------
 Symbolic Z-matrix:
 Charge =  1 Multiplicity = 1
 O                     1.38731   0.51906   0.92193 
 O                    -0.00023  -0.0013   -1.71187 
 O                    -1.142     0.94332   0.92195 
 O                    -0.24484  -1.45971   0.92288 
 P                     0.00035   0.00198   1.71804 
 Ca                   -1.82311  -0.68142  -0.56927 
 Ca                    1.50097  -1.23899  -0.56929 
 Ca                    0.32178   1.91838  -0.57192 
 
                          Input orientation:                          
 ---------------------------------------------------------------------
 Center     Atomic     Atomic              Coordinates (Angstroms)
 Number     Number      Type              X           Y           Z
 ---------------------------------------------------------------------
    1          8             0        1.387310    0.519060    0.921930
    2          8             0       -0.000230   -0.001300   -1.711870
    3          8             0       -1.142000    0.943320    0.921950
    4          8             0       -0.244840   -1.459710    0.922880
    5         15             0        0.000350    0.001980    1.718040
    6         20             0       -1.823110   -0.681420   -0.569270
    7         20             0        1.500970   -1.238990   -0.569290
    8         20             0        0.321780    1.918380   -0.571920
 ---------------------------------------------------------------------
                    Distance matrix (angstroms):
                    1          2          3          4          5
     1  O    0.000000
     2  O    3.022076   0.000000
     3  O    2.564645   3.022078   0.000000
     4  O    2.565043   3.021374   2.565044   0.000000
     5  P    1.680720   3.429912   1.680727   1.681944   0.000000
     6  Ca   3.737864   2.256322   2.308122   2.307202   3.003969
     7  Ca   2.308115   2.256317   3.737856   2.307193   3.003955
     8  Ca   2.307604   2.255737   2.307605   3.737242   3.003302
                    6          7          8
     6  Ca   0.000000
     7  Ca   3.370518   0.000000
     8  Ca   3.370389   3.370383   0.000000
 Stoichiometry    Ca3O4P(1+)
 Framework group  C1[X(Ca3O4P)]
 Deg. of freedom    18
 Full point group                 C1
 Largest Abelian subgroup         C1      NOp   1
 Largest concise Abelian subgroup C1      NOp   1
                         Standard orientation:                         
 ---------------------------------------------------------------------
 Center     Atomic     Atomic              Coordinates (Angstroms)
 Number     Number      Type              X           Y           Z
 ---------------------------------------------------------------------
    1          8             0        1.407556    0.461343    0.921929
    2          8             0       -0.000283   -0.001290   -1.711871
    3          8             0       -1.102082    0.989662    0.921949
    4          8             0       -0.304894   -1.448358    0.922879
    5         15             0        0.000432    0.001963    1.718039
    6         20             0       -1.849687   -0.605574   -0.569271
    7         20             0        1.448540   -1.299901   -0.569291
    8         20             0        0.400705    1.903459   -0.571921
 ---------------------------------------------------------------------
 Rotational constants (GHZ):      1.0154981      1.0154938      0.9037636
 Standard basis: 6-31+G(d,p) (6D, 7F)
 There are   180 symmetry adapted basis functions of A   symmetry.
 Integral buffers will be    131072 words long.
 Raffenetti 2 integral format.
 Two-electron integral symmetry is turned on.
   180 basis functions,   424 primitive gaussians,   180 cartesian basis functions
    53 alpha electrons       53 beta electrons
       nuclear repulsion energy       952.7158400651 Hartrees.
 NAtoms=    8 NActive=    8 NUniq=    8 SFac= 7.50D-01 NAtFMM=   80 NAOKFM=F Big=F
 One-electron integrals computed using PRISM.
 NBasis=   180 RedAO= T  NBF=   180
 NBsUse=   180 1.00D-06 NBFU=   180
 Harris functional with IExCor=  402 diagonalized for initial guess.
 ExpMin= 7.10D-03 ExpMax= 3.53D+04 ExpMxC= 5.30D+03 IAcc=3 IRadAn=         5 AccDes= 0.00D+00
 HarFok:  IExCor= 402 AccDes= 0.00D+00 IRadAn=         5 IDoV=1
 ScaDFX=  1.000000  1.000000  1.000000  1.000000
 Initial guess orbital symmetries:
       Occupied  (A) (A) (A) (A) (A) (A) (A) (A) (A) (A) (A) (A)
                 (A) (A) (A) (A) (A) (A) (A) (A) (A) (A) (A) (A)
                 (A) (A) (A) (A) (A) (A) (A) (A) (A) (A) (A) (A)
                 (A) (A) (A) (A) (A) (A) (A) (A) (A) (A) (A) (A)
                 (A) (A) (A) (A) (A)
       Virtual   (A) (A) (A) (A) (A) (A) (A) (A) (A) (A) (A) (A)
                 (A) (A) (A) (A) (A) (A) (A) (A) (A) (A) (A) (A)
                 (A) (A) (A) (A) (A) (A) (A) (A) (A) (A) (A) (A)
                 (A) (A) (A) (A) (A) (A) (A) (A) (A) (A) (A) (A)
                 (A) (A) (A) (A) (A) (A) (A) (A) (A) (A) (A) (A)
                 (A) (A) (A) (A) (A) (A) (A) (A) (A) (A) (A) (A)
                 (A) (A) (A) (A) (A) (A) (A) (A) (A) (A) (A) (A)
                 (A) (A) (A) (A) (A) (A) (A) (A) (A) (A) (A) (A)
                 (A) (A) (A) (A) (A) (A) (A) (A) (A) (A) (A) (A)
                 (A) (A) (A) (A) (A) (A) (A) (A) (A) (A) (A) (A)
                 (A) (A) (A) (A) (A) (A) (A)
 The electronic state of the initial guess is 1-A.
 Requested convergence on RMS density matrix=1.00D-04 within 128 cycles.
 Requested convergence on MAX density matrix=1.00D-02.
 Requested convergence on             energy=1.00D-02.
 No special actions if energy rises.
 SCF Done:  E(RB+HF-LYP) =  -2675.07105182     A.U. after    8 cycles
             Convg  =    0.8166D-04             -V/T =  2.0028
             S**2   =   0.0000

 **********************************************************************

            Population analysis using the SCF density.

 **********************************************************************

 Orbital symmetries:
       Occupied  (A) (A) (A) (A) (A) (A) (A) (A) (A) (A) (A) (A)
                 (A) (A) (A) (A) (A) (A) (A) (A) (A) (A) (A) (A)
                 (A) (A) (A) (A) (A) (A) (A) (A) (A) (A) (A) (A)
                 (A) (A) (A) (A) (A) (A) (A) (A) (A) (A) (A) (A)
                 (A) (A) (A) (A) (A)
       Virtual   (A) (A) (A) (A) (A) (A) (A) (A) (A) (A) (A) (A)
                 (A) (A) (A) (A) (A) (A) (A) (A) (A) (A) (A) (A)
                 (A) (A) (A) (A) (A) (A) (A) (A) (A) (A) (A) (A)
                 (A) (A) (A) (A) (A) (A) (A) (A) (A) (A) (A) (A)
                 (A) (A) (A) (A) (A) (A) (A) (A) (A) (A) (A) (A)
                 (A) (A) (A) (A) (A) (A) (A) (A) (A) (A) (A) (A)
                 (A) (A) (A) (A) (A) (A) (A) (A) (A) (A) (A) (A)
                 (A) (A) (A) (A) (A) (A) (A) (A) (A) (A) (A) (A)
                 (A) (A) (A) (A) (A) (A) (A) (A) (A) (A) (A) (A)
                 (A) (A) (A) (A) (A) (A) (A) (A) (A) (A) (A) (A)
                 (A) (A) (A) (A) (A) (A) (A)
 The electronic state is 1-A.
 Alpha  occ. eigenvalues -- -145.49638-145.49632-145.49631 -77.25055 -19.21252
 Alpha  occ. eigenvalues --  -19.21252 -19.21160 -19.15933 -15.56471 -15.56467
 Alpha  occ. eigenvalues --  -15.56467 -12.69668 -12.69667 -12.69666 -12.69645
 Alpha  occ. eigenvalues --  -12.69645 -12.69643 -12.69598 -12.69597 -12.69596
 Alpha  occ. eigenvalues --   -6.70085  -4.86433  -4.86433  -4.85897  -1.93820
 Alpha  occ. eigenvalues --   -1.93736  -1.93735  -1.22374  -1.21693  -1.21691
 Alpha  occ. eigenvalues --   -1.21303  -1.21136  -1.21062  -1.21060  -1.20639
 Alpha  occ. eigenvalues --   -1.20639  -1.06753  -1.00374  -1.00327  -0.90931
 Alpha  occ. eigenvalues --   -0.62641  -0.50530  -0.50518  -0.47957  -0.43356
 Alpha  occ. eigenvalues --   -0.43352  -0.38354  -0.38327  -0.38176  -0.36130
 Alpha  occ. eigenvalues --   -0.36126  -0.34585  -0.30858
 Alpha virt. eigenvalues --   -0.19948  -0.18025  -0.18025  -0.12553  -0.12552
 Alpha virt. eigenvalues --   -0.10892  -0.09477  -0.09477  -0.08338  -0.07770
 Alpha virt. eigenvalues --   -0.06545  -0.06114  -0.06113  -0.04765  -0.04717
 Alpha virt. eigenvalues --   -0.04714  -0.04672  -0.04474  -0.04472  -0.04004
 Alpha virt. eigenvalues --   -0.04003  -0.03232  -0.02943  -0.02943  -0.02359
 Alpha virt. eigenvalues --   -0.02356  -0.00866   0.01027   0.02177   0.02618
 Alpha virt. eigenvalues --    0.02619   0.04575   0.04576   0.05228   0.06004
 Alpha virt. eigenvalues --    0.06005   0.06294   0.06295   0.07291   0.07297
 Alpha virt. eigenvalues --    0.07383   0.07666   0.07670   0.07824   0.08467
 Alpha virt. eigenvalues --    0.10687   0.10688   0.11333   0.11805   0.13661
 Alpha virt. eigenvalues --    0.15682   0.15683   0.19891   0.19893   0.20374
 Alpha virt. eigenvalues --    0.22088   0.22094   0.23486   0.23995   0.25321
 Alpha virt. eigenvalues --    0.25959   0.25971   0.30033   0.31451   0.31458
 Alpha virt. eigenvalues --    0.35747   0.36005   0.36008   0.37871   0.39075
 Alpha virt. eigenvalues --    0.39089   0.39780   0.45833   0.45834   0.53631
 Alpha virt. eigenvalues --    0.53634   0.55847   0.63370   0.63373   0.67682
 Alpha virt. eigenvalues --    0.82901   0.86955   0.86970   0.94089   0.94121
 Alpha virt. eigenvalues --    1.14557   1.16752   1.16770   1.18031   1.20792
 Alpha virt. eigenvalues --    1.21959   1.21984   1.23407   1.23416   1.28212
 Alpha virt. eigenvalues --    1.34156   1.34196   1.36436   1.54452   1.54479
 Alpha virt. eigenvalues --    1.57772   1.68383   1.71620   1.73136   1.73162
 Alpha virt. eigenvalues --    1.77476   1.77490   1.87085   1.87376   1.87386
 Alpha virt. eigenvalues --    1.88080   1.92069   1.92079   1.93329   1.98433
 Alpha virt. eigenvalues --    1.98448   2.03030   2.03032   2.14789   2.38156
 Alpha virt. eigenvalues --    2.55087   2.55192   3.54380   4.05630   4.14262
 Alpha virt. eigenvalues --    4.14314   4.31233
          Condensed to atoms (all electrons):
              1          2          3          4          5          6
     1  O    8.966283   0.023986   0.058834   0.058574  -0.201092   0.006253
     2  O    0.023986   8.852548   0.023993   0.023930  -0.039952   0.122114
     3  O    0.058834   0.023993   8.966294   0.058571  -0.201086   0.059807
     4  O    0.058574   0.023930   0.058571   8.964675  -0.200033   0.060010
     5  P   -0.201092  -0.039952  -0.201086  -0.200033  14.442937   0.033625
     6  Ca   0.006253   0.122114   0.059807   0.060010   0.033625  18.396811
     7  Ca   0.059803   0.122106   0.006255   0.060005   0.033632  -0.047544
     8  Ca   0.059724   0.122235   0.059719   0.006156   0.034067  -0.047719
              7          8
     1  O    0.059803   0.059724
     2  O    0.122106   0.122235
     3  O    0.006255   0.059719
     4  O    0.060005   0.006156
     5  P    0.033632   0.034067
     6  Ca  -0.047544  -0.047719
     7  Ca  18.396823  -0.047702
     8  Ca  -0.047702  18.397082
 Mulliken atomic charges:
              1
     1  O   -1.032364
     2  O   -1.250961
     3  O   -1.032387
     4  O   -1.031889
     5  P    1.097901
     6  Ca   1.416641
     7  Ca   1.416621
     8  Ca   1.416439
 Sum of Mulliken charges=   1.00000
 Atomic charges with hydrogens summed into heavy atoms:
              1
     1  O   -1.032364
     2  O   -1.250961
     3  O   -1.032387
     4  O   -1.031889
     5  P    1.097901
     6  Ca   1.416641
     7  Ca   1.416621
     8  Ca   1.416439
 Sum of Mulliken charges=   1.00000
 Electronic spatial extent (au):  <R**2>=  1510.1119
 Charge=     1.0000 electrons
 Dipole moment (field-independent basis, Debye):
    X=    -0.0027    Y=    -0.0128    Z=    -8.2280  Tot=     8.2280
 Quadrupole moment (field-independent basis, Debye-Ang):
   XX=   -40.0297   YY=   -40.0419   ZZ=   -90.0151
   XY=    -0.0025   XZ=    -0.0093   YZ=    -0.0429
 Traceless Quadrupole moment (field-independent basis, Debye-Ang):
   XX=    16.6658   YY=    16.6537   ZZ=   -33.3195
   XY=    -0.0025   XZ=    -0.0093   YZ=    -0.0429
 Octapole moment (field-independent basis, Debye-Ang**2):
  XXX=   -34.1990  YYY=    47.4764  ZZZ=    -1.6831  XYY=    34.1588
  XXY=   -47.6591  XXZ=   -46.6192  XZZ=     0.0149  YZZ=     0.0674
  YYZ=   -46.7181  XYZ=    -0.0214
 Hexadecapole moment (field-independent basis, Debye-Ang**3):
 XXXX=  -415.9839 YYYY=  -416.2187 ZZZZ=  -721.6729 XXXY=     0.0059
 XXXZ=     8.9640 YYYX=    -0.0569 YYYZ=   -12.6930 ZZZX=    -0.0383
 ZZZY=    -0.1735 XXYY=  -138.6627 XXZZ=  -187.6232 YYZZ=  -187.5771
 XXYZ=    12.4868 YYXZ=    -9.0092 ZZXY=     0.0100
 N-N= 9.527158400651D+02 E-N=-8.229903702470D+03  KE= 2.667693175654D+03
 Merz-Kollman atomic radii used.
 Read replacement radii for each type of atom:
 Rad(20) =   1.188000000000D+00
 Atom Element Radius
    1     8    1.40
    2     8    1.40
    3     8    1.40
    4     8    1.40
    5    15    1.80
    6    20    1.19
    7    20    1.19
    8    20    1.19

 **********************************************************************

            Electrostatic Properties Using The SCF Density

 **********************************************************************

       Atomic Center    1 is at   1.407556  0.461343  0.921929
       Atomic Center    2 is at  -0.000283 -0.001290 -1.711871
       Atomic Center    3 is at  -1.102082  0.989662  0.921949
       Atomic Center    4 is at  -0.304894 -1.448358  0.922879
       Atomic Center    5 is at   0.000432  0.001963  1.718039
       Atomic Center    6 is at  -1.849687 -0.605574 -0.569271
       Atomic Center    7 is at   1.448540 -1.299901 -0.569291
       Atomic Center    8 is at   0.400705  1.903459 -0.571921
     682 points will be used for fitting atomic charges
 Fitting point charges to eletrostatic potential
 Charges from ESP fit, RMS=   0.00619 RRMS=   0.03807:
 Charge=   1.00000 Dipole=     0.0152    -0.0090    -8.4255 Tot=     8.4256
              1
     1  O   -0.944001
     2  O   -1.635029
     3  O   -0.947257
     4  O   -0.948473
     5  P    0.518894
     6  Ca   1.652603
     7  Ca   1.652205
     8  Ca   1.651057
 -----------------------------------------------------------------

              Electrostatic Properties (Atomic Units)

 -----------------------------------------------------------------
    Center     Electric         -------- Electric Field --------
               Potential          X             Y             Z
 -----------------------------------------------------------------
    1 Atom    -22.251800
    2 Atom    -22.290615
    3 Atom    -22.251817
    4 Atom    -22.250042
    5 Atom    -53.967972
    6 Atom    -80.043269
    7 Atom    -80.043267
    8 Atom    -80.043378
 -----------------------------------------------------------------
 1\1\GINC-N034\SP\RB3LYP\6-31+G(d,p)\Ca3O4P1(1+)\TIMN\12-Jun-2015\0\\# 
 b3lyp/6-31+G(d,p) int=ultrafine pop=(ReadRadii,MK)\\Ca3PO4_83.mol2c_pl
 usQ.z51500.zip.xyz\\1,1\O,0,1.38731,0.51906,0.92193\O,0,-0.00023,-0.00
 13,-1.71187\O,0,-1.142,0.94332,0.92195\O,0,-0.24484,-1.45971,0.92288\P
 ,0,0.00035,0.00198,1.71804\Ca,0,-1.82311,-0.68142,-0.56927\Ca,0,1.5009
 7,-1.23899,-0.56929\Ca,0,0.32178,1.91838,-0.57192\\Version=EM64T-G03Re
 vE.01\State=1-A\HF=-2675.0710518\RMSD=8.166e-05\Thermal=0.\Dipole=-0.0
 008496,-0.0050749,-3.2371468\PG=C01 [X(Ca3O4P1)]\\@


 THERE'S A SUCKER BORN EVERY MINUTE

              -- PHINEAS TAYLOR (P.T.) BARNUM
 Job cpu time:  0 days  0 hours  1 minutes 44.0 seconds.
 File lengths (MBytes):  RWF=     32 Int=      0 D2E=      0 Chk=     11 Scr=      1
 Normal termination of Gaussian 03 at Fri Jun 12 17:45:47 2015.
