 Entering Gaussian System, Link 0=/home/timn/tmp/g03.e01/g03
 Input=Ca3PO4_117.mol2_plusQ.z51118.zip.xyz.gjf
 Output=Ca3PO4_117.mol2_plusQ.z51118.zip.xyz.out
 Initial command:
 /home/timn/tmp/g03.e01/l1.exe /home/timn/tmp/g03.e01/Gau-13449.inp -scrdir=/home/timn/tmp/g03.e01/
 Default is to use a total of   2 processors:
                                2 via shared-memory
                                1 via Linda
 Entering Link 1 = /home/timn/tmp/g03.e01/l1.exe PID=     13452.
  
 Copyright (c) 1988,1990,1992,1993,1995,1998,2003,2004,2007, Gaussian, Inc.
                  All Rights Reserved.
  
 This is the Gaussian(R) 03 program.  It is based on the
 the Gaussian(R) 98 system (copyright 1998, Gaussian, Inc.),
 the Gaussian(R) 94 system (copyright 1995, Gaussian, Inc.),
 the Gaussian 92(TM) system (copyright 1992, Gaussian, Inc.),
 the Gaussian 90(TM) system (copyright 1990, Gaussian, Inc.),
 the Gaussian 88(TM) system (copyright 1988, Gaussian, Inc.),
 the Gaussian 86(TM) system (copyright 1986, Carnegie Mellon
 University), and the Gaussian 82(TM) system (copyright 1983,
 Carnegie Mellon University). Gaussian is a federally registered
 trademark of Gaussian, Inc.
  
 This software contains proprietary and confidential information,
 including trade secrets, belonging to Gaussian, Inc.
  
 This software is provided under written license and may be
 used, copied, transmitted, or stored only in accord with that
 written license.
  
 The following legend is applicable only to US Government
 contracts under FAR:
  
                    RESTRICTED RIGHTS LEGEND
  
 Use, reproduction and disclosure by the US Government is
 subject to restrictions as set forth in subparagraphs (a)
 and (c) of the Commercial Computer Software - Restricted
 Rights clause in FAR 52.227-19.
  
 Gaussian, Inc.
 340 Quinnipiac St., Bldg. 40, Wallingford CT 06492
  
  
 ---------------------------------------------------------------
 Warning -- This program may not be used in any manner that
 competes with the business of Gaussian, Inc. or will provide
 assistance to any competitor of Gaussian, Inc.  The licensee
 of this program is prohibited from giving any competitor of
 Gaussian, Inc. access to this program.  By using this program,
 the user acknowledges that Gaussian, Inc. is engaged in the
 business of creating and licensing software in the field of
 computational chemistry and represents and warrants to the
 licensee that it is not a competitor of Gaussian, Inc. and that
 it will not use this program in any manner prohibited above.
 ---------------------------------------------------------------
  

 Cite this work as:
 Gaussian 03, Revision E.01,
 M. J. Frisch, G. W. Trucks, H. B. Schlegel, G. E. Scuseria, 
 M. A. Robb, J. R. Cheeseman, J. A. Montgomery, Jr., T. Vreven, 
 K. N. Kudin, J. C. Burant, J. M. Millam, S. S. Iyengar, J. Tomasi, 
 V. Barone, B. Mennucci, M. Cossi, G. Scalmani, N. Rega, 
 G. A. Petersson, H. Nakatsuji, M. Hada, M. Ehara, K. Toyota, 
 R. Fukuda, J. Hasegawa, M. Ishida, T. Nakajima, Y. Honda, O. Kitao, 
 H. Nakai, M. Klene, X. Li, J. E. Knox, H. P. Hratchian, J. B. Cross, 
 V. Bakken, C. Adamo, J. Jaramillo, R. Gomperts, R. E. Stratmann, 
 O. Yazyev, A. J. Austin, R. Cammi, C. Pomelli, J. W. Ochterski, 
 P. Y. Ayala, K. Morokuma, G. A. Voth, P. Salvador, J. J. Dannenberg, 
 V. G. Zakrzewski, S. Dapprich, A. D. Daniels, M. C. Strain, 
 O. Farkas, D. K. Malick, A. D. Rabuck, K. Raghavachari, 
 J. B. Foresman, J. V. Ortiz, Q. Cui, A. G. Baboul, S. Clifford, 
 J. Cioslowski, B. B. Stefanov, G. Liu, A. Liashenko, P. Piskorz, 
 I. Komaromi, R. L. Martin, D. J. Fox, T. Keith, M. A. Al-Laham, 
 C. Y. Peng, A. Nanayakkara, M. Challacombe, P. M. W. Gill, 
 B. Johnson, W. Chen, M. W. Wong, C. Gonzalez, and J. A. Pople, 
 Gaussian, Inc., Wallingford CT, 2004.
 
 ******************************************
 Gaussian 03:  EM64T-G03RevE.01 11-Sep-2007
                12-Jun-2015 
 ******************************************
 %nproc=2
 Will use up to    2 processors via shared memory.
 Default route:  MP2=Direct MaxDisk=2000MB
 ----------------------------------------------------
 # b3lyp/6-31+G(d,p) int=ultrafine pop=(ReadRadii,MK)
 ----------------------------------------------------

 Warning!  SCF SP cutoffs with diffuse functions may be unreliable.
 Consider SCF=Tight

 1/38=1/1;
 2/17=6,18=5,40=1/2;
 3/5=1,6=6,7=111,11=2,16=1,25=1,30=1,74=-5,75=5/1,2,3;
 4//1;
 5/5=2,32=1,38=5/2;
 6/7=2,8=2,9=2,10=2,15=8,20=101,28=1/1,2;
 99/5=1,9=1/99;
 ------------------------------------
 Ca3PO4_117.mol2_plusQ.z51118.zip.xyz
 ------------------------------------
 Symbolic Z-matrix:
 Charge =  1 Multiplicity = 1
 O                    -1.61567  -1.63866  -0.00851 
 O                     2.64939  -1.36986  -0.00283 
 O                    -2.71789   0.64683   0.00381 
 O                     0.96111   1.66788   0.00383 
 P                    -2.95793  -0.87887  -0.0102 
 Ca                    0.64377  -2.04574   0.01164 
 Ca                    2.93698   0.75368  -0.00814 
 Ca                   -1.07308   2.22874   0.00563 
 
                          Input orientation:                          
 ---------------------------------------------------------------------
 Center     Atomic     Atomic              Coordinates (Angstroms)
 Number     Number      Type              X           Y           Z
 ---------------------------------------------------------------------
    1          8             0       -1.615670   -1.638660   -0.008510
    2          8             0        2.649390   -1.369860   -0.002830
    3          8             0       -2.717890    0.646830    0.003810
    4          8             0        0.961110    1.667880    0.003830
    5         15             0       -2.957930   -0.878870   -0.010200
    6         20             0        0.643770   -2.045740    0.011640
    7         20             0        2.936980    0.753680   -0.008140
    8         20             0       -1.073080    2.228740    0.005630
 ---------------------------------------------------------------------
                    Distance matrix (angstroms):
                    1          2          3          4          5
     1  O    0.000000
     2  O    4.273526   0.000000
     3  O    2.537421   5.733653   0.000000
     4  O    4.192035   3.475370   3.818060   0.000000
     5  P    1.542383   5.628780   1.544531   4.673864   0.000000
     6  Ca   2.295907   2.116491   4.307058   3.727162   3.786067
     7  Ca   5.142948   2.142932   5.655892   2.177147   6.116796
     8  Ca   3.905302   5.177526   2.282070   2.110094   3.634577
                    6          7          8
     6  Ca   0.000000
     7  Ca   3.618833   0.000000
     8  Ca   4.606386   4.272771   0.000000
 Stoichiometry    Ca3O4P(1+)
 Framework group  C1[X(Ca3O4P)]
 Deg. of freedom    18
 Full point group                 C1
 Largest Abelian subgroup         C1      NOp   1
 Largest concise Abelian subgroup C1      NOp   1
                         Standard orientation:                         
 ---------------------------------------------------------------------
 Center     Atomic     Atomic              Coordinates (Angstroms)
 Number     Number      Type              X           Y           Z
 ---------------------------------------------------------------------
    1          8             0       -1.615664   -1.638666   -0.008510
    2          8             0        2.649395   -1.369852   -0.002830
    3          8             0       -2.717892    0.646820    0.003810
    4          8             0        0.961105    1.667883    0.003830
    5         15             0       -2.957927   -0.878880   -0.010200
    6         20             0        0.643777   -2.045739    0.011640
    7         20             0        2.936978    0.753689   -0.008140
    8         20             0       -1.073087    2.228736    0.005630
 ---------------------------------------------------------------------
 Rotational constants (GHZ):      0.9419536      0.5235822      0.3365319
 Standard basis: 6-31+G(d,p) (6D, 7F)
 There are   180 symmetry adapted basis functions of A   symmetry.
 Integral buffers will be    131072 words long.
 Raffenetti 2 integral format.
 Two-electron integral symmetry is turned on.
   180 basis functions,   424 primitive gaussians,   180 cartesian basis functions
    53 alpha electrons       53 beta electrons
       nuclear repulsion energy       770.9213557745 Hartrees.
 NAtoms=    8 NActive=    8 NUniq=    8 SFac= 7.50D-01 NAtFMM=   80 NAOKFM=F Big=F
 One-electron integrals computed using PRISM.
 NBasis=   180 RedAO= T  NBF=   180
 NBsUse=   180 1.00D-06 NBFU=   180
 Harris functional with IExCor=  402 diagonalized for initial guess.
 ExpMin= 7.10D-03 ExpMax= 3.53D+04 ExpMxC= 5.30D+03 IAcc=3 IRadAn=         5 AccDes= 0.00D+00
 HarFok:  IExCor= 402 AccDes= 0.00D+00 IRadAn=         5 IDoV=1
 ScaDFX=  1.000000  1.000000  1.000000  1.000000
 Initial guess orbital symmetries:
       Occupied  (A) (A) (A) (A) (A) (A) (A) (A) (A) (A) (A) (A)
                 (A) (A) (A) (A) (A) (A) (A) (A) (A) (A) (A) (A)
                 (A) (A) (A) (A) (A) (A) (A) (A) (A) (A) (A) (A)
                 (A) (A) (A) (A) (A) (A) (A) (A) (A) (A) (A) (A)
                 (A) (A) (A) (A) (A)
       Virtual   (A) (A) (A) (A) (A) (A) (A) (A) (A) (A) (A) (A)
                 (A) (A) (A) (A) (A) (A) (A) (A) (A) (A) (A) (A)
                 (A) (A) (A) (A) (A) (A) (A) (A) (A) (A) (A) (A)
                 (A) (A) (A) (A) (A) (A) (A) (A) (A) (A) (A) (A)
                 (A) (A) (A) (A) (A) (A) (A) (A) (A) (A) (A) (A)
                 (A) (A) (A) (A) (A) (A) (A) (A) (A) (A) (A) (A)
                 (A) (A) (A) (A) (A) (A) (A) (A) (A) (A) (A) (A)
                 (A) (A) (A) (A) (A) (A) (A) (A) (A) (A) (A) (A)
                 (A) (A) (A) (A) (A) (A) (A) (A) (A) (A) (A) (A)
                 (A) (A) (A) (A) (A) (A) (A) (A) (A) (A) (A) (A)
                 (A) (A) (A) (A) (A) (A) (A)
 The electronic state of the initial guess is 1-A.
 Requested convergence on RMS density matrix=1.00D-04 within 128 cycles.
 Requested convergence on MAX density matrix=1.00D-02.
 Requested convergence on             energy=1.00D-02.
 No special actions if energy rises.
 EnCoef did     3 forward-backward iterations
 EnCoef did     2 forward-backward iterations
 SCF Done:  E(RB+HF-LYP) =  -2674.99270318     A.U. after    9 cycles
             Convg  =    0.8013D-04             -V/T =  2.0028
             S**2   =   0.0000

 **********************************************************************

            Population analysis using the SCF density.

 **********************************************************************

 Orbital symmetries:
       Occupied  (A) (A) (A) (A) (A) (A) (A) (A) (A) (A) (A) (A)
                 (A) (A) (A) (A) (A) (A) (A) (A) (A) (A) (A) (A)
                 (A) (A) (A) (A) (A) (A) (A) (A) (A) (A) (A) (A)
                 (A) (A) (A) (A) (A) (A) (A) (A) (A) (A) (A) (A)
                 (A) (A) (A) (A) (A)
       Virtual   (A) (A) (A) (A) (A) (A) (A) (A) (A) (A) (A) (A)
                 (A) (A) (A) (A) (A) (A) (A) (A) (A) (A) (A) (A)
                 (A) (A) (A) (A) (A) (A) (A) (A) (A) (A) (A) (A)
                 (A) (A) (A) (A) (A) (A) (A) (A) (A) (A) (A) (A)
                 (A) (A) (A) (A) (A) (A) (A) (A) (A) (A) (A) (A)
                 (A) (A) (A) (A) (A) (A) (A) (A) (A) (A) (A) (A)
                 (A) (A) (A) (A) (A) (A) (A) (A) (A) (A) (A) (A)
                 (A) (A) (A) (A) (A) (A) (A) (A) (A) (A) (A) (A)
                 (A) (A) (A) (A) (A) (A) (A) (A) (A) (A) (A) (A)
                 (A) (A) (A) (A) (A) (A) (A) (A) (A) (A) (A) (A)
                 (A) (A) (A) (A) (A) (A) (A)
 The electronic state is 1-A.
 Alpha  occ. eigenvalues -- -145.50467-145.48025-145.44050 -77.30000 -19.27663
 Alpha  occ. eigenvalues --  -19.27609 -19.13786 -19.11180 -15.57368 -15.54966
 Alpha  occ. eigenvalues --  -15.51022 -12.70623 -12.70572 -12.70406 -12.68223
 Alpha  occ. eigenvalues --  -12.68203 -12.67967 -12.64275 -12.64202 -12.64054
 Alpha  occ. eigenvalues --   -6.75475  -4.91922  -4.91699  -4.91255  -1.94612
 Alpha  occ. eigenvalues --   -1.92272  -1.88453  -1.22477  -1.22336  -1.21498
 Alpha  occ. eigenvalues --   -1.20196  -1.20071  -1.19282  -1.16431  -1.16014
 Alpha  occ. eigenvalues --   -1.15340  -1.13589  -1.08257  -0.87699  -0.85210
 Alpha  occ. eigenvalues --   -0.67494  -0.57022  -0.52495  -0.52414  -0.45556
 Alpha  occ. eigenvalues --   -0.43652  -0.40513  -0.34302  -0.32380  -0.31934
 Alpha  occ. eigenvalues --   -0.30975  -0.29449  -0.29130
 Alpha virt. eigenvalues --   -0.19656  -0.19264  -0.16803  -0.15167  -0.11844
 Alpha virt. eigenvalues --   -0.10427  -0.09810  -0.09795  -0.08599  -0.07887
 Alpha virt. eigenvalues --   -0.07138  -0.07026  -0.06543  -0.05760  -0.05358
 Alpha virt. eigenvalues --   -0.05084  -0.04943  -0.04542  -0.04206  -0.04073
 Alpha virt. eigenvalues --   -0.04056  -0.03741  -0.03530  -0.03087  -0.02773
 Alpha virt. eigenvalues --   -0.02596  -0.02509  -0.01932  -0.01542   0.01520
 Alpha virt. eigenvalues --    0.01809   0.03901   0.04116   0.04796   0.05136
 Alpha virt. eigenvalues --    0.05186   0.05541   0.06420   0.07088   0.07651
 Alpha virt. eigenvalues --    0.07779   0.08332   0.08700   0.09025   0.09693
 Alpha virt. eigenvalues --    0.10051   0.10492   0.11200   0.12212   0.12262
 Alpha virt. eigenvalues --    0.13479   0.15144   0.15945   0.16448   0.17143
 Alpha virt. eigenvalues --    0.17224   0.20841   0.21073   0.21446   0.22847
 Alpha virt. eigenvalues --    0.25869   0.27178   0.28548   0.30025   0.30117
 Alpha virt. eigenvalues --    0.32064   0.32712   0.33787   0.35065   0.36047
 Alpha virt. eigenvalues --    0.37706   0.40910   0.41599   0.47642   0.48335
 Alpha virt. eigenvalues --    0.51182   0.56974   0.57410   0.58507   0.62257
 Alpha virt. eigenvalues --    0.71357   0.79646   0.88203   0.94952   1.06387
 Alpha virt. eigenvalues --    1.06491   1.08532   1.09026   1.12378   1.14165
 Alpha virt. eigenvalues --    1.17482   1.18428   1.19416   1.21344   1.24193
 Alpha virt. eigenvalues --    1.28251   1.31872   1.35687   1.39823   1.42276
 Alpha virt. eigenvalues --    1.46276   1.53435   1.65553   1.66304   1.68418
 Alpha virt. eigenvalues --    1.72320   1.78711   1.79973   1.81920   1.83853
 Alpha virt. eigenvalues --    1.84879   1.86130   1.86415   1.86564   1.88538
 Alpha virt. eigenvalues --    1.92826   1.99698   2.04129   2.08738   2.13030
 Alpha virt. eigenvalues --    2.53782   2.68553   3.39823   3.83641   3.88521
 Alpha virt. eigenvalues --    3.95672   4.01915
          Condensed to atoms (all electrons):
              1          2          3          4          5          6
     1  O    8.880055  -0.002658  -0.064146   0.000850  -0.175419   0.051112
     2  O   -0.002658   8.752275   0.000006  -0.016346  -0.002805   0.257430
     3  O   -0.064146   0.000006   8.825736   0.001570  -0.117552   0.005018
     4  O    0.000850  -0.016346   0.001570   8.918215  -0.007685   0.025162
     5  P   -0.175419  -0.002805  -0.117552  -0.007685  14.678925  -0.036632
     6  Ca   0.051112   0.257430   0.005018   0.025162  -0.036632  18.322870
     7  Ca   0.001718   0.196561  -0.003235   0.142247   0.018744  -0.013097
     8  Ca   0.000207   0.003679   0.068861   0.228556  -0.034720   0.006681
              7          8
     1  O    0.001718   0.000207
     2  O    0.196561   0.003679
     3  O   -0.003235   0.068861
     4  O    0.142247   0.228556
     5  P    0.018744  -0.034720
     6  Ca  -0.013097   0.006681
     7  Ca  18.304219  -0.007573
     8  Ca  -0.007573  18.264636
 Mulliken atomic charges:
              1
     1  O   -0.691717
     2  O   -1.188142
     3  O   -0.716257
     4  O   -1.292569
     5  P    0.677144
     6  Ca   1.381455
     7  Ca   1.360414
     8  Ca   1.469673
 Sum of Mulliken charges=   1.00000
 Atomic charges with hydrogens summed into heavy atoms:
              1
     1  O   -0.691717
     2  O   -1.188142
     3  O   -0.716257
     4  O   -1.292569
     5  P    0.677144
     6  Ca   1.381455
     7  Ca   1.360414
     8  Ca   1.469673
 Sum of Mulliken charges=   1.00000
 Electronic spatial extent (au):  <R**2>=  2785.9681
 Charge=     1.0000 electrons
 Dipole moment (field-independent basis, Debye):
    X=    -0.5798    Y=     5.5984    Z=     0.0512  Tot=     5.6286
 Quadrupole moment (field-independent basis, Debye-Ang):
   XX=   -55.9364   YY=   -35.7225   ZZ=   -69.0360
   XY=     5.1670   XZ=    -0.1203   YZ=    -0.2528
 Traceless Quadrupole moment (field-independent basis, Debye-Ang):
   XX=    -2.3715   YY=    17.8425   ZZ=   -15.4710
   XY=     5.1670   XZ=    -0.1203   YZ=    -0.2528
 Octapole moment (field-independent basis, Debye-Ang**2):
  XXX=    99.4485  YYY=    31.2098  ZZZ=     0.1446  XYY=   -43.9649
  XXY=   109.2051  XXZ=    -0.4675  XZZ=     0.6510  YZZ=     4.3346
  YYZ=     0.6839  XYZ=    -0.3853
 Hexadecapole moment (field-independent basis, Debye-Ang**3):
 XXXX= -1841.5042 YYYY=  -786.5911 ZZZZ=   -84.2735 XXXY=   342.5590
 XXXZ=    -1.7330 YYYX=  -163.5559 YYYZ=    -1.0826 ZZZX=    -0.4295
 ZZZY=    -0.4814 XXYY=  -554.0412 XXZZ=  -347.1305 YYZZ=  -184.3626
 XXYZ=    -0.9658 YYXZ=    -0.3702 ZZXY=    -1.3251
 N-N= 7.709213557745D+02 E-N=-7.867062769871D+03  KE= 2.667649295079D+03
 Merz-Kollman atomic radii used.
 Read replacement radii for each type of atom:
 Rad(20) =   1.188000000000D+00
 Atom Element Radius
    1     8    1.40
    2     8    1.40
    3     8    1.40
    4     8    1.40
    5    15    1.80
    6    20    1.19
    7    20    1.19
    8    20    1.19

 **********************************************************************

            Electrostatic Properties Using The SCF Density

 **********************************************************************

       Atomic Center    1 is at  -1.615664 -1.638666 -0.008510
       Atomic Center    2 is at   2.649395 -1.369852 -0.002830
       Atomic Center    3 is at  -2.717892  0.646820  0.003810
       Atomic Center    4 is at   0.961105  1.667883  0.003830
       Atomic Center    5 is at  -2.957927 -0.878880 -0.010200
       Atomic Center    6 is at   0.643777 -2.045739  0.011640
       Atomic Center    7 is at   2.936978  0.753689 -0.008140
       Atomic Center    8 is at  -1.073087  2.228736  0.005630
     851 points will be used for fitting atomic charges
 Fitting point charges to eletrostatic potential
 Charges from ESP fit, RMS=   0.00572 RRMS=   0.03937:
 Charge=   1.00000 Dipole=    -0.4866     5.8390     0.0508 Tot=     5.8595
              1
     1  O   -0.694516
     2  O   -1.557154
     3  O   -0.708546
     4  O   -1.712591
     5  P    0.554094
     6  Ca   1.667374
     7  Ca   1.718542
     8  Ca   1.732796
 -----------------------------------------------------------------

              Electrostatic Properties (Atomic Units)

 -----------------------------------------------------------------
    Center     Electric         -------- Electric Field --------
               Potential          X             Y             Z
 -----------------------------------------------------------------
    1 Atom    -22.186226
    2 Atom    -22.359456
    3 Atom    -22.187534
    4 Atom    -22.324025
    5 Atom    -53.921013
    6 Atom    -80.060582
    7 Atom    -80.101166
    8 Atom    -80.035596
 -----------------------------------------------------------------
 1\1\GINC-N030\SP\RB3LYP\6-31+G(d,p)\Ca3O4P1(1+)\TIMN\12-Jun-2015\0\\# 
 b3lyp/6-31+G(d,p) int=ultrafine pop=(ReadRadii,MK)\\Ca3PO4_117.mol2_pl
 usQ.z51118.zip.xyz\\1,1\O,0,-1.61567,-1.63866,-0.00851\O,0,2.64939,-1.
 36986,-0.00283\O,0,-2.71789,0.64683,0.00381\O,0,0.96111,1.66788,0.0038
 3\P,0,-2.95793,-0.87887,-0.0102\Ca,0,0.64377,-2.04574,0.01164\Ca,0,2.9
 3698,0.75368,-0.00814\Ca,0,-1.07308,2.22874,0.00563\\Version=EM64T-G03
 RevE.01\State=1-A\HF=-2674.9927032\RMSD=8.013e-05\Thermal=0.\Dipole=-0
 .228109,2.2025792,0.0201531\PG=C01 [X(Ca3O4P1)]\\@



 WE LOSE BECAUSE WE WIN

 GAMBLERS,

 RECOLLECTING WHICH,

 TOSS THEIR DICE AGAIN....


                          EMILY DICKINSON  BOLTS OF MELODY NO. 533
 Job cpu time:  0 days  0 hours  1 minutes 32.6 seconds.
 File lengths (MBytes):  RWF=     32 Int=      0 D2E=      0 Chk=     11 Scr=      1
 Normal termination of Gaussian 03 at Fri Jun 12 17:36:00 2015.
