 Entering Gaussian System, Link 0=/home/timn/tmp/g03.e01/g03
 Input=Ca3PO4_188.mol2_plusQ.z51196.zip.xyz.gjf
 Output=Ca3PO4_188.mol2_plusQ.z51196.zip.xyz.out
 Initial command:
 /home/timn/tmp/g03.e01/l1.exe /home/timn/tmp/g03.e01/Gau-11712.inp -scrdir=/home/timn/tmp/g03.e01/
 Default is to use a total of   2 processors:
                                2 via shared-memory
                                1 via Linda
 Entering Link 1 = /home/timn/tmp/g03.e01/l1.exe PID=     11713.
  
 Copyright (c) 1988,1990,1992,1993,1995,1998,2003,2004,2007, Gaussian, Inc.
                  All Rights Reserved.
  
 This is the Gaussian(R) 03 program.  It is based on the
 the Gaussian(R) 98 system (copyright 1998, Gaussian, Inc.),
 the Gaussian(R) 94 system (copyright 1995, Gaussian, Inc.),
 the Gaussian 92(TM) system (copyright 1992, Gaussian, Inc.),
 the Gaussian 90(TM) system (copyright 1990, Gaussian, Inc.),
 the Gaussian 88(TM) system (copyright 1988, Gaussian, Inc.),
 the Gaussian 86(TM) system (copyright 1986, Carnegie Mellon
 University), and the Gaussian 82(TM) system (copyright 1983,
 Carnegie Mellon University). Gaussian is a federally registered
 trademark of Gaussian, Inc.
  
 This software contains proprietary and confidential information,
 including trade secrets, belonging to Gaussian, Inc.
  
 This software is provided under written license and may be
 used, copied, transmitted, or stored only in accord with that
 written license.
  
 The following legend is applicable only to US Government
 contracts under FAR:
  
                    RESTRICTED RIGHTS LEGEND
  
 Use, reproduction and disclosure by the US Government is
 subject to restrictions as set forth in subparagraphs (a)
 and (c) of the Commercial Computer Software - Restricted
 Rights clause in FAR 52.227-19.
  
 Gaussian, Inc.
 340 Quinnipiac St., Bldg. 40, Wallingford CT 06492
  
  
 ---------------------------------------------------------------
 Warning -- This program may not be used in any manner that
 competes with the business of Gaussian, Inc. or will provide
 assistance to any competitor of Gaussian, Inc.  The licensee
 of this program is prohibited from giving any competitor of
 Gaussian, Inc. access to this program.  By using this program,
 the user acknowledges that Gaussian, Inc. is engaged in the
 business of creating and licensing software in the field of
 computational chemistry and represents and warrants to the
 licensee that it is not a competitor of Gaussian, Inc. and that
 it will not use this program in any manner prohibited above.
 ---------------------------------------------------------------
  

 Cite this work as:
 Gaussian 03, Revision E.01,
 M. J. Frisch, G. W. Trucks, H. B. Schlegel, G. E. Scuseria, 
 M. A. Robb, J. R. Cheeseman, J. A. Montgomery, Jr., T. Vreven, 
 K. N. Kudin, J. C. Burant, J. M. Millam, S. S. Iyengar, J. Tomasi, 
 V. Barone, B. Mennucci, M. Cossi, G. Scalmani, N. Rega, 
 G. A. Petersson, H. Nakatsuji, M. Hada, M. Ehara, K. Toyota, 
 R. Fukuda, J. Hasegawa, M. Ishida, T. Nakajima, Y. Honda, O. Kitao, 
 H. Nakai, M. Klene, X. Li, J. E. Knox, H. P. Hratchian, J. B. Cross, 
 V. Bakken, C. Adamo, J. Jaramillo, R. Gomperts, R. E. Stratmann, 
 O. Yazyev, A. J. Austin, R. Cammi, C. Pomelli, J. W. Ochterski, 
 P. Y. Ayala, K. Morokuma, G. A. Voth, P. Salvador, J. J. Dannenberg, 
 V. G. Zakrzewski, S. Dapprich, A. D. Daniels, M. C. Strain, 
 O. Farkas, D. K. Malick, A. D. Rabuck, K. Raghavachari, 
 J. B. Foresman, J. V. Ortiz, Q. Cui, A. G. Baboul, S. Clifford, 
 J. Cioslowski, B. B. Stefanov, G. Liu, A. Liashenko, P. Piskorz, 
 I. Komaromi, R. L. Martin, D. J. Fox, T. Keith, M. A. Al-Laham, 
 C. Y. Peng, A. Nanayakkara, M. Challacombe, P. M. W. Gill, 
 B. Johnson, W. Chen, M. W. Wong, C. Gonzalez, and J. A. Pople, 
 Gaussian, Inc., Wallingford CT, 2004.
 
 ******************************************
 Gaussian 03:  EM64T-G03RevE.01 11-Sep-2007
                12-Jun-2015 
 ******************************************
 %nproc=2
 Will use up to    2 processors via shared memory.
 Default route:  MP2=Direct MaxDisk=2000MB
 ----------------------------------------------------
 # b3lyp/6-31+G(d,p) int=ultrafine pop=(ReadRadii,MK)
 ----------------------------------------------------

 Warning!  SCF SP cutoffs with diffuse functions may be unreliable.
 Consider SCF=Tight

 1/38=1/1;
 2/17=6,18=5,40=1/2;
 3/5=1,6=6,7=111,11=2,16=1,25=1,30=1,74=-5,75=5/1,2,3;
 4//1;
 5/5=2,32=1,38=5/2;
 6/7=2,8=2,9=2,10=2,15=8,20=101,28=1/1,2;
 99/5=1,9=1/99;
 ------------------------------------
 Ca3PO4_188.mol2_plusQ.z51196.zip.xyz
 ------------------------------------
 Symbolic Z-matrix:
 Charge =  1 Multiplicity = 1
 O                    -0.39424  -1.42656   0.92401 
 O                     1.43432   0.37303   0.92129 
 O                    -1.03767   1.05619   0.92238 
 O                    -0.00154  -0.0016   -1.71167 
 P                     0.00142   0.00149   1.71803 
 Ca                   -1.88465  -0.48761  -0.56876 
 Ca                    0.51949   1.87433  -0.5719 
 Ca                    1.36375  -1.38827  -0.57027 
 
                          Input orientation:                          
 ---------------------------------------------------------------------
 Center     Atomic     Atomic              Coordinates (Angstroms)
 Number     Number      Type              X           Y           Z
 ---------------------------------------------------------------------
    1          8             0       -0.394240   -1.426560    0.924010
    2          8             0        1.434320    0.373030    0.921290
    3          8             0       -1.037670    1.056190    0.922380
    4          8             0       -0.001540   -0.001600   -1.711670
    5         15             0        0.001420    0.001490    1.718030
    6         20             0       -1.884650   -0.487610   -0.568760
    7         20             0        0.519490    1.874330   -0.571900
    8         20             0        1.363750   -1.388270   -0.570270
 ---------------------------------------------------------------------
                    Distance matrix (angstroms):
                    1          2          3          4          5
     1  O    0.000000
     2  O    2.565573   0.000000
     3  O    2.564771   2.564653   0.000000
     4  O    3.021843   3.022337   3.021706   0.000000
     5  P    1.681173   1.681083   1.680821   3.429703   0.000000
     6  Ca   2.308963   3.738517   2.307421   2.255782   3.004311
     7  Ca   3.737449   2.306606   2.308024   2.256028   3.003282
     8  Ca   2.307567   2.309093   3.737674   2.256028   3.003946
                    6          7          8
     6  Ca   0.000000
     7  Ca   3.370261   0.000000
     8  Ca   3.370948   3.370065   0.000000
 Stoichiometry    Ca3O4P(1+)
 Framework group  C1[X(Ca3O4P)]
 Deg. of freedom    18
 Full point group                 C1
 Largest Abelian subgroup         C1      NOp   1
 Largest concise Abelian subgroup C1      NOp   1
                         Standard orientation:                         
 ---------------------------------------------------------------------
 Center     Atomic     Atomic              Coordinates (Angstroms)
 Number     Number      Type              X           Y           Z
 ---------------------------------------------------------------------
    1          8             0       -0.398188   -1.425462    0.924011
    2          8             0        1.435347    0.369060    0.921291
    3          8             0       -1.034743    1.059060    0.922381
    4          8             0       -0.001545   -0.001594   -1.711669
    5         15             0        0.001424    0.001488    1.718031
    6         20             0       -1.885993   -0.482389   -0.568759
    7         20             0        0.524676    1.872886   -0.571899
    8         20             0        1.359901   -1.392038   -0.570269
 ---------------------------------------------------------------------
 Rotational constants (GHZ):      1.0155515      1.0152827      0.9037541
 Standard basis: 6-31+G(d,p) (6D, 7F)
 There are   180 symmetry adapted basis functions of A   symmetry.
 Integral buffers will be    131072 words long.
 Raffenetti 2 integral format.
 Two-electron integral symmetry is turned on.
   180 basis functions,   424 primitive gaussians,   180 cartesian basis functions
    53 alpha electrons       53 beta electrons
       nuclear repulsion energy       952.6918526591 Hartrees.
 NAtoms=    8 NActive=    8 NUniq=    8 SFac= 7.50D-01 NAtFMM=   80 NAOKFM=F Big=F
 One-electron integrals computed using PRISM.
 NBasis=   180 RedAO= T  NBF=   180
 NBsUse=   180 1.00D-06 NBFU=   180
 Harris functional with IExCor=  402 diagonalized for initial guess.
 ExpMin= 7.10D-03 ExpMax= 3.53D+04 ExpMxC= 5.30D+03 IAcc=3 IRadAn=         5 AccDes= 0.00D+00
 HarFok:  IExCor= 402 AccDes= 0.00D+00 IRadAn=         5 IDoV=1
 ScaDFX=  1.000000  1.000000  1.000000  1.000000
 Initial guess orbital symmetries:
       Occupied  (A) (A) (A) (A) (A) (A) (A) (A) (A) (A) (A) (A)
                 (A) (A) (A) (A) (A) (A) (A) (A) (A) (A) (A) (A)
                 (A) (A) (A) (A) (A) (A) (A) (A) (A) (A) (A) (A)
                 (A) (A) (A) (A) (A) (A) (A) (A) (A) (A) (A) (A)
                 (A) (A) (A) (A) (A)
       Virtual   (A) (A) (A) (A) (A) (A) (A) (A) (A) (A) (A) (A)
                 (A) (A) (A) (A) (A) (A) (A) (A) (A) (A) (A) (A)
                 (A) (A) (A) (A) (A) (A) (A) (A) (A) (A) (A) (A)
                 (A) (A) (A) (A) (A) (A) (A) (A) (A) (A) (A) (A)
                 (A) (A) (A) (A) (A) (A) (A) (A) (A) (A) (A) (A)
                 (A) (A) (A) (A) (A) (A) (A) (A) (A) (A) (A) (A)
                 (A) (A) (A) (A) (A) (A) (A) (A) (A) (A) (A) (A)
                 (A) (A) (A) (A) (A) (A) (A) (A) (A) (A) (A) (A)
                 (A) (A) (A) (A) (A) (A) (A) (A) (A) (A) (A) (A)
                 (A) (A) (A) (A) (A) (A) (A) (A) (A) (A) (A) (A)
                 (A) (A) (A) (A) (A) (A) (A)
 The electronic state of the initial guess is 1-A.
 Requested convergence on RMS density matrix=1.00D-04 within 128 cycles.
 Requested convergence on MAX density matrix=1.00D-02.
 Requested convergence on             energy=1.00D-02.
 No special actions if energy rises.
 SCF Done:  E(RB+HF-LYP) =  -2675.07105987     A.U. after    8 cycles
             Convg  =    0.8234D-04             -V/T =  2.0028
             S**2   =   0.0000

 **********************************************************************

            Population analysis using the SCF density.

 **********************************************************************

 Orbital symmetries:
       Occupied  (A) (A) (A) (A) (A) (A) (A) (A) (A) (A) (A) (A)
                 (A) (A) (A) (A) (A) (A) (A) (A) (A) (A) (A) (A)
                 (A) (A) (A) (A) (A) (A) (A) (A) (A) (A) (A) (A)
                 (A) (A) (A) (A) (A) (A) (A) (A) (A) (A) (A) (A)
                 (A) (A) (A) (A) (A)
       Virtual   (A) (A) (A) (A) (A) (A) (A) (A) (A) (A) (A) (A)
                 (A) (A) (A) (A) (A) (A) (A) (A) (A) (A) (A) (A)
                 (A) (A) (A) (A) (A) (A) (A) (A) (A) (A) (A) (A)
                 (A) (A) (A) (A) (A) (A) (A) (A) (A) (A) (A) (A)
                 (A) (A) (A) (A) (A) (A) (A) (A) (A) (A) (A) (A)
                 (A) (A) (A) (A) (A) (A) (A) (A) (A) (A) (A) (A)
                 (A) (A) (A) (A) (A) (A) (A) (A) (A) (A) (A) (A)
                 (A) (A) (A) (A) (A) (A) (A) (A) (A) (A) (A) (A)
                 (A) (A) (A) (A) (A) (A) (A) (A) (A) (A) (A) (A)
                 (A) (A) (A) (A) (A) (A) (A) (A) (A) (A) (A) (A)
                 (A) (A) (A) (A) (A) (A) (A)
 The electronic state is 1-A.
 Alpha  occ. eigenvalues -- -145.49647-145.49640-145.49629 -77.25056 -19.21237
 Alpha  occ. eigenvalues --  -19.21222 -19.21217 -19.15946 -15.56480 -15.56475
 Alpha  occ. eigenvalues --  -15.56465 -12.69678 -12.69674 -12.69664 -12.69656
 Alpha  occ. eigenvalues --  -12.69652 -12.69641 -12.69609 -12.69604 -12.69594
 Alpha  occ. eigenvalues --   -6.70086  -4.86434  -4.86434  -4.85898  -1.93826
 Alpha  occ. eigenvalues --   -1.93744  -1.93737  -1.22378  -1.21698  -1.21695
 Alpha  occ. eigenvalues --   -1.21308  -1.21141  -1.21068  -1.21064  -1.20647
 Alpha  occ. eigenvalues --   -1.20641  -1.06759  -1.00359  -1.00352  -0.90945
 Alpha  occ. eigenvalues --   -0.62641  -0.50528  -0.50525  -0.47960  -0.43358
 Alpha  occ. eigenvalues --   -0.43356  -0.38347  -0.38342  -0.38177  -0.36141
 Alpha  occ. eigenvalues --   -0.36139  -0.34595  -0.30857
 Alpha virt. eigenvalues --   -0.19951  -0.18030  -0.18026  -0.12556  -0.12555
 Alpha virt. eigenvalues --   -0.10895  -0.09480  -0.09477  -0.08339  -0.07773
 Alpha virt. eigenvalues --   -0.06546  -0.06115  -0.06114  -0.04765  -0.04716
 Alpha virt. eigenvalues --   -0.04714  -0.04672  -0.04473  -0.04472  -0.04005
 Alpha virt. eigenvalues --   -0.04004  -0.03233  -0.02944  -0.02943  -0.02360
 Alpha virt. eigenvalues --   -0.02357  -0.00867   0.01027   0.02175   0.02616
 Alpha virt. eigenvalues --    0.02618   0.04573   0.04575   0.05227   0.06003
 Alpha virt. eigenvalues --    0.06004   0.06292   0.06294   0.07289   0.07293
 Alpha virt. eigenvalues --    0.07382   0.07664   0.07665   0.07822   0.08460
 Alpha virt. eigenvalues --    0.10681   0.10687   0.11328   0.11802   0.13658
 Alpha virt. eigenvalues --    0.15678   0.15681   0.19889   0.19892   0.20365
 Alpha virt. eigenvalues --    0.22082   0.22089   0.23485   0.23989   0.25316
 Alpha virt. eigenvalues --    0.25952   0.25962   0.30033   0.31448   0.31452
 Alpha virt. eigenvalues --    0.35746   0.35996   0.36005   0.37860   0.39079
 Alpha virt. eigenvalues --    0.39083   0.39778   0.45827   0.45835   0.53625
 Alpha virt. eigenvalues --    0.53631   0.55838   0.63367   0.63372   0.67688
 Alpha virt. eigenvalues --    0.82899   0.86938   0.86968   0.94096   0.94110
 Alpha virt. eigenvalues --    1.14549   1.16753   1.16756   1.18027   1.20776
 Alpha virt. eigenvalues --    1.21967   1.21977   1.23405   1.23405   1.28206
 Alpha virt. eigenvalues --    1.34147   1.34174   1.36431   1.54450   1.54466
 Alpha virt. eigenvalues --    1.57779   1.68373   1.71615   1.73140   1.73147
 Alpha virt. eigenvalues --    1.77476   1.77482   1.87073   1.87366   1.87371
 Alpha virt. eigenvalues --    1.88073   1.92063   1.92081   1.93326   1.98433
 Alpha virt. eigenvalues --    1.98442   2.03020   2.03027   2.14775   2.38176
 Alpha virt. eigenvalues --    2.55137   2.55173   3.54376   4.05626   4.14263
 Alpha virt. eigenvalues --    4.14289   4.31226
          Condensed to atoms (all electrons):
              1          2          3          4          5          6
     1  O    8.965652   0.058593   0.058597   0.023945  -0.200617   0.059798
     2  O    0.058593   8.966015   0.058799   0.023971  -0.201040   0.006190
     3  O    0.058597   0.058799   8.965811   0.024003  -0.200991   0.059811
     4  O    0.023945   0.023971   0.024003   8.852964  -0.039909   0.122100
     5  P   -0.200617  -0.201040  -0.200991  -0.039909  14.443171   0.033849
     6  Ca   0.059798   0.006190   0.059811   0.122100   0.033849  18.396605
     7  Ca   0.006229   0.059853   0.059821   0.122040   0.033956  -0.047658
     8  Ca   0.059878   0.059786   0.006191   0.122083   0.033799  -0.047421
              7          8
     1  O    0.006229   0.059878
     2  O    0.059853   0.059786
     3  O    0.059821   0.006191
     4  O    0.122040   0.122083
     5  P    0.033956   0.033799
     6  Ca  -0.047658  -0.047421
     7  Ca  18.397148  -0.047684
     8  Ca  -0.047684  18.396691
 Mulliken atomic charges:
              1
     1  O   -1.032076
     2  O   -1.032167
     3  O   -1.032042
     4  O   -1.251196
     5  P    1.097782
     6  Ca   1.416726
     7  Ca   1.416297
     8  Ca   1.416677
 Sum of Mulliken charges=   1.00000
 Atomic charges with hydrogens summed into heavy atoms:
              1
     1  O   -1.032076
     2  O   -1.032167
     3  O   -1.032042
     4  O   -1.251196
     5  P    1.097782
     6  Ca   1.416726
     7  Ca   1.416297
     8  Ca   1.416677
 Sum of Mulliken charges=   1.00000
 Electronic spatial extent (au):  <R**2>=  1510.1802
 Charge=     1.0000 electrons
 Dipole moment (field-independent basis, Debye):
    X=    -0.0093    Y=    -0.0080    Z=    -8.2354  Tot=     8.2354
 Quadrupole moment (field-independent basis, Debye-Ang):
   XX=   -40.0191   YY=   -40.0472   ZZ=   -90.0123
   XY=    -0.0121   XZ=    -0.0387   YZ=    -0.0342
 Traceless Quadrupole moment (field-independent basis, Debye-Ang):
   XX=    16.6738   YY=    16.6457   ZZ=   -33.3195
   XY=    -0.0121   XZ=    -0.0387   YZ=    -0.0342
 Octapole moment (field-independent basis, Debye-Ang**2):
  XXX=   -42.9629  YYY=    39.8654  ZZZ=    -1.7275  XYY=    42.7803
  XXY=   -40.0540  XXZ=   -46.6355  XZZ=     0.0612  YZZ=     0.0706
  YYZ=   -46.7339  XYZ=    -0.0056
 Hexadecapole moment (field-independent basis, Debye-Ang**3):
 XXXX=  -416.0378 YYYY=  -416.1161 ZZZZ=  -721.6919 XXXY=    -0.0091
 XXXZ=    11.1613 YYYX=    -0.0794 YYYZ=   -10.6338 ZZZX=    -0.1791
 ZZZY=    -0.1652 XXYY=  -138.6898 XXZZ=  -187.6320 YYZZ=  -187.5672
 XXYZ=    10.4754 YYXZ=   -11.3548 ZZXY=    -0.0132
 N-N= 9.526918526591D+02 E-N=-8.229859629675D+03  KE= 2.667694389006D+03
 Merz-Kollman atomic radii used.
 Read replacement radii for each type of atom:
 Rad(20) =   1.188000000000D+00
 Atom Element Radius
    1     8    1.40
    2     8    1.40
    3     8    1.40
    4     8    1.40
    5    15    1.80
    6    20    1.19
    7    20    1.19
    8    20    1.19

 **********************************************************************

            Electrostatic Properties Using The SCF Density

 **********************************************************************

       Atomic Center    1 is at  -0.398188 -1.425462  0.924011
       Atomic Center    2 is at   1.435347  0.369060  0.921291
       Atomic Center    3 is at  -1.034743  1.059060  0.922381
       Atomic Center    4 is at  -0.001545 -0.001594 -1.711669
       Atomic Center    5 is at   0.001424  0.001488  1.718031
       Atomic Center    6 is at  -1.885993 -0.482389 -0.568759
       Atomic Center    7 is at   0.524676  1.872886 -0.571899
       Atomic Center    8 is at   1.359901 -1.392038 -0.570269
     691 points will be used for fitting atomic charges
 Fitting point charges to eletrostatic potential
 Charges from ESP fit, RMS=   0.00620 RRMS=   0.03803:
 Charge=   1.00000 Dipole=     0.0200    -0.0368    -8.4326 Tot=     8.4327
              1
     1  O   -0.946275
     2  O   -0.942752
     3  O   -0.945392
     4  O   -1.634161
     5  P    0.516066
     6  Ca   1.651077
     7  Ca   1.648256
     8  Ca   1.653181
 -----------------------------------------------------------------

              Electrostatic Properties (Atomic Units)

 -----------------------------------------------------------------
    Center     Electric         -------- Electric Field --------
               Potential          X             Y             Z
 -----------------------------------------------------------------
    1 Atom    -22.251260
    2 Atom    -22.251510
    3 Atom    -22.251064
    4 Atom    -22.290897
    5 Atom    -53.968075
    6 Atom    -80.043247
    7 Atom    -80.043373
    8 Atom    -80.043229
 -----------------------------------------------------------------
 1\1\GINC-N033\SP\RB3LYP\6-31+G(d,p)\Ca3O4P1(1+)\TIMN\12-Jun-2015\0\\# 
 b3lyp/6-31+G(d,p) int=ultrafine pop=(ReadRadii,MK)\\Ca3PO4_188.mol2_pl
 usQ.z51196.zip.xyz\\1,1\O,0,-0.39424,-1.42656,0.92401\O,0,1.43432,0.37
 303,0.92129\O,0,-1.03767,1.05619,0.92238\O,0,-0.00154,-0.0016,-1.71167
 \P,0,0.00142,0.00149,1.71803\Ca,0,-1.88465,-0.48761,-0.56876\Ca,0,0.51
 949,1.87433,-0.5719\Ca,0,1.36375,-1.38827,-0.57027\\Version=EM64T-G03R
 evE.01\State=1-A\HF=-2675.0710599\RMSD=8.234e-05\Thermal=0.\Dipole=-0.
 0036345,-0.0031763,-3.2400384\PG=C01 [X(Ca3O4P1)]\\@


 BETTER TO HUNT IN FIELDS, FOR HEALTH UNBOUGHT
 THAN FEE THE DOCTOR FOR A NAUSEOUS DRAUGHT.
 THE WISE, FOR CURE, ON EXERCISE DEPEND;
 GOD NEVER MADE HIS WORK FOR MAN TO MEND.
     -- JOHN DRYDEN (1631-1700)
 Job cpu time:  0 days  0 hours  1 minutes 42.1 seconds.
 File lengths (MBytes):  RWF=     32 Int=      0 D2E=      0 Chk=     11 Scr=      1
 Normal termination of Gaussian 03 at Fri Jun 12 17:40:25 2015.
