 Entering Gaussian System, Link 0=/home/timn/tmp/g03.e01/g03
 Input=Ca3PO4_106.mol2_plusQ.z51106.zip.xyz.gjf
 Output=Ca3PO4_106.mol2_plusQ.z51106.zip.xyz.out
 Initial command:
 /home/timn/tmp/g03.e01/l1.exe /home/timn/tmp/g03.e01/Gau-11561.inp -scrdir=/home/timn/tmp/g03.e01/
 Default is to use a total of   2 processors:
                                2 via shared-memory
                                1 via Linda
 Entering Link 1 = /home/timn/tmp/g03.e01/l1.exe PID=     11562.
  
 Copyright (c) 1988,1990,1992,1993,1995,1998,2003,2004,2007, Gaussian, Inc.
                  All Rights Reserved.
  
 This is the Gaussian(R) 03 program.  It is based on the
 the Gaussian(R) 98 system (copyright 1998, Gaussian, Inc.),
 the Gaussian(R) 94 system (copyright 1995, Gaussian, Inc.),
 the Gaussian 92(TM) system (copyright 1992, Gaussian, Inc.),
 the Gaussian 90(TM) system (copyright 1990, Gaussian, Inc.),
 the Gaussian 88(TM) system (copyright 1988, Gaussian, Inc.),
 the Gaussian 86(TM) system (copyright 1986, Carnegie Mellon
 University), and the Gaussian 82(TM) system (copyright 1983,
 Carnegie Mellon University). Gaussian is a federally registered
 trademark of Gaussian, Inc.
  
 This software contains proprietary and confidential information,
 including trade secrets, belonging to Gaussian, Inc.
  
 This software is provided under written license and may be
 used, copied, transmitted, or stored only in accord with that
 written license.
  
 The following legend is applicable only to US Government
 contracts under FAR:
  
                    RESTRICTED RIGHTS LEGEND
  
 Use, reproduction and disclosure by the US Government is
 subject to restrictions as set forth in subparagraphs (a)
 and (c) of the Commercial Computer Software - Restricted
 Rights clause in FAR 52.227-19.
  
 Gaussian, Inc.
 340 Quinnipiac St., Bldg. 40, Wallingford CT 06492
  
  
 ---------------------------------------------------------------
 Warning -- This program may not be used in any manner that
 competes with the business of Gaussian, Inc. or will provide
 assistance to any competitor of Gaussian, Inc.  The licensee
 of this program is prohibited from giving any competitor of
 Gaussian, Inc. access to this program.  By using this program,
 the user acknowledges that Gaussian, Inc. is engaged in the
 business of creating and licensing software in the field of
 computational chemistry and represents and warrants to the
 licensee that it is not a competitor of Gaussian, Inc. and that
 it will not use this program in any manner prohibited above.
 ---------------------------------------------------------------
  

 Cite this work as:
 Gaussian 03, Revision E.01,
 M. J. Frisch, G. W. Trucks, H. B. Schlegel, G. E. Scuseria, 
 M. A. Robb, J. R. Cheeseman, J. A. Montgomery, Jr., T. Vreven, 
 K. N. Kudin, J. C. Burant, J. M. Millam, S. S. Iyengar, J. Tomasi, 
 V. Barone, B. Mennucci, M. Cossi, G. Scalmani, N. Rega, 
 G. A. Petersson, H. Nakatsuji, M. Hada, M. Ehara, K. Toyota, 
 R. Fukuda, J. Hasegawa, M. Ishida, T. Nakajima, Y. Honda, O. Kitao, 
 H. Nakai, M. Klene, X. Li, J. E. Knox, H. P. Hratchian, J. B. Cross, 
 V. Bakken, C. Adamo, J. Jaramillo, R. Gomperts, R. E. Stratmann, 
 O. Yazyev, A. J. Austin, R. Cammi, C. Pomelli, J. W. Ochterski, 
 P. Y. Ayala, K. Morokuma, G. A. Voth, P. Salvador, J. J. Dannenberg, 
 V. G. Zakrzewski, S. Dapprich, A. D. Daniels, M. C. Strain, 
 O. Farkas, D. K. Malick, A. D. Rabuck, K. Raghavachari, 
 J. B. Foresman, J. V. Ortiz, Q. Cui, A. G. Baboul, S. Clifford, 
 J. Cioslowski, B. B. Stefanov, G. Liu, A. Liashenko, P. Piskorz, 
 I. Komaromi, R. L. Martin, D. J. Fox, T. Keith, M. A. Al-Laham, 
 C. Y. Peng, A. Nanayakkara, M. Challacombe, P. M. W. Gill, 
 B. Johnson, W. Chen, M. W. Wong, C. Gonzalez, and J. A. Pople, 
 Gaussian, Inc., Wallingford CT, 2004.
 
 ******************************************
 Gaussian 03:  EM64T-G03RevE.01 11-Sep-2007
                12-Jun-2015 
 ******************************************
 %nproc=2
 Will use up to    2 processors via shared memory.
 Default route:  MP2=Direct MaxDisk=2000MB
 ----------------------------------------------------
 # b3lyp/6-31+G(d,p) int=ultrafine pop=(ReadRadii,MK)
 ----------------------------------------------------

 Warning!  SCF SP cutoffs with diffuse functions may be unreliable.
 Consider SCF=Tight

 1/38=1/1;
 2/17=6,18=5,40=1/2;
 3/5=1,6=6,7=111,11=2,16=1,25=1,30=1,74=-5,75=5/1,2,3;
 4//1;
 5/5=2,32=1,38=5/2;
 6/7=2,8=2,9=2,10=2,15=8,20=101,28=1/1,2;
 99/5=1,9=1/99;
 ------------------------------------
 Ca3PO4_106.mol2_plusQ.z51106.zip.xyz
 ------------------------------------
 Symbolic Z-matrix:
 Charge =  1 Multiplicity = 1
 O                    -0.0003   -0.00134  -1.71185 
 O                    -0.29234  -1.45092   0.92289 
 O                     1.40356   0.47353   0.92188 
 O                    -1.11057   0.98009   0.922 
 P                     0.00047   0.00197   1.71805 
 Ca                    1.45971  -1.28732  -0.56932 
 Ca                   -1.84441  -0.62154  -0.56924 
 Ca                    0.38421   1.90684  -0.57195 
 
                          Input orientation:                          
 ---------------------------------------------------------------------
 Center     Atomic     Atomic              Coordinates (Angstroms)
 Number     Number      Type              X           Y           Z
 ---------------------------------------------------------------------
    1          8             0       -0.000300   -0.001340   -1.711850
    2          8             0       -0.292340   -1.450920    0.922890
    3          8             0        1.403560    0.473530    0.921880
    4          8             0       -1.110570    0.980090    0.922000
    5         15             0        0.000470    0.001970    1.718050
    6         20             0        1.459710   -1.287320   -0.569320
    7         20             0       -1.844410   -0.621540   -0.569240
    8         20             0        0.384210    1.906840   -0.571950
 ---------------------------------------------------------------------
                    Distance matrix (angstroms):
                    1          2          3          4          5
     1  O    0.000000
     2  O    3.021328   0.000000
     3  O    3.022062   2.565070   0.000000
     4  O    3.022097   2.565017   2.564655   0.000000
     5  P    3.429902   1.681935   1.680749   1.680721   0.000000
     6  Ca   2.256269   2.307192   2.308121   3.737850   3.003949
     7  Ca   2.256313   2.307216   3.737904   2.308146   3.004004
     8  Ca   2.255742   3.737221   2.307592   2.307622   3.003313
                    6          7          8
     6  Ca   0.000000
     7  Ca   3.370530   0.000000
     8  Ca   3.370366   3.370380   0.000000
 Stoichiometry    Ca3O4P(1+)
 Framework group  C1[X(Ca3O4P)]
 Deg. of freedom    18
 Full point group                 C1
 Largest Abelian subgroup         C1      NOp   1
 Largest concise Abelian subgroup C1      NOp   1
                         Standard orientation:                         
 ---------------------------------------------------------------------
 Center     Atomic     Atomic              Coordinates (Angstroms)
 Number     Number      Type              X           Y           Z
 ---------------------------------------------------------------------
    1          8             0       -0.000434   -0.001303   -1.711849
    2          8             0       -0.437318   -1.413996    0.922891
    3          8             0        1.444192    0.329421    0.921881
    4          8             0       -1.005957    1.087195    0.922001
    5         15             0        0.000666    0.001912    1.718051
    6         20             0        1.322297   -1.428102   -0.569319
    7         20             0       -1.897733   -0.432171   -0.569239
    8         20             0        0.574743    1.858313   -0.571949
 ---------------------------------------------------------------------
 Rotational constants (GHZ):      1.0155022      1.0154851      0.9037652
 Standard basis: 6-31+G(d,p) (6D, 7F)
 There are   180 symmetry adapted basis functions of A   symmetry.
 Integral buffers will be    131072 words long.
 Raffenetti 2 integral format.
 Two-electron integral symmetry is turned on.
   180 basis functions,   424 primitive gaussians,   180 cartesian basis functions
    53 alpha electrons       53 beta electrons
       nuclear repulsion energy       952.7153013698 Hartrees.
 NAtoms=    8 NActive=    8 NUniq=    8 SFac= 7.50D-01 NAtFMM=   80 NAOKFM=F Big=F
 One-electron integrals computed using PRISM.
 NBasis=   180 RedAO= T  NBF=   180
 NBsUse=   180 1.00D-06 NBFU=   180
 Harris functional with IExCor=  402 diagonalized for initial guess.
 ExpMin= 7.10D-03 ExpMax= 3.53D+04 ExpMxC= 5.30D+03 IAcc=3 IRadAn=         5 AccDes= 0.00D+00
 HarFok:  IExCor= 402 AccDes= 0.00D+00 IRadAn=         5 IDoV=1
 ScaDFX=  1.000000  1.000000  1.000000  1.000000
 Initial guess orbital symmetries:
       Occupied  (A) (A) (A) (A) (A) (A) (A) (A) (A) (A) (A) (A)
                 (A) (A) (A) (A) (A) (A) (A) (A) (A) (A) (A) (A)
                 (A) (A) (A) (A) (A) (A) (A) (A) (A) (A) (A) (A)
                 (A) (A) (A) (A) (A) (A) (A) (A) (A) (A) (A) (A)
                 (A) (A) (A) (A) (A)
       Virtual   (A) (A) (A) (A) (A) (A) (A) (A) (A) (A) (A) (A)
                 (A) (A) (A) (A) (A) (A) (A) (A) (A) (A) (A) (A)
                 (A) (A) (A) (A) (A) (A) (A) (A) (A) (A) (A) (A)
                 (A) (A) (A) (A) (A) (A) (A) (A) (A) (A) (A) (A)
                 (A) (A) (A) (A) (A) (A) (A) (A) (A) (A) (A) (A)
                 (A) (A) (A) (A) (A) (A) (A) (A) (A) (A) (A) (A)
                 (A) (A) (A) (A) (A) (A) (A) (A) (A) (A) (A) (A)
                 (A) (A) (A) (A) (A) (A) (A) (A) (A) (A) (A) (A)
                 (A) (A) (A) (A) (A) (A) (A) (A) (A) (A) (A) (A)
                 (A) (A) (A) (A) (A) (A) (A) (A) (A) (A) (A) (A)
                 (A) (A) (A) (A) (A) (A) (A)
 The electronic state of the initial guess is 1-A.
 Requested convergence on RMS density matrix=1.00D-04 within 128 cycles.
 Requested convergence on MAX density matrix=1.00D-02.
 Requested convergence on             energy=1.00D-02.
 No special actions if energy rises.
 SCF Done:  E(RB+HF-LYP) =  -2675.07105571     A.U. after    8 cycles
             Convg  =    0.8153D-04             -V/T =  2.0028
             S**2   =   0.0000

 **********************************************************************

            Population analysis using the SCF density.

 **********************************************************************

 Orbital symmetries:
       Occupied  (A) (A) (A) (A) (A) (A) (A) (A) (A) (A) (A) (A)
                 (A) (A) (A) (A) (A) (A) (A) (A) (A) (A) (A) (A)
                 (A) (A) (A) (A) (A) (A) (A) (A) (A) (A) (A) (A)
                 (A) (A) (A) (A) (A) (A) (A) (A) (A) (A) (A) (A)
                 (A) (A) (A) (A) (A)
       Virtual   (A) (A) (A) (A) (A) (A) (A) (A) (A) (A) (A) (A)
                 (A) (A) (A) (A) (A) (A) (A) (A) (A) (A) (A) (A)
                 (A) (A) (A) (A) (A) (A) (A) (A) (A) (A) (A) (A)
                 (A) (A) (A) (A) (A) (A) (A) (A) (A) (A) (A) (A)
                 (A) (A) (A) (A) (A) (A) (A) (A) (A) (A) (A) (A)
                 (A) (A) (A) (A) (A) (A) (A) (A) (A) (A) (A) (A)
                 (A) (A) (A) (A) (A) (A) (A) (A) (A) (A) (A) (A)
                 (A) (A) (A) (A) (A) (A) (A) (A) (A) (A) (A) (A)
                 (A) (A) (A) (A) (A) (A) (A) (A) (A) (A) (A) (A)
                 (A) (A) (A) (A) (A) (A) (A) (A) (A) (A) (A) (A)
                 (A) (A) (A) (A) (A) (A) (A)
 The electronic state is 1-A.
 Alpha  occ. eigenvalues -- -145.49638-145.49632-145.49631 -77.25055 -19.21254
 Alpha  occ. eigenvalues --  -19.21249 -19.21161 -19.15934 -15.56471 -15.56467
 Alpha  occ. eigenvalues --  -15.56467 -12.69668 -12.69667 -12.69666 -12.69646
 Alpha  occ. eigenvalues --  -12.69645 -12.69643 -12.69598 -12.69597 -12.69596
 Alpha  occ. eigenvalues --   -6.70085  -4.86433  -4.86433  -4.85897  -1.93821
 Alpha  occ. eigenvalues --   -1.93736  -1.93735  -1.22374  -1.21693  -1.21692
 Alpha  occ. eigenvalues --   -1.21303  -1.21136  -1.21062  -1.21061  -1.20639
 Alpha  occ. eigenvalues --   -1.20639  -1.06753  -1.00374  -1.00328  -0.90932
 Alpha  occ. eigenvalues --   -0.62641  -0.50530  -0.50518  -0.47957  -0.43356
 Alpha  occ. eigenvalues --   -0.43352  -0.38354  -0.38327  -0.38176  -0.36131
 Alpha  occ. eigenvalues --   -0.36126  -0.34585  -0.30859
 Alpha virt. eigenvalues --   -0.19948  -0.18025  -0.18025  -0.12553  -0.12552
 Alpha virt. eigenvalues --   -0.10892  -0.09477  -0.09477  -0.08338  -0.07770
 Alpha virt. eigenvalues --   -0.06545  -0.06114  -0.06113  -0.04765  -0.04716
 Alpha virt. eigenvalues --   -0.04715  -0.04672  -0.04475  -0.04472  -0.04004
 Alpha virt. eigenvalues --   -0.04003  -0.03232  -0.02943  -0.02943  -0.02360
 Alpha virt. eigenvalues --   -0.02356  -0.00867   0.01027   0.02177   0.02618
 Alpha virt. eigenvalues --    0.02618   0.04574   0.04576   0.05228   0.06004
 Alpha virt. eigenvalues --    0.06005   0.06294   0.06295   0.07291   0.07297
 Alpha virt. eigenvalues --    0.07383   0.07665   0.07670   0.07824   0.08467
 Alpha virt. eigenvalues --    0.10687   0.10688   0.11333   0.11805   0.13661
 Alpha virt. eigenvalues --    0.15682   0.15683   0.19890   0.19893   0.20374
 Alpha virt. eigenvalues --    0.22088   0.22094   0.23486   0.23995   0.25321
 Alpha virt. eigenvalues --    0.25958   0.25971   0.30033   0.31451   0.31458
 Alpha virt. eigenvalues --    0.35747   0.36005   0.36008   0.37871   0.39075
 Alpha virt. eigenvalues --    0.39089   0.39779   0.45832   0.45834   0.53631
 Alpha virt. eigenvalues --    0.53634   0.55847   0.63370   0.63372   0.67681
 Alpha virt. eigenvalues --    0.82901   0.86955   0.86970   0.94089   0.94120
 Alpha virt. eigenvalues --    1.14556   1.16752   1.16770   1.18031   1.20792
 Alpha virt. eigenvalues --    1.21960   1.21984   1.23406   1.23415   1.28212
 Alpha virt. eigenvalues --    1.34155   1.34196   1.36435   1.54452   1.54479
 Alpha virt. eigenvalues --    1.57771   1.68382   1.71620   1.73136   1.73162
 Alpha virt. eigenvalues --    1.77476   1.77490   1.87085   1.87375   1.87385
 Alpha virt. eigenvalues --    1.88080   1.92068   1.92079   1.93329   1.98432
 Alpha virt. eigenvalues --    1.98448   2.03029   2.03032   2.14790   2.38155
 Alpha virt. eigenvalues --    2.55087   2.55190   3.54379   4.05630   4.14262
 Alpha virt. eigenvalues --    4.14313   4.31233
          Condensed to atoms (all electrons):
              1          2          3          4          5          6
     1  O    8.852581   0.023945   0.023973   0.023991  -0.039950   0.122101
     2  O    0.023945   8.964679   0.058567   0.058566  -0.200015   0.060005
     3  O    0.023973   0.058567   8.966244   0.058834  -0.201065   0.059805
     4  O    0.023991   0.058566   0.058834   8.966307  -0.201080   0.006260
     5  P   -0.039950  -0.200015  -0.201065  -0.201080  14.442878   0.033621
     6  Ca   0.122101   0.060005   0.059805   0.006260   0.033621  18.396827
     7  Ca   0.122102   0.060004   0.006252   0.059798   0.033643  -0.047535
     8  Ca   0.122240   0.006155   0.059730   0.059727   0.034054  -0.047707
              7          8
     1  O    0.122102   0.122240
     2  O    0.060004   0.006155
     3  O    0.006252   0.059730
     4  O    0.059798   0.059727
     5  P    0.033643   0.034054
     6  Ca  -0.047535  -0.047707
     7  Ca  18.396809  -0.047719
     8  Ca  -0.047719  18.397071
 Mulliken atomic charges:
              1
     1  O   -1.250982
     2  O   -1.031905
     3  O   -1.032341
     4  O   -1.032403
     5  P    1.097914
     6  Ca   1.416624
     7  Ca   1.416646
     8  Ca   1.416448
 Sum of Mulliken charges=   1.00000
 Atomic charges with hydrogens summed into heavy atoms:
              1
     1  O   -1.250982
     2  O   -1.031905
     3  O   -1.032341
     4  O   -1.032403
     5  P    1.097914
     6  Ca   1.416624
     7  Ca   1.416646
     8  Ca   1.416448
 Sum of Mulliken charges=   1.00000
 Electronic spatial extent (au):  <R**2>=  1510.1120
 Charge=     1.0000 electrons
 Dipole moment (field-independent basis, Debye):
    X=    -0.0044    Y=    -0.0125    Z=    -8.2283  Tot=     8.2283
 Quadrupole moment (field-independent basis, Debye-Ang):
   XX=   -40.0300   YY=   -40.0413   ZZ=   -90.0142
   XY=    -0.0039   XZ=    -0.0140   YZ=    -0.0426
 Traceless Quadrupole moment (field-independent basis, Debye-Ang):
   XX=    16.6652   YY=    16.6538   ZZ=   -33.3190
   XY=    -0.0039   XZ=    -0.0140   YZ=    -0.0426
 Octapole moment (field-independent basis, Debye-Ang**2):
  XXX=   -45.9526  YYY=    36.2995  ZZZ=    -1.6850  XYY=    45.8861
  XXY=   -36.4800  XXZ=   -46.6243  XZZ=     0.0226  YZZ=     0.0665
  YYZ=   -46.7150  XYZ=    -0.0295
 Hexadecapole moment (field-independent basis, Debye-Ang**3):
 XXXX=  -415.9837 YYYY=  -416.1862 ZZZZ=  -721.6674 XXXY=     0.0035
 XXXZ=    12.0356 YYYX=    -0.0770 YYYZ=    -9.7484 ZZZX=    -0.0599
 ZZZY=    -0.1728 XXYY=  -138.6766 XXZZ=  -187.6214 YYZZ=  -187.5764
 XXYZ=     9.5433 YYXZ=   -12.1058 ZZXY=     0.0137
 N-N= 9.527153013698D+02 E-N=-8.229903068828D+03  KE= 2.667693252554D+03
 Merz-Kollman atomic radii used.
 Read replacement radii for each type of atom:
 Rad(20) =   1.188000000000D+00
 Atom Element Radius
    1     8    1.40
    2     8    1.40
    3     8    1.40
    4     8    1.40
    5    15    1.80
    6    20    1.19
    7    20    1.19
    8    20    1.19

 **********************************************************************

            Electrostatic Properties Using The SCF Density

 **********************************************************************

       Atomic Center    1 is at  -0.000434 -0.001303 -1.711849
       Atomic Center    2 is at  -0.437318 -1.413996  0.922891
       Atomic Center    3 is at   1.444192  0.329421  0.921881
       Atomic Center    4 is at  -1.005957  1.087195  0.922001
       Atomic Center    5 is at   0.000666  0.001912  1.718051
       Atomic Center    6 is at   1.322297 -1.428102 -0.569319
       Atomic Center    7 is at  -1.897733 -0.432171 -0.569239
       Atomic Center    8 is at   0.574743  1.858313 -0.571949
     678 points will be used for fitting atomic charges
 Fitting point charges to eletrostatic potential
 Charges from ESP fit, RMS=   0.00617 RRMS=   0.03774:
 Charge=   1.00000 Dipole=     0.0211    -0.0434    -8.4487 Tot=     8.4489
              1
     1  O   -1.634272
     2  O   -0.947405
     3  O   -0.946438
     4  O   -0.950455
     5  P    0.520176
     6  Ca   1.653868
     7  Ca   1.652766
     8  Ca   1.651761
 -----------------------------------------------------------------

              Electrostatic Properties (Atomic Units)

 -----------------------------------------------------------------
    Center     Electric         -------- Electric Field --------
               Potential          X             Y             Z
 -----------------------------------------------------------------
    1 Atom    -22.290639
    2 Atom    -22.250066
    3 Atom    -22.251764
    4 Atom    -22.251843
    5 Atom    -53.967975
    6 Atom    -80.043272
    7 Atom    -80.043267
    8 Atom    -80.043380
 -----------------------------------------------------------------
 1\1\GINC-N031\SP\RB3LYP\6-31+G(d,p)\Ca3O4P1(1+)\TIMN\12-Jun-2015\0\\# 
 b3lyp/6-31+G(d,p) int=ultrafine pop=(ReadRadii,MK)\\Ca3PO4_106.mol2_pl
 usQ.z51106.zip.xyz\\1,1\O,0,-0.0003,-0.00134,-1.71185\O,0,-0.29234,-1.
 45092,0.92289\O,0,1.40356,0.47353,0.92188\O,0,-1.11057,0.98009,0.922\P
 ,0,0.00047,0.00197,1.71805\Ca,0,1.45971,-1.28732,-0.56932\Ca,0,-1.8444
 1,-0.62154,-0.56924\Ca,0,0.38421,1.90684,-0.57195\\Version=EM64T-G03Re
 vE.01\State=1-A\HF=-2675.0710557\RMSD=8.153e-05\Thermal=0.\Dipole=-0.0
 012138,-0.005058,-3.2372522\PG=C01 [X(Ca3O4P1)]\\@


 QED = W**5 (WHICH WAS WHAT WE WANTED)
 Job cpu time:  0 days  0 hours  1 minutes 45.1 seconds.
 File lengths (MBytes):  RWF=     32 Int=      0 D2E=      0 Chk=     11 Scr=      1
 Normal termination of Gaussian 03 at Fri Jun 12 17:36:10 2015.
