 Entering Gaussian System, Link 0=/home/timn/tmp/g03.e01/g03
 Input=Ca3PO4_175.mol2_plusQ.z51182.zip.xyz.gjf
 Output=Ca3PO4_175.mol2_plusQ.z51182.zip.xyz.out
 Initial command:
 /home/timn/tmp/g03.e01/l1.exe /home/timn/tmp/g03.e01/Gau-17040.inp -scrdir=/home/timn/tmp/g03.e01/
 Default is to use a total of   2 processors:
                                2 via shared-memory
                                1 via Linda
 Entering Link 1 = /home/timn/tmp/g03.e01/l1.exe PID=     17041.
  
 Copyright (c) 1988,1990,1992,1993,1995,1998,2003,2004,2007, Gaussian, Inc.
                  All Rights Reserved.
  
 This is the Gaussian(R) 03 program.  It is based on the
 the Gaussian(R) 98 system (copyright 1998, Gaussian, Inc.),
 the Gaussian(R) 94 system (copyright 1995, Gaussian, Inc.),
 the Gaussian 92(TM) system (copyright 1992, Gaussian, Inc.),
 the Gaussian 90(TM) system (copyright 1990, Gaussian, Inc.),
 the Gaussian 88(TM) system (copyright 1988, Gaussian, Inc.),
 the Gaussian 86(TM) system (copyright 1986, Carnegie Mellon
 University), and the Gaussian 82(TM) system (copyright 1983,
 Carnegie Mellon University). Gaussian is a federally registered
 trademark of Gaussian, Inc.
  
 This software contains proprietary and confidential information,
 including trade secrets, belonging to Gaussian, Inc.
  
 This software is provided under written license and may be
 used, copied, transmitted, or stored only in accord with that
 written license.
  
 The following legend is applicable only to US Government
 contracts under FAR:
  
                    RESTRICTED RIGHTS LEGEND
  
 Use, reproduction and disclosure by the US Government is
 subject to restrictions as set forth in subparagraphs (a)
 and (c) of the Commercial Computer Software - Restricted
 Rights clause in FAR 52.227-19.
  
 Gaussian, Inc.
 340 Quinnipiac St., Bldg. 40, Wallingford CT 06492
  
  
 ---------------------------------------------------------------
 Warning -- This program may not be used in any manner that
 competes with the business of Gaussian, Inc. or will provide
 assistance to any competitor of Gaussian, Inc.  The licensee
 of this program is prohibited from giving any competitor of
 Gaussian, Inc. access to this program.  By using this program,
 the user acknowledges that Gaussian, Inc. is engaged in the
 business of creating and licensing software in the field of
 computational chemistry and represents and warrants to the
 licensee that it is not a competitor of Gaussian, Inc. and that
 it will not use this program in any manner prohibited above.
 ---------------------------------------------------------------
  

 Cite this work as:
 Gaussian 03, Revision E.01,
 M. J. Frisch, G. W. Trucks, H. B. Schlegel, G. E. Scuseria, 
 M. A. Robb, J. R. Cheeseman, J. A. Montgomery, Jr., T. Vreven, 
 K. N. Kudin, J. C. Burant, J. M. Millam, S. S. Iyengar, J. Tomasi, 
 V. Barone, B. Mennucci, M. Cossi, G. Scalmani, N. Rega, 
 G. A. Petersson, H. Nakatsuji, M. Hada, M. Ehara, K. Toyota, 
 R. Fukuda, J. Hasegawa, M. Ishida, T. Nakajima, Y. Honda, O. Kitao, 
 H. Nakai, M. Klene, X. Li, J. E. Knox, H. P. Hratchian, J. B. Cross, 
 V. Bakken, C. Adamo, J. Jaramillo, R. Gomperts, R. E. Stratmann, 
 O. Yazyev, A. J. Austin, R. Cammi, C. Pomelli, J. W. Ochterski, 
 P. Y. Ayala, K. Morokuma, G. A. Voth, P. Salvador, J. J. Dannenberg, 
 V. G. Zakrzewski, S. Dapprich, A. D. Daniels, M. C. Strain, 
 O. Farkas, D. K. Malick, A. D. Rabuck, K. Raghavachari, 
 J. B. Foresman, J. V. Ortiz, Q. Cui, A. G. Baboul, S. Clifford, 
 J. Cioslowski, B. B. Stefanov, G. Liu, A. Liashenko, P. Piskorz, 
 I. Komaromi, R. L. Martin, D. J. Fox, T. Keith, M. A. Al-Laham, 
 C. Y. Peng, A. Nanayakkara, M. Challacombe, P. M. W. Gill, 
 B. Johnson, W. Chen, M. W. Wong, C. Gonzalez, and J. A. Pople, 
 Gaussian, Inc., Wallingford CT, 2004.
 
 ******************************************
 Gaussian 03:  EM64T-G03RevE.01 11-Sep-2007
                12-Jun-2015 
 ******************************************
 %nproc=2
 Will use up to    2 processors via shared memory.
 Default route:  MP2=Direct MaxDisk=2000MB
 ----------------------------------------------------
 # b3lyp/6-31+G(d,p) int=ultrafine pop=(ReadRadii,MK)
 ----------------------------------------------------

 Warning!  SCF SP cutoffs with diffuse functions may be unreliable.
 Consider SCF=Tight

 1/38=1/1;
 2/17=6,18=5,40=1/2;
 3/5=1,6=6,7=111,11=2,16=1,25=1,30=1,74=-5,75=5/1,2,3;
 4//1;
 5/5=2,32=1,38=5/2;
 6/7=2,8=2,9=2,10=2,15=8,20=101,28=1/1,2;
 99/5=1,9=1/99;
 ------------------------------------
 Ca3PO4_175.mol2_plusQ.z51182.zip.xyz
 ------------------------------------
 Symbolic Z-matrix:
 Charge =  1 Multiplicity = 1
 O                     0.88836   0.95898   0.00003 
 O                    -1.5566   -1.02505  -0.00126 
 O                    -3.36005   0.66582   0.00134 
 O                     2.96287  -1.32795  -0.00209 
 P                    -3.11195  -0.85316   0.00299 
 Ca                   -1.18516   1.5598   -0.00271 
 Ca                    0.80566  -1.4228   -0.00142 
 Ca                    3.13963   0.79415   0.00268 
 
                          Input orientation:                          
 ---------------------------------------------------------------------
 Center     Atomic     Atomic              Coordinates (Angstroms)
 Number     Number      Type              X           Y           Z
 ---------------------------------------------------------------------
    1          8             0        0.888360    0.958980    0.000030
    2          8             0       -1.556600   -1.025050   -0.001260
    3          8             0       -3.360050    0.665820    0.001340
    4          8             0        2.962870   -1.327950   -0.002090
    5         15             0       -3.111950   -0.853160    0.002990
    6         20             0       -1.185160    1.559800   -0.002710
    7         20             0        0.805660   -1.422800   -0.001420
    8         20             0        3.139630    0.794150    0.002680
 ---------------------------------------------------------------------
                    Distance matrix (angstroms):
                    1          2          3          4          5
     1  O    0.000000
     2  O    3.148683   0.000000
     3  O    4.258513   2.472141   0.000000
     4  O    3.087660   4.529609   6.629815   0.000000
     5  P    4.391622   1.564825   1.539109   6.093348   0.000000
     6  Ca   2.158814   2.611402   2.351460   5.054231   3.087868
     7  Ca   2.383216   2.395512   4.659987   2.159294   3.958810
     8  Ca   2.257298   5.036276   6.500947   2.129454   6.464974
                    6          7          8
     6  Ca   0.000000
     7  Ca   3.585982   0.000000
     8  Ca   4.392045   3.219053   0.000000
 Stoichiometry    Ca3O4P(1+)
 Framework group  C1[X(Ca3O4P)]
 Deg. of freedom    18
 Full point group                 C1
 Largest Abelian subgroup         C1      NOp   1
 Largest concise Abelian subgroup C1      NOp   1
                         Standard orientation:                         
 ---------------------------------------------------------------------
 Center     Atomic     Atomic              Coordinates (Angstroms)
 Number     Number      Type              X           Y           Z
 ---------------------------------------------------------------------
    1          8             0       -0.888360    0.958981   -0.000030
    2          8             0        1.556599   -1.025051    0.001260
    3          8             0        3.360050    0.665818   -0.001340
    4          8             0       -2.962871   -1.327948    0.002090
    5         15             0        3.111949   -0.853162   -0.002990
    6         20             0        1.185161    1.559799    0.002710
    7         20             0       -0.805661   -1.422800    0.001420
    8         20             0       -3.139630    0.794152   -0.002680
 ---------------------------------------------------------------------
 Rotational constants (GHZ):      1.7267412      0.4401156      0.3507232
 Standard basis: 6-31+G(d,p) (6D, 7F)
 There are   180 symmetry adapted basis functions of A   symmetry.
 Integral buffers will be    131072 words long.
 Raffenetti 2 integral format.
 Two-electron integral symmetry is turned on.
   180 basis functions,   424 primitive gaussians,   180 cartesian basis functions
    53 alpha electrons       53 beta electrons
       nuclear repulsion energy       811.4863578025 Hartrees.
 NAtoms=    8 NActive=    8 NUniq=    8 SFac= 7.50D-01 NAtFMM=   80 NAOKFM=F Big=F
 One-electron integrals computed using PRISM.
 NBasis=   180 RedAO= T  NBF=   180
 NBsUse=   180 1.00D-06 NBFU=   180
 Harris functional with IExCor=  402 diagonalized for initial guess.
 ExpMin= 7.10D-03 ExpMax= 3.53D+04 ExpMxC= 5.30D+03 IAcc=3 IRadAn=         5 AccDes= 0.00D+00
 HarFok:  IExCor= 402 AccDes= 0.00D+00 IRadAn=         5 IDoV=1
 ScaDFX=  1.000000  1.000000  1.000000  1.000000
 Initial guess orbital symmetries:
       Occupied  (A) (A) (A) (A) (A) (A) (A) (A) (A) (A) (A) (A)
                 (A) (A) (A) (A) (A) (A) (A) (A) (A) (A) (A) (A)
                 (A) (A) (A) (A) (A) (A) (A) (A) (A) (A) (A) (A)
                 (A) (A) (A) (A) (A) (A) (A) (A) (A) (A) (A) (A)
                 (A) (A) (A) (A) (A)
       Virtual   (A) (A) (A) (A) (A) (A) (A) (A) (A) (A) (A) (A)
                 (A) (A) (A) (A) (A) (A) (A) (A) (A) (A) (A) (A)
                 (A) (A) (A) (A) (A) (A) (A) (A) (A) (A) (A) (A)
                 (A) (A) (A) (A) (A) (A) (A) (A) (A) (A) (A) (A)
                 (A) (A) (A) (A) (A) (A) (A) (A) (A) (A) (A) (A)
                 (A) (A) (A) (A) (A) (A) (A) (A) (A) (A) (A) (A)
                 (A) (A) (A) (A) (A) (A) (A) (A) (A) (A) (A) (A)
                 (A) (A) (A) (A) (A) (A) (A) (A) (A) (A) (A) (A)
                 (A) (A) (A) (A) (A) (A) (A) (A) (A) (A) (A) (A)
                 (A) (A) (A) (A) (A) (A) (A) (A) (A) (A) (A) (A)
                 (A) (A) (A) (A) (A) (A) (A)
 The electronic state of the initial guess is 1-A.
 Requested convergence on RMS density matrix=1.00D-04 within 128 cycles.
 Requested convergence on MAX density matrix=1.00D-02.
 Requested convergence on             energy=1.00D-02.
 No special actions if energy rises.
 EnCoef did     3 forward-backward iterations
 EnCoef did   100 forward-backward iterations
 EnCoef did     4 forward-backward iterations
 EnCoef did     3 forward-backward iterations
 SCF Done:  E(RB+HF-LYP) =  -2675.00690612     A.U. after   10 cycles
             Convg  =    0.5447D-04             -V/T =  2.0027
             S**2   =   0.0000

 **********************************************************************

            Population analysis using the SCF density.

 **********************************************************************

 Orbital symmetries:
       Occupied  (A) (A) (A) (A) (A) (A) (A) (A) (A) (A) (A) (A)
                 (A) (A) (A) (A) (A) (A) (A) (A) (A) (A) (A) (A)
                 (A) (A) (A) (A) (A) (A) (A) (A) (A) (A) (A) (A)
                 (A) (A) (A) (A) (A) (A) (A) (A) (A) (A) (A) (A)
                 (A) (A) (A) (A) (A)
       Virtual   (A) (A) (A) (A) (A) (A) (A) (A) (A) (A) (A) (A)
                 (A) (A) (A) (A) (A) (A) (A) (A) (A) (A) (A) (A)
                 (A) (A) (A) (A) (A) (A) (A) (A) (A) (A) (A) (A)
                 (A) (A) (A) (A) (A) (A) (A) (A) (A) (A) (A) (A)
                 (A) (A) (A) (A) (A) (A) (A) (A) (A) (A) (A) (A)
                 (A) (A) (A) (A) (A) (A) (A) (A) (A) (A) (A) (A)
                 (A) (A) (A) (A) (A) (A) (A) (A) (A) (A) (A) (A)
                 (A) (A) (A) (A) (A) (A) (A) (A) (A) (A) (A) (A)
                 (A) (A) (A) (A) (A) (A) (A) (A) (A) (A) (A) (A)
                 (A) (A) (A) (A) (A) (A) (A) (A) (A) (A) (A) (A)
                 (A) (A) (A) (A) (A) (A) (A)
 The electronic state is 1-A.
 Alpha  occ. eigenvalues -- -145.52332-145.46885-145.45481 -77.31213 -19.29504
 Alpha  occ. eigenvalues --  -19.28803 -19.16934 -19.10387 -15.59236 -15.53787
 Alpha  occ. eigenvalues --  -15.52407 -12.72501 -12.72456 -12.72256 -12.67029
 Alpha  occ. eigenvalues --  -12.66943 -12.66865 -12.65677 -12.65586 -12.65451
 Alpha  occ. eigenvalues --   -6.76834  -4.93267  -4.93035  -4.92619  -1.96475
 Alpha  occ. eigenvalues --   -1.91087  -1.89817  -1.24405  -1.24395  -1.23358
 Alpha  occ. eigenvalues --   -1.18961  -1.18717  -1.18061  -1.17869  -1.17285
 Alpha  occ. eigenvalues --   -1.17051  -1.15056  -1.09407  -0.91679  -0.84357
 Alpha  occ. eigenvalues --   -0.68454  -0.57434  -0.54768  -0.54084  -0.46508
 Alpha  occ. eigenvalues --   -0.45057  -0.42639  -0.37788  -0.36734  -0.35743
 Alpha  occ. eigenvalues --   -0.29919  -0.28472  -0.28153
 Alpha virt. eigenvalues --   -0.21229  -0.20112  -0.17840  -0.15066  -0.12988
 Alpha virt. eigenvalues --   -0.11123  -0.10411  -0.10231  -0.09291  -0.08833
 Alpha virt. eigenvalues --   -0.08414  -0.07230  -0.06841  -0.06413  -0.05451
 Alpha virt. eigenvalues --   -0.05196  -0.04869  -0.04494  -0.04407  -0.04119
 Alpha virt. eigenvalues --   -0.03948  -0.03918  -0.03796  -0.03177  -0.02921
 Alpha virt. eigenvalues --   -0.02911  -0.02804  -0.01939  -0.00580   0.01373
 Alpha virt. eigenvalues --    0.02634   0.03155   0.03251   0.03723   0.04807
 Alpha virt. eigenvalues --    0.05121   0.05811   0.06140   0.06345   0.06505
 Alpha virt. eigenvalues --    0.06689   0.07427   0.07870   0.09134   0.09499
 Alpha virt. eigenvalues --    0.10245   0.10928   0.11080   0.11592   0.12021
 Alpha virt. eigenvalues --    0.14043   0.15085   0.15386   0.16864   0.17981
 Alpha virt. eigenvalues --    0.18861   0.19602   0.21226   0.21552   0.23914
 Alpha virt. eigenvalues --    0.24325   0.26757   0.27289   0.28763   0.28805
 Alpha virt. eigenvalues --    0.30758   0.31777   0.32097   0.34013   0.36411
 Alpha virt. eigenvalues --    0.38806   0.40438   0.42641   0.46047   0.46349
 Alpha virt. eigenvalues --    0.51408   0.54164   0.56324   0.60096   0.61246
 Alpha virt. eigenvalues --    0.63587   0.82589   0.87257   0.94497   1.04808
 Alpha virt. eigenvalues --    1.07402   1.09897   1.10895   1.13121   1.15601
 Alpha virt. eigenvalues --    1.18069   1.18486   1.18795   1.20872   1.24909
 Alpha virt. eigenvalues --    1.26235   1.33169   1.34414   1.40528   1.44300
 Alpha virt. eigenvalues --    1.54792   1.63074   1.63784   1.66218   1.69781
 Alpha virt. eigenvalues --    1.73064   1.77887   1.78790   1.80289   1.82515
 Alpha virt. eigenvalues --    1.86363   1.87142   1.87339   1.88654   1.88729
 Alpha virt. eigenvalues --    1.94821   1.99632   2.01789   2.05608   2.18405
 Alpha virt. eigenvalues --    2.51188   2.67827   3.38943   3.86673   3.88448
 Alpha virt. eigenvalues --    3.94351   4.05858
          Condensed to atoms (all electrons):
              1          2          3          4          5          6
     1  O    9.037566  -0.015343  -0.000543  -0.024980  -0.010040   0.196012
     2  O   -0.015343   8.926662  -0.079283  -0.003694  -0.139022   0.018554
     3  O   -0.000543  -0.079283   8.557485  -0.000002   0.094847   0.075337
     4  O   -0.024980  -0.003694  -0.000002   8.700018  -0.000321  -0.003422
     5  P   -0.010040  -0.139022   0.094847  -0.000321  14.405437  -0.020721
     6  Ca   0.196012   0.018554   0.075337  -0.003422  -0.020721  18.255045
     7  Ca   0.044133   0.029158   0.005473   0.234369   0.003645  -0.004930
     8  Ca   0.093091   0.005251   0.001783   0.226857  -0.012035  -0.012983
              7          8
     1  O    0.044133   0.093091
     2  O    0.029158   0.005251
     3  O    0.005473   0.001783
     4  O    0.234369   0.226857
     5  P    0.003645  -0.012035
     6  Ca  -0.004930  -0.012983
     7  Ca  18.391066  -0.027946
     8  Ca  -0.027946  18.380230
 Mulliken atomic charges:
              1
     1  O   -1.319895
     2  O   -0.742284
     3  O   -0.655098
     4  O   -1.128824
     5  P    0.678208
     6  Ca   1.497110
     7  Ca   1.325032
     8  Ca   1.345751
 Sum of Mulliken charges=   1.00000
 Atomic charges with hydrogens summed into heavy atoms:
              1
     1  O   -1.319895
     2  O   -0.742284
     3  O   -0.655098
     4  O   -1.128824
     5  P    0.678208
     6  Ca   1.497110
     7  Ca   1.325032
     8  Ca   1.345751
 Sum of Mulliken charges=   1.00000
 Electronic spatial extent (au):  <R**2>=  2691.0217
 Charge=     1.0000 electrons
 Dipole moment (field-independent basis, Debye):
    X=     0.1736    Y=     8.1091    Z=    -0.0046  Tot=     8.1110
 Quadrupole moment (field-independent basis, Debye-Ang):
   XX=   -60.0364   YY=   -52.2543   ZZ=   -68.9732
   XY=   -23.1550   XZ=     0.1056   YZ=     0.0262
 Traceless Quadrupole moment (field-independent basis, Debye-Ang):
   XX=     0.3849   YY=     8.1670   ZZ=    -8.5519
   XY=   -23.1550   XZ=     0.1056   YZ=     0.0262
 Octapole moment (field-independent basis, Debye-Ang**2):
  XXX=  -106.0168  YYY=    40.8500  ZZZ=     0.0157  XYY=    23.7240
  XXY=   115.5130  XXZ=    -0.2460  XZZ=     0.4835  YZZ=     6.6518
  YYZ=     0.0648  XYZ=     0.0728
 Hexadecapole moment (field-independent basis, Debye-Ang**3):
 XXXX= -2347.2969 YYYY=  -552.4447 ZZZZ=   -83.9948 XXXY=  -514.1542
 XXXZ=     1.2709 YYYX=     5.6420 YYYZ=     0.0932 ZZZX=     0.2372
 ZZZY=     0.0323 XXYY=  -553.3788 XXZZ=  -411.5278 YYZZ=  -114.4685
 XXYZ=     0.0242 YYXZ=     0.2300 ZZXY=    -8.4350
 N-N= 8.114863578025D+02 E-N=-7.947056544460D+03  KE= 2.667673967532D+03
 Merz-Kollman atomic radii used.
 Read replacement radii for each type of atom:
 Rad(20) =   1.188000000000D+00
 Atom Element Radius
    1     8    1.40
    2     8    1.40
    3     8    1.40
    4     8    1.40
    5    15    1.80
    6    20    1.19
    7    20    1.19
    8    20    1.19

 **********************************************************************

            Electrostatic Properties Using The SCF Density

 **********************************************************************

       Atomic Center    1 is at  -0.888360  0.958981 -0.000030
       Atomic Center    2 is at   1.556599 -1.025051  0.001260
       Atomic Center    3 is at   3.360050  0.665818 -0.001340
       Atomic Center    4 is at  -2.962871 -1.327948  0.002090
       Atomic Center    5 is at   3.111949 -0.853162 -0.002990
       Atomic Center    6 is at   1.185161  1.559799  0.002710
       Atomic Center    7 is at  -0.805661 -1.422800  0.001420
       Atomic Center    8 is at  -3.139630  0.794152 -0.002680
     818 points will be used for fitting atomic charges
 Fitting point charges to eletrostatic potential
 Charges from ESP fit, RMS=   0.00574 RRMS=   0.03819:
 Charge=   1.00000 Dipole=    -0.2206     8.3649    -0.0102 Tot=     8.3678
              1
     1  O   -1.729661
     2  O   -0.738618
     3  O   -0.649108
     4  O   -1.479540
     5  P    0.571717
     6  Ca   1.723691
     7  Ca   1.674459
     8  Ca   1.627059
 -----------------------------------------------------------------

              Electrostatic Properties (Atomic Units)

 -----------------------------------------------------------------
    Center     Electric         -------- Electric Field --------
               Potential          X             Y             Z
 -----------------------------------------------------------------
    1 Atom    -22.290416
    2 Atom    -22.167937
    3 Atom    -22.179017
    4 Atom    -22.361384
    5 Atom    -53.902679
    6 Atom    -80.017370
    7 Atom    -80.086349
    8 Atom    -80.073959
 -----------------------------------------------------------------
 1\1\GINC-N025\SP\RB3LYP\6-31+G(d,p)\Ca3O4P1(1+)\TIMN\12-Jun-2015\0\\# 
 b3lyp/6-31+G(d,p) int=ultrafine pop=(ReadRadii,MK)\\Ca3PO4_175.mol2_pl
 usQ.z51182.zip.xyz\\1,1\O,0,0.88836,0.95898,0.00003\O,0,-1.5566,-1.025
 05,-0.00126\O,0,-3.36005,0.66582,0.00134\O,0,2.96287,-1.32795,-0.00209
 \P,0,-3.11195,-0.85316,0.00299\Ca,0,-1.18516,1.5598,-0.00271\Ca,0,0.80
 566,-1.4228,-0.00142\Ca,0,3.13963,0.79415,0.00268\\Version=EM64T-G03Re
 vE.01\State=1-A\HF=-2675.0069061\RMSD=5.447e-05\Thermal=0.\Dipole=-0.0
 682815,3.1903634,0.0017942\PG=C01 [X(Ca3O4P1)]\\@


 IF I HAVE SEEN FARTHER, IT IS BY STANDING ON THE
 SHOULDERS OF GIANTS. -- SIR ISAAC NEWTON
 Job cpu time:  0 days  0 hours  1 minutes 46.9 seconds.
 File lengths (MBytes):  RWF=     32 Int=      0 D2E=      0 Chk=     11 Scr=      1
 Normal termination of Gaussian 03 at Fri Jun 12 17:39:48 2015.
