 Entering Gaussian System, Link 0=/home/timn/tmp/g03.e01/g03
 Input=Ca3PO4_27.mol2c_plusQ.z51438.zip.xyz.gjf
 Output=Ca3PO4_27.mol2c_plusQ.z51438.zip.xyz.out
 Initial command:
 /home/timn/tmp/g03.e01/l1.exe /home/timn/tmp/g03.e01/Gau-12054.inp -scrdir=/home/timn/tmp/g03.e01/
 Default is to use a total of   2 processors:
                                2 via shared-memory
                                1 via Linda
 Entering Link 1 = /home/timn/tmp/g03.e01/l1.exe PID=     12055.
  
 Copyright (c) 1988,1990,1992,1993,1995,1998,2003,2004,2007, Gaussian, Inc.
                  All Rights Reserved.
  
 This is the Gaussian(R) 03 program.  It is based on the
 the Gaussian(R) 98 system (copyright 1998, Gaussian, Inc.),
 the Gaussian(R) 94 system (copyright 1995, Gaussian, Inc.),
 the Gaussian 92(TM) system (copyright 1992, Gaussian, Inc.),
 the Gaussian 90(TM) system (copyright 1990, Gaussian, Inc.),
 the Gaussian 88(TM) system (copyright 1988, Gaussian, Inc.),
 the Gaussian 86(TM) system (copyright 1986, Carnegie Mellon
 University), and the Gaussian 82(TM) system (copyright 1983,
 Carnegie Mellon University). Gaussian is a federally registered
 trademark of Gaussian, Inc.
  
 This software contains proprietary and confidential information,
 including trade secrets, belonging to Gaussian, Inc.
  
 This software is provided under written license and may be
 used, copied, transmitted, or stored only in accord with that
 written license.
  
 The following legend is applicable only to US Government
 contracts under FAR:
  
                    RESTRICTED RIGHTS LEGEND
  
 Use, reproduction and disclosure by the US Government is
 subject to restrictions as set forth in subparagraphs (a)
 and (c) of the Commercial Computer Software - Restricted
 Rights clause in FAR 52.227-19.
  
 Gaussian, Inc.
 340 Quinnipiac St., Bldg. 40, Wallingford CT 06492
  
  
 ---------------------------------------------------------------
 Warning -- This program may not be used in any manner that
 competes with the business of Gaussian, Inc. or will provide
 assistance to any competitor of Gaussian, Inc.  The licensee
 of this program is prohibited from giving any competitor of
 Gaussian, Inc. access to this program.  By using this program,
 the user acknowledges that Gaussian, Inc. is engaged in the
 business of creating and licensing software in the field of
 computational chemistry and represents and warrants to the
 licensee that it is not a competitor of Gaussian, Inc. and that
 it will not use this program in any manner prohibited above.
 ---------------------------------------------------------------
  

 Cite this work as:
 Gaussian 03, Revision E.01,
 M. J. Frisch, G. W. Trucks, H. B. Schlegel, G. E. Scuseria, 
 M. A. Robb, J. R. Cheeseman, J. A. Montgomery, Jr., T. Vreven, 
 K. N. Kudin, J. C. Burant, J. M. Millam, S. S. Iyengar, J. Tomasi, 
 V. Barone, B. Mennucci, M. Cossi, G. Scalmani, N. Rega, 
 G. A. Petersson, H. Nakatsuji, M. Hada, M. Ehara, K. Toyota, 
 R. Fukuda, J. Hasegawa, M. Ishida, T. Nakajima, Y. Honda, O. Kitao, 
 H. Nakai, M. Klene, X. Li, J. E. Knox, H. P. Hratchian, J. B. Cross, 
 V. Bakken, C. Adamo, J. Jaramillo, R. Gomperts, R. E. Stratmann, 
 O. Yazyev, A. J. Austin, R. Cammi, C. Pomelli, J. W. Ochterski, 
 P. Y. Ayala, K. Morokuma, G. A. Voth, P. Salvador, J. J. Dannenberg, 
 V. G. Zakrzewski, S. Dapprich, A. D. Daniels, M. C. Strain, 
 O. Farkas, D. K. Malick, A. D. Rabuck, K. Raghavachari, 
 J. B. Foresman, J. V. Ortiz, Q. Cui, A. G. Baboul, S. Clifford, 
 J. Cioslowski, B. B. Stefanov, G. Liu, A. Liashenko, P. Piskorz, 
 I. Komaromi, R. L. Martin, D. J. Fox, T. Keith, M. A. Al-Laham, 
 C. Y. Peng, A. Nanayakkara, M. Challacombe, P. M. W. Gill, 
 B. Johnson, W. Chen, M. W. Wong, C. Gonzalez, and J. A. Pople, 
 Gaussian, Inc., Wallingford CT, 2004.
 
 ******************************************
 Gaussian 03:  EM64T-G03RevE.01 11-Sep-2007
                12-Jun-2015 
 ******************************************
 %nproc=2
 Will use up to    2 processors via shared memory.
 Default route:  MP2=Direct MaxDisk=2000MB
 ----------------------------------------------------
 # b3lyp/6-31+G(d,p) int=ultrafine pop=(ReadRadii,MK)
 ----------------------------------------------------

 Warning!  SCF SP cutoffs with diffuse functions may be unreliable.
 Consider SCF=Tight

 1/38=1/1;
 2/17=6,18=5,40=1/2;
 3/5=1,6=6,7=111,11=2,16=1,25=1,30=1,74=-5,75=5/1,2,3;
 4//1;
 5/5=2,32=1,38=5/2;
 6/7=2,8=2,9=2,10=2,15=8,20=101,28=1/1,2;
 99/5=1,9=1/99;
 ------------------------------------
 Ca3PO4_27.mol2c_plusQ.z51438.zip.xyz
 ------------------------------------
 Symbolic Z-matrix:
 Charge =  1 Multiplicity = 1
 O                     0.47828   1.43584   1.36186 
 O                    -0.0001    0.00005  -0.68774 
 O                     1.0041   -1.13258   1.3617 
 O                    -1.48309  -0.30374   1.36158 
 P                    -0.00021  -0.00013   1.06481 
 Ca                   -2.3319   -0.47768  -0.71943 
 Ca                    1.58004  -1.7802   -0.71915 
 Ca                    0.75234   2.25815  -0.719 
 
                          Input orientation:                          
 ---------------------------------------------------------------------
 Center     Atomic     Atomic              Coordinates (Angstroms)
 Number     Number      Type              X           Y           Z
 ---------------------------------------------------------------------
    1          8             0        0.478280    1.435840    1.361860
    2          8             0       -0.000100    0.000050   -0.687740
    3          8             0        1.004100   -1.132580    1.361700
    4          8             0       -1.483090   -0.303740    1.361580
    5         15             0       -0.000210   -0.000130    1.064810
    6         20             0       -2.331900   -0.477680   -0.719430
    7         20             0        1.580040   -1.780200   -0.719150
    8         20             0        0.752340    2.258150   -0.719000
 ---------------------------------------------------------------------
                    Distance matrix (angstroms):
                    1          2          3          4          5
     1  O    0.000000
     2  O    2.547783   0.000000
     3  O    2.621692   2.547837   0.000000
     4  O    2.621662   2.547795   2.621658   0.000000
     5  P    1.542466   1.752550   1.542474   1.542461   0.000000
     6  Ca   3.986281   2.380446   3.986087   2.254182   2.974617
     7  Ca   3.985899   2.380571   2.254120   3.986494   2.974618
     8  Ca   2.254170   2.380369   3.986194   3.986131   2.974582
                    6          7          8
     6  Ca   0.000000
     7  Ca   4.123085   0.000000
     8  Ca   4.122778   4.122300   0.000000
 Stoichiometry    Ca3O4P(1+)
 Framework group  C1[X(Ca3O4P)]
 Deg. of freedom    18
 Full point group                 C1
 Largest Abelian subgroup         C1      NOp   1
 Largest concise Abelian subgroup C1      NOp   1
                         Standard orientation:                         
 ---------------------------------------------------------------------
 Center     Atomic     Atomic              Coordinates (Angstroms)
 Number     Number      Type              X           Y           Z
 ---------------------------------------------------------------------
    1          8             0       -0.480156    1.435214   -1.361862
    2          8             0        0.000100    0.000050    0.687738
    3          8             0       -1.002620   -1.133891   -1.361702
    4          8             0        1.483485   -0.301802   -1.361582
    5         15             0        0.000210   -0.000130   -1.064812
    6         20             0        2.332522   -0.474633    0.719428
    7         20             0       -1.577713   -1.782263    0.719148
    8         20             0       -0.755290    2.257165    0.718998
 ---------------------------------------------------------------------
 Rotational constants (GHZ):      0.8592288      0.8590114      0.6403907
 Standard basis: 6-31+G(d,p) (6D, 7F)
 There are   180 symmetry adapted basis functions of A   symmetry.
 Integral buffers will be    131072 words long.
 Raffenetti 2 integral format.
 Two-electron integral symmetry is turned on.
   180 basis functions,   424 primitive gaussians,   180 cartesian basis functions
    53 alpha electrons       53 beta electrons
       nuclear repulsion energy       899.3383624426 Hartrees.
 NAtoms=    8 NActive=    8 NUniq=    8 SFac= 7.50D-01 NAtFMM=   80 NAOKFM=F Big=F
 One-electron integrals computed using PRISM.
 NBasis=   180 RedAO= T  NBF=   180
 NBsUse=   180 1.00D-06 NBFU=   180
 Harris functional with IExCor=  402 diagonalized for initial guess.
 ExpMin= 7.10D-03 ExpMax= 3.53D+04 ExpMxC= 5.30D+03 IAcc=3 IRadAn=         5 AccDes= 0.00D+00
 HarFok:  IExCor= 402 AccDes= 0.00D+00 IRadAn=         5 IDoV=1
 ScaDFX=  1.000000  1.000000  1.000000  1.000000
 Initial guess orbital symmetries:
       Occupied  (A) (A) (A) (A) (A) (A) (A) (A) (A) (A) (A) (A)
                 (A) (A) (A) (A) (A) (A) (A) (A) (A) (A) (A) (A)
                 (A) (A) (A) (A) (A) (A) (A) (A) (A) (A) (A) (A)
                 (A) (A) (A) (A) (A) (A) (A) (A) (A) (A) (A) (A)
                 (A) (A) (A) (A) (A)
       Virtual   (A) (A) (A) (A) (A) (A) (A) (A) (A) (A) (A) (A)
                 (A) (A) (A) (A) (A) (A) (A) (A) (A) (A) (A) (A)
                 (A) (A) (A) (A) (A) (A) (A) (A) (A) (A) (A) (A)
                 (A) (A) (A) (A) (A) (A) (A) (A) (A) (A) (A) (A)
                 (A) (A) (A) (A) (A) (A) (A) (A) (A) (A) (A) (A)
                 (A) (A) (A) (A) (A) (A) (A) (A) (A) (A) (A) (A)
                 (A) (A) (A) (A) (A) (A) (A) (A) (A) (A) (A) (A)
                 (A) (A) (A) (A) (A) (A) (A) (A) (A) (A) (A) (A)
                 (A) (A) (A) (A) (A) (A) (A) (A) (A) (A) (A) (A)
                 (A) (A) (A) (A) (A) (A) (A) (A) (A) (A) (A) (A)
                 (A) (A) (A) (A) (A) (A) (A)
 The electronic state of the initial guess is 1-A.
 Requested convergence on RMS density matrix=1.00D-04 within 128 cycles.
 Requested convergence on MAX density matrix=1.00D-02.
 Requested convergence on             energy=1.00D-02.
 No special actions if energy rises.
 SCF Done:  E(RB+HF-LYP) =  -2675.01212797     A.U. after   10 cycles
             Convg  =    0.3789D-04             -V/T =  2.0027
             S**2   =   0.0000

 **********************************************************************

            Population analysis using the SCF density.

 **********************************************************************

 Orbital symmetries:
       Occupied  (A) (A) (A) (A) (A) (A) (A) (A) (A) (A) (A) (A)
                 (A) (A) (A) (A) (A) (A) (A) (A) (A) (A) (A) (A)
                 (A) (A) (A) (A) (A) (A) (A) (A) (A) (A) (A) (A)
                 (A) (A) (A) (A) (A) (A) (A) (A) (A) (A) (A) (A)
                 (A) (A) (A) (A) (A)
       Virtual   (A) (A) (A) (A) (A) (A) (A) (A) (A) (A) (A) (A)
                 (A) (A) (A) (A) (A) (A) (A) (A) (A) (A) (A) (A)
                 (A) (A) (A) (A) (A) (A) (A) (A) (A) (A) (A) (A)
                 (A) (A) (A) (A) (A) (A) (A) (A) (A) (A) (A) (A)
                 (A) (A) (A) (A) (A) (A) (A) (A) (A) (A) (A) (A)
                 (A) (A) (A) (A) (A) (A) (A) (A) (A) (A) (A) (A)
                 (A) (A) (A) (A) (A) (A) (A) (A) (A) (A) (A) (A)
                 (A) (A) (A) (A) (A) (A) (A) (A) (A) (A) (A) (A)
                 (A) (A) (A) (A) (A) (A) (A) (A) (A) (A) (A) (A)
                 (A) (A) (A) (A) (A) (A) (A) (A) (A) (A) (A) (A)
                 (A) (A) (A) (A) (A) (A) (A)
 The electronic state is 1-A.
 Alpha  occ. eigenvalues -- -145.53742-145.53731-145.53726 -77.32319 -19.26065
 Alpha  occ. eigenvalues --  -19.22408 -19.22397 -19.22381 -15.60636 -15.60625
 Alpha  occ. eigenvalues --  -15.60620 -12.73862 -12.73851 -12.73847 -12.73797
 Alpha  occ. eigenvalues --  -12.73786 -12.73782 -12.73742 -12.73731 -12.73727
 Alpha  occ. eigenvalues --   -6.76688  -4.93231  -4.92932  -4.92932  -1.97696
 Alpha  occ. eigenvalues --   -1.97684  -1.97679  -1.25656  -1.25314  -1.25305
 Alpha  occ. eigenvalues --   -1.25269  -1.25024  -1.25017  -1.24990  -1.24907
 Alpha  occ. eigenvalues --   -1.24900  -1.13300  -1.04681  -1.04675  -1.04453
 Alpha  occ. eigenvalues --   -0.63472  -0.55544  -0.53613  -0.53611  -0.47934
 Alpha  occ. eigenvalues --   -0.47932  -0.43438  -0.43436  -0.42225  -0.40366
 Alpha  occ. eigenvalues --   -0.40362  -0.37473  -0.26992
 Alpha virt. eigenvalues --   -0.22176  -0.22172  -0.15986  -0.15984  -0.14865
 Alpha virt. eigenvalues --   -0.12675  -0.11775  -0.11773  -0.11231  -0.08615
 Alpha virt. eigenvalues --   -0.08613  -0.07723  -0.05590  -0.05588  -0.05429
 Alpha virt. eigenvalues --   -0.05327  -0.05326  -0.05026  -0.04312  -0.04311
 Alpha virt. eigenvalues --   -0.03643  -0.03425  -0.03425  -0.03216  -0.02597
 Alpha virt. eigenvalues --   -0.01509  -0.01508  -0.00212   0.00158   0.00161
 Alpha virt. eigenvalues --    0.00326   0.02754   0.03250   0.03252   0.03904
 Alpha virt. eigenvalues --    0.03905   0.04416   0.04418   0.04866   0.05142
 Alpha virt. eigenvalues --    0.06361   0.06363   0.06387   0.06723   0.06725
 Alpha virt. eigenvalues --    0.07578   0.07580   0.07726   0.09379   0.09380
 Alpha virt. eigenvalues --    0.09927   0.12923   0.13787   0.17751   0.17752
 Alpha virt. eigenvalues --    0.18544   0.19366   0.19370   0.20716   0.22509
 Alpha virt. eigenvalues --    0.22510   0.24092   0.24426   0.26209   0.27128
 Alpha virt. eigenvalues --    0.27132   0.29204   0.29205   0.33368   0.36142
 Alpha virt. eigenvalues --    0.36672   0.36675   0.47381   0.47387   0.53783
 Alpha virt. eigenvalues --    0.53785   0.56319   0.60302   0.60305   0.71131
 Alpha virt. eigenvalues --    0.77816   0.77824   0.81135   0.90369   0.97679
 Alpha virt. eigenvalues --    0.97680   1.15130   1.15829   1.15832   1.19235
 Alpha virt. eigenvalues --    1.19238   1.20342   1.22487   1.22495   1.25222
 Alpha virt. eigenvalues --    1.25223   1.25315   1.26623   1.48794   1.48795
 Alpha virt. eigenvalues --    1.52022   1.67599   1.69803   1.69804   1.70942
 Alpha virt. eigenvalues --    1.72433   1.72437   1.72934   1.80884   1.80887
 Alpha virt. eigenvalues --    1.85860   1.86311   1.86319   1.95066   2.02866
 Alpha virt. eigenvalues --    2.02870   2.20402   2.20404   2.33913   2.66366
 Alpha virt. eigenvalues --    2.75957   2.75960   3.46504   4.03221   4.03226
 Alpha virt. eigenvalues --    4.03280   4.15604
          Condensed to atoms (all electrons):
              1          2          3          4          5          6
     1  O    8.978383   0.099398  -0.049521  -0.049527  -0.094760  -0.057541
     2  O    0.099398   9.675837   0.099416   0.099397  -0.421721  -0.146519
     3  O   -0.049521   0.099416   8.978187  -0.049527  -0.094766  -0.057595
     4  O   -0.049527   0.099397  -0.049527   8.978600  -0.094949   0.004893
     5  P   -0.094760  -0.421721  -0.094766  -0.094949  13.488771   0.287678
     6  Ca  -0.057541  -0.146519  -0.057595   0.004893   0.287678  18.703878
     7  Ca  -0.057664  -0.146832   0.004679  -0.057608   0.288090   0.119215
     8  Ca   0.004857  -0.146601  -0.057602  -0.057601   0.287777   0.119096
              7          8
     1  O   -0.057664   0.004857
     2  O   -0.146832  -0.146601
     3  O    0.004679  -0.057602
     4  O   -0.057608  -0.057601
     5  P    0.288090   0.287777
     6  Ca   0.119215   0.119096
     7  Ca  18.705385   0.119345
     8  Ca   0.119345  18.703947
 Mulliken atomic charges:
              1
     1  O   -0.773625
     2  O   -1.112373
     3  O   -0.773270
     4  O   -0.773678
     5  P    1.353879
     6  Ca   1.026895
     7  Ca   1.025389
     8  Ca   1.026782
 Sum of Mulliken charges=   1.00000
 Atomic charges with hydrogens summed into heavy atoms:
              1
     1  O   -0.773625
     2  O   -1.112373
     3  O   -0.773270
     4  O   -0.773678
     5  P    1.353879
     6  Ca   1.026895
     7  Ca   1.025389
     8  Ca   1.026782
 Sum of Mulliken charges=   1.00000
 Electronic spatial extent (au):  <R**2>=  1893.0336
 Charge=     1.0000 electrons
 Dipole moment (field-independent basis, Debye):
    X=     0.0098    Y=     0.0177    Z=    10.6813  Tot=    10.6814
 Quadrupole moment (field-independent basis, Debye-Ang):
   XX=   -46.5168   YY=   -46.5315   ZZ=   -93.5737
   XY=    -0.0145   XZ=     0.0245   YZ=     0.0202
 Traceless Quadrupole moment (field-independent basis, Debye-Ang):
   XX=    15.6905   YY=    15.6758   ZZ=   -31.3663
   XY=    -0.0145   XZ=     0.0245   YZ=     0.0202
 Octapole moment (field-independent basis, Debye-Ang**2):
  XXX=    43.9638  YYY=    30.3204  ZZZ=   -14.8215  XYY=   -43.8024
  XXY=   -30.1025  XXZ=    30.2987  XZZ=     0.0456  YZZ=     0.0445
  YYZ=    30.2851  XYZ=    -0.0235
 Hexadecapole moment (field-independent basis, Debye-Ang**3):
 XXXX=  -782.5173 YYYY=  -782.2749 ZZZZ=  -697.9272 XXXY=    -0.0910
 XXXZ=    36.7475 YYYX=    -0.1664 YYYZ=    25.2989 ZZZX=     0.1106
 ZZZY=     0.1196 XXYY=  -260.8362 XXZZ=  -294.8494 YYZZ=  -294.8020
 XXYZ=   -25.0730 YYXZ=   -36.4870 ZZXY=    -0.0452
 N-N= 8.993383624426D+02 E-N=-8.118633794378D+03  KE= 2.667703669569D+03
 Merz-Kollman atomic radii used.
 Read replacement radii for each type of atom:
 Rad(20) =   1.188000000000D+00
 Atom Element Radius
    1     8    1.40
    2     8    1.40
    3     8    1.40
    4     8    1.40
    5    15    1.80
    6    20    1.19
    7    20    1.19
    8    20    1.19

 **********************************************************************

            Electrostatic Properties Using The SCF Density

 **********************************************************************

       Atomic Center    1 is at  -0.480156  1.435214 -1.361862
       Atomic Center    2 is at   0.000100  0.000050  0.687738
       Atomic Center    3 is at  -1.002620 -1.133891 -1.361702
       Atomic Center    4 is at   1.483485 -0.301802 -1.361582
       Atomic Center    5 is at   0.000210 -0.000130 -1.064812
       Atomic Center    6 is at   2.332522 -0.474633  0.719428
       Atomic Center    7 is at  -1.577713 -1.782263  0.719148
       Atomic Center    8 is at  -0.755290  2.257165  0.718998
     672 points will be used for fitting atomic charges
 Fitting point charges to eletrostatic potential
 Charges from ESP fit, RMS=   0.02421 RRMS=   0.13912:
 Charge=   1.00000 Dipole=     0.0511    -0.0664    14.8553 Tot=    14.8556
              1
     1  O   -0.940340
     2  O   -1.523479
     3  O   -0.919336
     4  O   -0.928285
     5  P    1.948318
     6  Ca   1.124354
     7  Ca   1.115532
     8  Ca   1.123238
 -----------------------------------------------------------------

              Electrostatic Properties (Atomic Units)

 -----------------------------------------------------------------
    Center     Electric         -------- Electric Field --------
               Potential          X             Y             Z
 -----------------------------------------------------------------
    1 Atom    -22.240980
    2 Atom    -22.205618
    3 Atom    -22.240600
    4 Atom    -22.241179
    5 Atom    -53.882636
    6 Atom    -80.004758
    7 Atom    -80.005048
    8 Atom    -80.004717
 -----------------------------------------------------------------
 1\1\GINC-N034\SP\RB3LYP\6-31+G(d,p)\Ca3O4P1(1+)\TIMN\12-Jun-2015\0\\# 
 b3lyp/6-31+G(d,p) int=ultrafine pop=(ReadRadii,MK)\\Ca3PO4_27.mol2c_pl
 usQ.z51438.zip.xyz\\1,1\O,0,0.47828,1.43584,1.36186\O,0,-0.0001,0.0000
 5,-0.68774\O,0,1.0041,-1.13258,1.3617\O,0,-1.48309,-0.30374,1.36158\P,
 0,-0.00021,-0.00013,1.06481\Ca,0,-2.3319,-0.47768,-0.71943\Ca,0,1.5800
 4,-1.7802,-0.71915\Ca,0,0.75234,2.25815,-0.719\\Version=EM64T-G03RevE.
 01\State=1-A\HF=-2675.012128\RMSD=3.789e-05\Thermal=0.\Dipole=-0.00384
 54,0.0069561,-4.202366\PG=C01 [X(Ca3O4P1)]\\@


 A politician is a person who can make waves and then
 make you think he's the only one who can save the ship.
 -- Ivern Ball
 Job cpu time:  0 days  0 hours  2 minutes  1.0 seconds.
 File lengths (MBytes):  RWF=     32 Int=      0 D2E=      0 Chk=     11 Scr=      1
 Normal termination of Gaussian 03 at Fri Jun 12 17:42:59 2015.
