 Entering Gaussian System, Link 0=/home/timn/tmp/g03.e01/g03
 Input=Ca3PO4_85.mol2c_plusQ.z51502.zip.xyz.gjf
 Output=Ca3PO4_85.mol2c_plusQ.z51502.zip.xyz.out
 Initial command:
 /home/timn/tmp/g03.e01/l1.exe /home/timn/tmp/g03.e01/Gau-14126.inp -scrdir=/home/timn/tmp/g03.e01/
 Default is to use a total of   2 processors:
                                2 via shared-memory
                                1 via Linda
 Entering Link 1 = /home/timn/tmp/g03.e01/l1.exe PID=     14127.
  
 Copyright (c) 1988,1990,1992,1993,1995,1998,2003,2004,2007, Gaussian, Inc.
                  All Rights Reserved.
  
 This is the Gaussian(R) 03 program.  It is based on the
 the Gaussian(R) 98 system (copyright 1998, Gaussian, Inc.),
 the Gaussian(R) 94 system (copyright 1995, Gaussian, Inc.),
 the Gaussian 92(TM) system (copyright 1992, Gaussian, Inc.),
 the Gaussian 90(TM) system (copyright 1990, Gaussian, Inc.),
 the Gaussian 88(TM) system (copyright 1988, Gaussian, Inc.),
 the Gaussian 86(TM) system (copyright 1986, Carnegie Mellon
 University), and the Gaussian 82(TM) system (copyright 1983,
 Carnegie Mellon University). Gaussian is a federally registered
 trademark of Gaussian, Inc.
  
 This software contains proprietary and confidential information,
 including trade secrets, belonging to Gaussian, Inc.
  
 This software is provided under written license and may be
 used, copied, transmitted, or stored only in accord with that
 written license.
  
 The following legend is applicable only to US Government
 contracts under FAR:
  
                    RESTRICTED RIGHTS LEGEND
  
 Use, reproduction and disclosure by the US Government is
 subject to restrictions as set forth in subparagraphs (a)
 and (c) of the Commercial Computer Software - Restricted
 Rights clause in FAR 52.227-19.
  
 Gaussian, Inc.
 340 Quinnipiac St., Bldg. 40, Wallingford CT 06492
  
  
 ---------------------------------------------------------------
 Warning -- This program may not be used in any manner that
 competes with the business of Gaussian, Inc. or will provide
 assistance to any competitor of Gaussian, Inc.  The licensee
 of this program is prohibited from giving any competitor of
 Gaussian, Inc. access to this program.  By using this program,
 the user acknowledges that Gaussian, Inc. is engaged in the
 business of creating and licensing software in the field of
 computational chemistry and represents and warrants to the
 licensee that it is not a competitor of Gaussian, Inc. and that
 it will not use this program in any manner prohibited above.
 ---------------------------------------------------------------
  

 Cite this work as:
 Gaussian 03, Revision E.01,
 M. J. Frisch, G. W. Trucks, H. B. Schlegel, G. E. Scuseria, 
 M. A. Robb, J. R. Cheeseman, J. A. Montgomery, Jr., T. Vreven, 
 K. N. Kudin, J. C. Burant, J. M. Millam, S. S. Iyengar, J. Tomasi, 
 V. Barone, B. Mennucci, M. Cossi, G. Scalmani, N. Rega, 
 G. A. Petersson, H. Nakatsuji, M. Hada, M. Ehara, K. Toyota, 
 R. Fukuda, J. Hasegawa, M. Ishida, T. Nakajima, Y. Honda, O. Kitao, 
 H. Nakai, M. Klene, X. Li, J. E. Knox, H. P. Hratchian, J. B. Cross, 
 V. Bakken, C. Adamo, J. Jaramillo, R. Gomperts, R. E. Stratmann, 
 O. Yazyev, A. J. Austin, R. Cammi, C. Pomelli, J. W. Ochterski, 
 P. Y. Ayala, K. Morokuma, G. A. Voth, P. Salvador, J. J. Dannenberg, 
 V. G. Zakrzewski, S. Dapprich, A. D. Daniels, M. C. Strain, 
 O. Farkas, D. K. Malick, A. D. Rabuck, K. Raghavachari, 
 J. B. Foresman, J. V. Ortiz, Q. Cui, A. G. Baboul, S. Clifford, 
 J. Cioslowski, B. B. Stefanov, G. Liu, A. Liashenko, P. Piskorz, 
 I. Komaromi, R. L. Martin, D. J. Fox, T. Keith, M. A. Al-Laham, 
 C. Y. Peng, A. Nanayakkara, M. Challacombe, P. M. W. Gill, 
 B. Johnson, W. Chen, M. W. Wong, C. Gonzalez, and J. A. Pople, 
 Gaussian, Inc., Wallingford CT, 2004.
 
 ******************************************
 Gaussian 03:  EM64T-G03RevE.01 11-Sep-2007
                12-Jun-2015 
 ******************************************
 %nproc=2
 Will use up to    2 processors via shared memory.
 Default route:  MP2=Direct MaxDisk=2000MB
 ----------------------------------------------------
 # b3lyp/6-31+G(d,p) int=ultrafine pop=(ReadRadii,MK)
 ----------------------------------------------------

 Warning!  SCF SP cutoffs with diffuse functions may be unreliable.
 Consider SCF=Tight

 1/38=1/1;
 2/17=6,18=5,40=1/2;
 3/5=1,6=6,7=111,11=2,16=1,25=1,30=1,74=-5,75=5/1,2,3;
 4//1;
 5/5=2,32=1,38=5/2;
 6/7=2,8=2,9=2,10=2,15=8,20=101,28=1/1,2;
 99/5=1,9=1/99;
 ------------------------------------
 Ca3PO4_85.mol2c_plusQ.z51502.zip.xyz
 ------------------------------------
 Symbolic Z-matrix:
 Charge =  1 Multiplicity = 1
 O                     1.2698    0.91204   0.42595 
 O                    -2.86781   0.98549  -0.47725 
 O                    -0.58397  -0.82651   0.34462 
 O                     1.93633  -1.51236   0.04383 
 P                     0.9012   -0.71981   0.97507 
 Ca                   -2.69141  -1.12648  -0.39416 
 Ca                   -0.94228   1.6336    0.24878 
 Ca                    3.05605   0.20927  -0.72078 
 
                          Input orientation:                          
 ---------------------------------------------------------------------
 Center     Atomic     Atomic              Coordinates (Angstroms)
 Number     Number      Type              X           Y           Z
 ---------------------------------------------------------------------
    1          8             0        1.269800    0.912040    0.425950
    2          8             0       -2.867810    0.985490   -0.477250
    3          8             0       -0.583970   -0.826510    0.344620
    4          8             0        1.936330   -1.512360    0.043830
    5         15             0        0.901200   -0.719810    0.975070
    6         20             0       -2.691410   -1.126480   -0.394160
    7         20             0       -0.942280    1.633600    0.248780
    8         20             0        3.056050    0.209270   -0.720780
 ---------------------------------------------------------------------
                    Distance matrix (angstroms):
                    1          2          3          4          5
     1  O    0.000000
     2  O    4.235680   0.000000
     3  O    2.542761   3.028983   0.000000
     4  O    2.543225   5.439719   2.629216   0.000000
     5  P    1.760776   4.384372   1.616967   1.602135   0.000000
     6  Ca   4.529827   2.120952   2.253238   4.664410   3.866137
     7  Ca   2.333524   2.157506   2.487913   4.269129   3.076435
     8  Ca   2.235971   5.979460   3.931623   2.191440   2.895250
                    6          7          8
     6  Ca   0.000000
     7  Ca   3.330296   0.000000
     8  Ca   5.909670   4.353781   0.000000
 Stoichiometry    Ca3O4P(1+)
 Framework group  C1[X(Ca3O4P)]
 Deg. of freedom    18
 Full point group                 C1
 Largest Abelian subgroup         C1      NOp   1
 Largest concise Abelian subgroup C1      NOp   1
                         Standard orientation:                         
 ---------------------------------------------------------------------
 Center     Atomic     Atomic              Coordinates (Angstroms)
 Number     Number      Type              X           Y           Z
 ---------------------------------------------------------------------
    1          8             0        1.269799    0.912042    0.425950
    2          8             0       -2.867811    0.985488   -0.477250
    3          8             0       -0.583969   -0.826510    0.344620
    4          8             0        1.936331   -1.512358    0.043830
    5         15             0        0.901201   -0.719809    0.975070
    6         20             0       -2.691409   -1.126481   -0.394160
    7         20             0       -0.942281    1.633600    0.248780
    8         20             0        3.056050    0.209273   -0.720780
 ---------------------------------------------------------------------
 Rotational constants (GHZ):      1.5849359      0.4986652      0.4219902
 Standard basis: 6-31+G(d,p) (6D, 7F)
 There are   180 symmetry adapted basis functions of A   symmetry.
 Integral buffers will be    131072 words long.
 Raffenetti 2 integral format.
 Two-electron integral symmetry is turned on.
   180 basis functions,   424 primitive gaussians,   180 cartesian basis functions
    53 alpha electrons       53 beta electrons
       nuclear repulsion energy       845.7959313087 Hartrees.
 NAtoms=    8 NActive=    8 NUniq=    8 SFac= 7.50D-01 NAtFMM=   80 NAOKFM=F Big=F
 One-electron integrals computed using PRISM.
 NBasis=   180 RedAO= T  NBF=   180
 NBsUse=   180 1.00D-06 NBFU=   180
 Harris functional with IExCor=  402 diagonalized for initial guess.
 ExpMin= 7.10D-03 ExpMax= 3.53D+04 ExpMxC= 5.30D+03 IAcc=3 IRadAn=         5 AccDes= 0.00D+00
 HarFok:  IExCor= 402 AccDes= 0.00D+00 IRadAn=         5 IDoV=1
 ScaDFX=  1.000000  1.000000  1.000000  1.000000
 Initial guess orbital symmetries:
       Occupied  (A) (A) (A) (A) (A) (A) (A) (A) (A) (A) (A) (A)
                 (A) (A) (A) (A) (A) (A) (A) (A) (A) (A) (A) (A)
                 (A) (A) (A) (A) (A) (A) (A) (A) (A) (A) (A) (A)
                 (A) (A) (A) (A) (A) (A) (A) (A) (A) (A) (A) (A)
                 (A) (A) (A) (A) (A)
       Virtual   (A) (A) (A) (A) (A) (A) (A) (A) (A) (A) (A) (A)
                 (A) (A) (A) (A) (A) (A) (A) (A) (A) (A) (A) (A)
                 (A) (A) (A) (A) (A) (A) (A) (A) (A) (A) (A) (A)
                 (A) (A) (A) (A) (A) (A) (A) (A) (A) (A) (A) (A)
                 (A) (A) (A) (A) (A) (A) (A) (A) (A) (A) (A) (A)
                 (A) (A) (A) (A) (A) (A) (A) (A) (A) (A) (A) (A)
                 (A) (A) (A) (A) (A) (A) (A) (A) (A) (A) (A) (A)
                 (A) (A) (A) (A) (A) (A) (A) (A) (A) (A) (A) (A)
                 (A) (A) (A) (A) (A) (A) (A) (A) (A) (A) (A) (A)
                 (A) (A) (A) (A) (A) (A) (A) (A) (A) (A) (A) (A)
                 (A) (A) (A) (A) (A) (A) (A)
 The electronic state of the initial guess is 1-A.
 Requested convergence on RMS density matrix=1.00D-04 within 128 cycles.
 Requested convergence on MAX density matrix=1.00D-02.
 Requested convergence on             energy=1.00D-02.
 No special actions if energy rises.
 SCF Done:  E(RB+HF-LYP) =  -2674.99497581     A.U. after    9 cycles
             Convg  =    0.7440D-04             -V/T =  2.0028
             S**2   =   0.0000

 **********************************************************************

            Population analysis using the SCF density.

 **********************************************************************

 Orbital symmetries:
       Occupied  (A) (A) (A) (A) (A) (A) (A) (A) (A) (A) (A) (A)
                 (A) (A) (A) (A) (A) (A) (A) (A) (A) (A) (A) (A)
                 (A) (A) (A) (A) (A) (A) (A) (A) (A) (A) (A) (A)
                 (A) (A) (A) (A) (A) (A) (A) (A) (A) (A) (A) (A)
                 (A) (A) (A) (A) (A)
       Virtual   (A) (A) (A) (A) (A) (A) (A) (A) (A) (A) (A) (A)
                 (A) (A) (A) (A) (A) (A) (A) (A) (A) (A) (A) (A)
                 (A) (A) (A) (A) (A) (A) (A) (A) (A) (A) (A) (A)
                 (A) (A) (A) (A) (A) (A) (A) (A) (A) (A) (A) (A)
                 (A) (A) (A) (A) (A) (A) (A) (A) (A) (A) (A) (A)
                 (A) (A) (A) (A) (A) (A) (A) (A) (A) (A) (A) (A)
                 (A) (A) (A) (A) (A) (A) (A) (A) (A) (A) (A) (A)
                 (A) (A) (A) (A) (A) (A) (A) (A) (A) (A) (A) (A)
                 (A) (A) (A) (A) (A) (A) (A) (A) (A) (A) (A) (A)
                 (A) (A) (A) (A) (A) (A) (A) (A) (A) (A) (A) (A)
                 (A) (A) (A) (A) (A) (A) (A)
 The electronic state is 1-A.
 Alpha  occ. eigenvalues -- -145.54313-145.48571-145.45754 -77.24721 -19.21989
 Alpha  occ. eigenvalues --  -19.21595 -19.20158 -19.10636 -15.61174 -15.55414
 Alpha  occ. eigenvalues --  -15.52723 -12.74404 -12.74311 -12.74304 -12.68655
 Alpha  occ. eigenvalues --  -12.68576 -12.68506 -12.65983 -12.65933 -12.65736
 Alpha  occ. eigenvalues --   -6.69760  -4.86169  -4.86089  -4.85588  -1.98284
 Alpha  occ. eigenvalues --   -1.92620  -1.90128  -1.25953  -1.25785  -1.25425
 Alpha  occ. eigenvalues --   -1.20409  -1.20269  -1.19550  -1.18136  -1.17937
 Alpha  occ. eigenvalues --   -1.16946  -1.07022  -1.01224  -0.99678  -0.84842
 Alpha  occ. eigenvalues --   -0.62360  -0.51021  -0.50162  -0.47524  -0.44193
 Alpha  occ. eigenvalues --   -0.41665  -0.38710  -0.37896  -0.37639  -0.30575
 Alpha  occ. eigenvalues --   -0.30456  -0.29023  -0.28542
 Alpha virt. eigenvalues --   -0.22180  -0.18253  -0.15629  -0.13737  -0.12732
 Alpha virt. eigenvalues --   -0.10820  -0.09951  -0.09061  -0.08489  -0.08234
 Alpha virt. eigenvalues --   -0.07264  -0.06107  -0.05854  -0.05241  -0.05145
 Alpha virt. eigenvalues --   -0.04928  -0.04514  -0.04311  -0.04026  -0.03813
 Alpha virt. eigenvalues --   -0.03499  -0.03401  -0.03201  -0.02891  -0.02455
 Alpha virt. eigenvalues --   -0.01524  -0.00817   0.00399   0.00831   0.01605
 Alpha virt. eigenvalues --    0.02998   0.03072   0.03766   0.04222   0.04739
 Alpha virt. eigenvalues --    0.04822   0.05229   0.05830   0.06768   0.07329
 Alpha virt. eigenvalues --    0.07553   0.07992   0.08514   0.09537   0.09769
 Alpha virt. eigenvalues --    0.10474   0.10599   0.11519   0.12376   0.13478
 Alpha virt. eigenvalues --    0.14514   0.16228   0.16402   0.17331   0.19207
 Alpha virt. eigenvalues --    0.20487   0.21748   0.22618   0.22770   0.24377
 Alpha virt. eigenvalues --    0.25064   0.25830   0.27801   0.29170   0.30220
 Alpha virt. eigenvalues --    0.32556   0.33339   0.35827   0.37477   0.38656
 Alpha virt. eigenvalues --    0.39738   0.41444   0.42318   0.44630   0.46940
 Alpha virt. eigenvalues --    0.53036   0.61168   0.64439   0.65646   0.67898
 Alpha virt. eigenvalues --    0.70877   0.83373   0.88606   0.89916   0.96782
 Alpha virt. eigenvalues --    1.07851   1.14100   1.15939   1.17533   1.18422
 Alpha virt. eigenvalues --    1.18455   1.20329   1.21945   1.23349   1.24258
 Alpha virt. eigenvalues --    1.26485   1.30384   1.34329   1.48213   1.52055
 Alpha virt. eigenvalues --    1.55245   1.66326   1.71389   1.73731   1.76242
 Alpha virt. eigenvalues --    1.76883   1.78507   1.81091   1.82887   1.86431
 Alpha virt. eigenvalues --    1.87277   1.88130   1.90004   1.93383   1.96995
 Alpha virt. eigenvalues --    1.98643   2.00372   2.07183   2.07873   2.32666
 Alpha virt. eigenvalues --    2.57649   2.66726   3.52685   3.98960   3.99947
 Alpha virt. eigenvalues --    4.03607   4.10766
          Condensed to atoms (all electrons):
              1          2          3          4          5          6
     1  O    9.120289  -0.001213   0.026389   0.010964  -0.264938  -0.001786
     2  O   -0.001213   8.711936  -0.013275   0.000554  -0.013359   0.226387
     3  O    0.026389  -0.013275   9.357782   0.090814  -0.586134   0.045175
     4  O    0.010964   0.000554   0.090814   8.837150  -0.243902  -0.002923
     5  P   -0.264938  -0.013359  -0.586134  -0.243902  15.261288   0.028983
     6  Ca  -0.001786   0.226387   0.045175  -0.002923   0.028983  18.350651
     7  Ca   0.085894   0.229712   0.063797   0.024549  -0.116399  -0.030180
     8  Ca   0.086194  -0.002534   0.025290   0.143073   0.043600   0.006924
              7          8
     1  O    0.085894   0.086194
     2  O    0.229712  -0.002534
     3  O    0.063797   0.025290
     4  O    0.024549   0.143073
     5  P   -0.116399   0.043600
     6  Ca  -0.030180   0.006924
     7  Ca  18.363381  -0.017407
     8  Ca  -0.017407  18.309022
 Mulliken atomic charges:
              1
     1  O   -1.061794
     2  O   -1.138207
     3  O   -1.009839
     4  O   -0.860280
     5  P    0.890860
     6  Ca   1.376769
     7  Ca   1.396653
     8  Ca   1.405838
 Sum of Mulliken charges=   1.00000
 Atomic charges with hydrogens summed into heavy atoms:
              1
     1  O   -1.061794
     2  O   -1.138207
     3  O   -1.009839
     4  O   -0.860280
     5  P    0.890860
     6  Ca   1.376769
     7  Ca   1.396653
     8  Ca   1.405838
 Sum of Mulliken charges=   1.00000
 Electronic spatial extent (au):  <R**2>=  2366.4068
 Charge=     1.0000 electrons
 Dipole moment (field-independent basis, Debye):
    X=     5.9104    Y=     1.2062    Z=    -4.9210  Tot=     7.7849
 Quadrupole moment (field-independent basis, Debye-Ang):
   XX=   -18.0912   YY=   -59.8839   ZZ=   -70.0537
   XY=    36.1755   XZ=   -19.6898   YZ=     7.3925
 Traceless Quadrupole moment (field-independent basis, Debye-Ang):
   XX=    31.2517   YY=   -10.5409   ZZ=   -20.7108
   XY=    36.1755   XZ=   -19.6898   YZ=     7.3925
 Octapole moment (field-independent basis, Debye-Ang**2):
  XXX=   188.9039  YYY=    33.4420  ZZZ=   -23.6743  XYY=   -47.8942
  XXY=   -75.5640  XXZ=   -52.4931  XZZ=    10.8754  YZZ=     1.3326
  YYZ=    -1.3966  XYZ=   -28.1785
 Hexadecapole moment (field-independent basis, Debye-Ang**3):
 XXXX= -1244.5234 YYYY=  -504.7946 ZZZZ=  -254.5329 XXXY=   458.5906
 XXXZ=  -206.8371 YYYX=    89.5460 YYYZ=    32.6138 ZZZX=   -56.5471
 ZZZY=    27.4585 XXYY=  -396.4960 XXZZ=  -313.8839 YYZZ=  -130.8435
 XXYZ=    46.5190 YYXZ=   -16.9228 ZZXY=    31.9570
 N-N= 8.457959313087D+02 E-N=-8.016712777104D+03  KE= 2.667644066227D+03
 Merz-Kollman atomic radii used.
 Read replacement radii for each type of atom:
 Rad(20) =   1.188000000000D+00
 Atom Element Radius
    1     8    1.40
    2     8    1.40
    3     8    1.40
    4     8    1.40
    5    15    1.80
    6    20    1.19
    7    20    1.19
    8    20    1.19

 **********************************************************************

            Electrostatic Properties Using The SCF Density

 **********************************************************************

       Atomic Center    1 is at   1.269799  0.912042  0.425950
       Atomic Center    2 is at  -2.867811  0.985488 -0.477250
       Atomic Center    3 is at  -0.583969 -0.826510  0.344620
       Atomic Center    4 is at   1.936331 -1.512358  0.043830
       Atomic Center    5 is at   0.901201 -0.719809  0.975070
       Atomic Center    6 is at  -2.691409 -1.126481 -0.394160
       Atomic Center    7 is at  -0.942281  1.633600  0.248780
       Atomic Center    8 is at   3.056050  0.209273 -0.720780
     757 points will be used for fitting atomic charges
 Fitting point charges to eletrostatic potential
 Charges from ESP fit, RMS=   0.00776 RRMS=   0.04919:
 Charge=   1.00000 Dipole=     6.0715     1.3040    -5.2458 Tot=     8.1291
              1
     1  O   -1.135957
     2  O   -1.520430
     3  O   -0.877603
     4  O   -0.710131
     5  P    0.362708
     6  Ca   1.615762
     7  Ca   1.688065
     8  Ca   1.577586
 -----------------------------------------------------------------

              Electrostatic Properties (Atomic Units)

 -----------------------------------------------------------------
    Center     Electric         -------- Electric Field --------
               Potential          X             Y             Z
 -----------------------------------------------------------------
    1 Atom    -22.247489
    2 Atom    -22.347717
    3 Atom    -22.254476
    4 Atom    -22.255816
    5 Atom    -53.969363
    6 Atom    -80.055450
    7 Atom    -80.083212
    8 Atom    -79.998162
 -----------------------------------------------------------------
 1\1\GINC-N035\SP\RB3LYP\6-31+G(d,p)\Ca3O4P1(1+)\TIMN\12-Jun-2015\0\\# 
 b3lyp/6-31+G(d,p) int=ultrafine pop=(ReadRadii,MK)\\Ca3PO4_85.mol2c_pl
 usQ.z51502.zip.xyz\\1,1\O,0,1.2698,0.91204,0.42595\O,0,-2.86781,0.9854
 9,-0.47725\O,0,-0.58397,-0.82651,0.34462\O,0,1.93633,-1.51236,0.04383\
 P,0,0.9012,-0.71981,0.97507\Ca,0,-2.69141,-1.12648,-0.39416\Ca,0,-0.94
 228,1.6336,0.24878\Ca,0,3.05605,0.20927,-0.72078\\Version=EM64T-G03Rev
 E.01\State=1-A\HF=-2674.9949758\RMSD=7.440e-05\Thermal=0.\Dipole=2.325
 3335,0.4745559,-1.9360856\PG=C01 [X(Ca3O4P1)]\\@


 ERROR IS A HARDY PLANT... IT FLOURISHETH IN EVERY SOIL.
            MARTIN FARQUHAR TUPPER
 Job cpu time:  0 days  0 hours  1 minutes 42.5 seconds.
 File lengths (MBytes):  RWF=     32 Int=      0 D2E=      0 Chk=     11 Scr=      1
 Normal termination of Gaussian 03 at Fri Jun 12 17:45:48 2015.
