 Entering Gaussian System, Link 0=/home/timn/tmp/g03.e01/g03
 Input=Ca3PO4_172.mol2_plusQ.z51179.zip.xyz.gjf
 Output=Ca3PO4_172.mol2_plusQ.z51179.zip.xyz.out
 Initial command:
 /home/timn/tmp/g03.e01/l1.exe /home/timn/tmp/g03.e01/Gau-16994.inp -scrdir=/home/timn/tmp/g03.e01/
 Default is to use a total of   2 processors:
                                2 via shared-memory
                                1 via Linda
 Entering Link 1 = /home/timn/tmp/g03.e01/l1.exe PID=     16995.
  
 Copyright (c) 1988,1990,1992,1993,1995,1998,2003,2004,2007, Gaussian, Inc.
                  All Rights Reserved.
  
 This is the Gaussian(R) 03 program.  It is based on the
 the Gaussian(R) 98 system (copyright 1998, Gaussian, Inc.),
 the Gaussian(R) 94 system (copyright 1995, Gaussian, Inc.),
 the Gaussian 92(TM) system (copyright 1992, Gaussian, Inc.),
 the Gaussian 90(TM) system (copyright 1990, Gaussian, Inc.),
 the Gaussian 88(TM) system (copyright 1988, Gaussian, Inc.),
 the Gaussian 86(TM) system (copyright 1986, Carnegie Mellon
 University), and the Gaussian 82(TM) system (copyright 1983,
 Carnegie Mellon University). Gaussian is a federally registered
 trademark of Gaussian, Inc.
  
 This software contains proprietary and confidential information,
 including trade secrets, belonging to Gaussian, Inc.
  
 This software is provided under written license and may be
 used, copied, transmitted, or stored only in accord with that
 written license.
  
 The following legend is applicable only to US Government
 contracts under FAR:
  
                    RESTRICTED RIGHTS LEGEND
  
 Use, reproduction and disclosure by the US Government is
 subject to restrictions as set forth in subparagraphs (a)
 and (c) of the Commercial Computer Software - Restricted
 Rights clause in FAR 52.227-19.
  
 Gaussian, Inc.
 340 Quinnipiac St., Bldg. 40, Wallingford CT 06492
  
  
 ---------------------------------------------------------------
 Warning -- This program may not be used in any manner that
 competes with the business of Gaussian, Inc. or will provide
 assistance to any competitor of Gaussian, Inc.  The licensee
 of this program is prohibited from giving any competitor of
 Gaussian, Inc. access to this program.  By using this program,
 the user acknowledges that Gaussian, Inc. is engaged in the
 business of creating and licensing software in the field of
 computational chemistry and represents and warrants to the
 licensee that it is not a competitor of Gaussian, Inc. and that
 it will not use this program in any manner prohibited above.
 ---------------------------------------------------------------
  

 Cite this work as:
 Gaussian 03, Revision E.01,
 M. J. Frisch, G. W. Trucks, H. B. Schlegel, G. E. Scuseria, 
 M. A. Robb, J. R. Cheeseman, J. A. Montgomery, Jr., T. Vreven, 
 K. N. Kudin, J. C. Burant, J. M. Millam, S. S. Iyengar, J. Tomasi, 
 V. Barone, B. Mennucci, M. Cossi, G. Scalmani, N. Rega, 
 G. A. Petersson, H. Nakatsuji, M. Hada, M. Ehara, K. Toyota, 
 R. Fukuda, J. Hasegawa, M. Ishida, T. Nakajima, Y. Honda, O. Kitao, 
 H. Nakai, M. Klene, X. Li, J. E. Knox, H. P. Hratchian, J. B. Cross, 
 V. Bakken, C. Adamo, J. Jaramillo, R. Gomperts, R. E. Stratmann, 
 O. Yazyev, A. J. Austin, R. Cammi, C. Pomelli, J. W. Ochterski, 
 P. Y. Ayala, K. Morokuma, G. A. Voth, P. Salvador, J. J. Dannenberg, 
 V. G. Zakrzewski, S. Dapprich, A. D. Daniels, M. C. Strain, 
 O. Farkas, D. K. Malick, A. D. Rabuck, K. Raghavachari, 
 J. B. Foresman, J. V. Ortiz, Q. Cui, A. G. Baboul, S. Clifford, 
 J. Cioslowski, B. B. Stefanov, G. Liu, A. Liashenko, P. Piskorz, 
 I. Komaromi, R. L. Martin, D. J. Fox, T. Keith, M. A. Al-Laham, 
 C. Y. Peng, A. Nanayakkara, M. Challacombe, P. M. W. Gill, 
 B. Johnson, W. Chen, M. W. Wong, C. Gonzalez, and J. A. Pople, 
 Gaussian, Inc., Wallingford CT, 2004.
 
 ******************************************
 Gaussian 03:  EM64T-G03RevE.01 11-Sep-2007
                12-Jun-2015 
 ******************************************
 %nproc=2
 Will use up to    2 processors via shared memory.
 Default route:  MP2=Direct MaxDisk=2000MB
 ----------------------------------------------------
 # b3lyp/6-31+G(d,p) int=ultrafine pop=(ReadRadii,MK)
 ----------------------------------------------------

 Warning!  SCF SP cutoffs with diffuse functions may be unreliable.
 Consider SCF=Tight

 1/38=1/1;
 2/17=6,18=5,40=1/2;
 3/5=1,6=6,7=111,11=2,16=1,25=1,30=1,74=-5,75=5/1,2,3;
 4//1;
 5/5=2,32=1,38=5/2;
 6/7=2,8=2,9=2,10=2,15=8,20=101,28=1/1,2;
 99/5=1,9=1/99;
 ------------------------------------
 Ca3PO4_172.mol2_plusQ.z51179.zip.xyz
 ------------------------------------
 Symbolic Z-matrix:
 Charge =  1 Multiplicity = 1
 O                     1.31407   0.68298   0.92248 
 O                    -1.24866   0.79623   0.92263 
 O                    -0.06515  -1.47905   0.92255 
 O                    -0.00008   0.00014  -1.71195 
 P                     0.00008  -0.00005   1.71832 
 Ca                    0.08577   1.94353  -0.57033 
 Ca                   -1.72662  -0.89756  -0.57027 
 Ca                    1.64072  -1.04605  -0.57042 
 
                          Input orientation:                          
 ---------------------------------------------------------------------
 Center     Atomic     Atomic              Coordinates (Angstroms)
 Number     Number      Type              X           Y           Z
 ---------------------------------------------------------------------
    1          8             0        1.314070    0.682980    0.922480
    2          8             0       -1.248660    0.796230    0.922630
    3          8             0       -0.065150   -1.479050    0.922550
    4          8             0       -0.000080    0.000140   -1.711950
    5         15             0        0.000080   -0.000050    1.718320
    6         20             0        0.085770    1.943530   -0.570330
    7         20             0       -1.726620   -0.897560   -0.570270
    8         20             0        1.640720   -1.046050   -0.570420
 ---------------------------------------------------------------------
                    Distance matrix (angstroms):
                    1          2          3          4          5
     1  O    0.000000
     2  O    2.565231   0.000000
     3  O    2.564492   2.564682   0.000000
     4  O    3.022165   3.022205   3.022057   0.000000
     5  P    1.681208   1.681231   1.680758   3.430270   0.000000
     6  Ca   2.307854   2.307798   3.737047   2.255533   3.003792
     7  Ca   3.737941   2.307839   2.308056   2.256156   3.004107
     8  Ca   2.307595   3.737875   2.307908   2.256065   3.004022
                    6          7          8
     6  Ca   0.000000
     7  Ca   3.369948   0.000000
     8  Ca   3.369786   3.370612   0.000000
 Stoichiometry    Ca3O4P(1+)
 Framework group  C1[X(Ca3O4P)]
 Deg. of freedom    18
 Full point group                 C1
 Largest Abelian subgroup         C1      NOp   1
 Largest concise Abelian subgroup C1      NOp   1
                         Standard orientation:                         
 ---------------------------------------------------------------------
 Center     Atomic     Atomic              Coordinates (Angstroms)
 Number     Number      Type              X           Y           Z
 ---------------------------------------------------------------------
    1          8             0        1.316582    0.678124    0.922479
    2          8             0       -1.245713    0.800833    0.922629
    3          8             0       -0.070610   -1.478800    0.922549
    4          8             0       -0.000080    0.000140   -1.711951
    5         15             0        0.000079   -0.000051    1.718319
    6         20             0        0.092943    1.943200   -0.570331
    7         20             0       -1.729922   -0.891181   -0.570271
    8         20             0        1.636847   -1.052100   -0.570421
 ---------------------------------------------------------------------
 Rotational constants (GHZ):      1.0155910      1.0152445      0.9039150
 Standard basis: 6-31+G(d,p) (6D, 7F)
 There are   180 symmetry adapted basis functions of A   symmetry.
 Integral buffers will be    131072 words long.
 Raffenetti 2 integral format.
 Two-electron integral symmetry is turned on.
   180 basis functions,   424 primitive gaussians,   180 cartesian basis functions
    53 alpha electrons       53 beta electrons
       nuclear repulsion energy       952.7137077829 Hartrees.
 NAtoms=    8 NActive=    8 NUniq=    8 SFac= 7.50D-01 NAtFMM=   80 NAOKFM=F Big=F
 One-electron integrals computed using PRISM.
 NBasis=   180 RedAO= T  NBF=   180
 NBsUse=   180 1.00D-06 NBFU=   180
 Harris functional with IExCor=  402 diagonalized for initial guess.
 ExpMin= 7.10D-03 ExpMax= 3.53D+04 ExpMxC= 5.30D+03 IAcc=3 IRadAn=         5 AccDes= 0.00D+00
 HarFok:  IExCor= 402 AccDes= 0.00D+00 IRadAn=         5 IDoV=1
 ScaDFX=  1.000000  1.000000  1.000000  1.000000
 Initial guess orbital symmetries:
       Occupied  (A) (A) (A) (A) (A) (A) (A) (A) (A) (A) (A) (A)
                 (A) (A) (A) (A) (A) (A) (A) (A) (A) (A) (A) (A)
                 (A) (A) (A) (A) (A) (A) (A) (A) (A) (A) (A) (A)
                 (A) (A) (A) (A) (A) (A) (A) (A) (A) (A) (A) (A)
                 (A) (A) (A) (A) (A)
       Virtual   (A) (A) (A) (A) (A) (A) (A) (A) (A) (A) (A) (A)
                 (A) (A) (A) (A) (A) (A) (A) (A) (A) (A) (A) (A)
                 (A) (A) (A) (A) (A) (A) (A) (A) (A) (A) (A) (A)
                 (A) (A) (A) (A) (A) (A) (A) (A) (A) (A) (A) (A)
                 (A) (A) (A) (A) (A) (A) (A) (A) (A) (A) (A) (A)
                 (A) (A) (A) (A) (A) (A) (A) (A) (A) (A) (A) (A)
                 (A) (A) (A) (A) (A) (A) (A) (A) (A) (A) (A) (A)
                 (A) (A) (A) (A) (A) (A) (A) (A) (A) (A) (A) (A)
                 (A) (A) (A) (A) (A) (A) (A) (A) (A) (A) (A) (A)
                 (A) (A) (A) (A) (A) (A) (A) (A) (A) (A) (A) (A)
                 (A) (A) (A) (A) (A) (A) (A)
 The electronic state of the initial guess is 1-A.
 Requested convergence on RMS density matrix=1.00D-04 within 128 cycles.
 Requested convergence on MAX density matrix=1.00D-02.
 Requested convergence on             energy=1.00D-02.
 No special actions if energy rises.
 SCF Done:  E(RB+HF-LYP) =  -2675.07103852     A.U. after    8 cycles
             Convg  =    0.8388D-04             -V/T =  2.0028
             S**2   =   0.0000

 **********************************************************************

            Population analysis using the SCF density.

 **********************************************************************

 Orbital symmetries:
       Occupied  (A) (A) (A) (A) (A) (A) (A) (A) (A) (A) (A) (A)
                 (A) (A) (A) (A) (A) (A) (A) (A) (A) (A) (A) (A)
                 (A) (A) (A) (A) (A) (A) (A) (A) (A) (A) (A) (A)
                 (A) (A) (A) (A) (A) (A) (A) (A) (A) (A) (A) (A)
                 (A) (A) (A) (A) (A)
       Virtual   (A) (A) (A) (A) (A) (A) (A) (A) (A) (A) (A) (A)
                 (A) (A) (A) (A) (A) (A) (A) (A) (A) (A) (A) (A)
                 (A) (A) (A) (A) (A) (A) (A) (A) (A) (A) (A) (A)
                 (A) (A) (A) (A) (A) (A) (A) (A) (A) (A) (A) (A)
                 (A) (A) (A) (A) (A) (A) (A) (A) (A) (A) (A) (A)
                 (A) (A) (A) (A) (A) (A) (A) (A) (A) (A) (A) (A)
                 (A) (A) (A) (A) (A) (A) (A) (A) (A) (A) (A) (A)
                 (A) (A) (A) (A) (A) (A) (A) (A) (A) (A) (A) (A)
                 (A) (A) (A) (A) (A) (A) (A) (A) (A) (A) (A) (A)
                 (A) (A) (A) (A) (A) (A) (A) (A) (A) (A) (A) (A)
                 (A) (A) (A) (A) (A) (A) (A)
 The electronic state is 1-A.
 Alpha  occ. eigenvalues -- -145.49645-145.49638-145.49630 -77.25055 -19.21231
 Alpha  occ. eigenvalues --  -19.21223 -19.21217 -19.15949 -15.56479 -15.56473
 Alpha  occ. eigenvalues --  -15.56466 -12.69677 -12.69672 -12.69665 -12.69654
 Alpha  occ. eigenvalues --  -12.69650 -12.69642 -12.69607 -12.69602 -12.69595
 Alpha  occ. eigenvalues --   -6.70085  -4.86434  -4.86434  -4.85897  -1.93825
 Alpha  occ. eigenvalues --   -1.93743  -1.93736  -1.22378  -1.21698  -1.21695
 Alpha  occ. eigenvalues --   -1.21308  -1.21140  -1.21067  -1.21063  -1.20646
 Alpha  occ. eigenvalues --   -1.20640  -1.06758  -1.00358  -1.00349  -0.90947
 Alpha  occ. eigenvalues --   -0.62642  -0.50527  -0.50525  -0.47960  -0.43358
 Alpha  occ. eigenvalues --   -0.43355  -0.38343  -0.38341  -0.38175  -0.36142
 Alpha  occ. eigenvalues --   -0.36142  -0.34598  -0.30861
 Alpha virt. eigenvalues --   -0.19951  -0.18029  -0.18025  -0.12556  -0.12554
 Alpha virt. eigenvalues --   -0.10894  -0.09479  -0.09477  -0.08338  -0.07773
 Alpha virt. eigenvalues --   -0.06545  -0.06115  -0.06114  -0.04765  -0.04716
 Alpha virt. eigenvalues --   -0.04715  -0.04673  -0.04474  -0.04472  -0.04003
 Alpha virt. eigenvalues --   -0.04003  -0.03232  -0.02943  -0.02942  -0.02358
 Alpha virt. eigenvalues --   -0.02357  -0.00866   0.01027   0.02175   0.02616
 Alpha virt. eigenvalues --    0.02617   0.04573   0.04575   0.05227   0.06002
 Alpha virt. eigenvalues --    0.06005   0.06293   0.06294   0.07290   0.07292
 Alpha virt. eigenvalues --    0.07382   0.07664   0.07665   0.07822   0.08464
 Alpha virt. eigenvalues --    0.10683   0.10688   0.11331   0.11804   0.13655
 Alpha virt. eigenvalues --    0.15678   0.15682   0.19891   0.19892   0.20366
 Alpha virt. eigenvalues --    0.22086   0.22087   0.23482   0.23992   0.25318
 Alpha virt. eigenvalues --    0.25958   0.25961   0.30033   0.31449   0.31452
 Alpha virt. eigenvalues --    0.35744   0.36000   0.36009   0.37867   0.39078
 Alpha virt. eigenvalues --    0.39085   0.39776   0.45825   0.45840   0.53628
 Alpha virt. eigenvalues --    0.53635   0.55848   0.63366   0.63369   0.67680
 Alpha virt. eigenvalues --    0.82893   0.86946   0.86962   0.94090   0.94115
 Alpha virt. eigenvalues --    1.14550   1.16752   1.16754   1.18030   1.20774
 Alpha virt. eigenvalues --    1.21972   1.21973   1.23402   1.23406   1.28211
 Alpha virt. eigenvalues --    1.34160   1.34174   1.36428   1.54460   1.54465
 Alpha virt. eigenvalues --    1.57774   1.68372   1.71622   1.73144   1.73146
 Alpha virt. eigenvalues --    1.77482   1.77483   1.87076   1.87364   1.87367
 Alpha virt. eigenvalues --    1.88069   1.92071   1.92078   1.93326   1.98430
 Alpha virt. eigenvalues --    1.98441   2.03010   2.03020   2.14773   2.38162
 Alpha virt. eigenvalues --    2.55124   2.55173   3.54376   4.05620   4.14277
 Alpha virt. eigenvalues --    4.14285   4.31212
          Condensed to atoms (all electrons):
              1          2          3          4          5          6
     1  O    8.965641   0.058600   0.058659   0.023971  -0.200643   0.059875
     2  O    0.058600   8.965771   0.058640   0.023976  -0.200681   0.059874
     3  O    0.058659   0.058640   8.966008   0.023972  -0.200836   0.006243
     4  O    0.023971   0.023976   0.023972   8.852876  -0.039952   0.122126
     5  P   -0.200643  -0.200681  -0.200836  -0.039952  14.442577   0.033698
     6  Ca   0.059875   0.059874   0.006243   0.122126   0.033698  18.397097
     7  Ca   0.006215   0.059845   0.059809   0.122094   0.033827  -0.047655
     8  Ca   0.059859   0.006228   0.059802   0.122091   0.033848  -0.047693
              7          8
     1  O    0.006215   0.059859
     2  O    0.059845   0.006228
     3  O    0.059809   0.059802
     4  O    0.122094   0.122091
     5  P    0.033827   0.033848
     6  Ca  -0.047655  -0.047693
     7  Ca  18.396773  -0.047601
     8  Ca  -0.047601  18.396871
 Mulliken atomic charges:
              1
     1  O   -1.032178
     2  O   -1.032254
     3  O   -1.032298
     4  O   -1.251153
     5  P    1.098161
     6  Ca   1.416435
     7  Ca   1.416693
     8  Ca   1.416593
 Sum of Mulliken charges=   1.00000
 Atomic charges with hydrogens summed into heavy atoms:
              1
     1  O   -1.032178
     2  O   -1.032254
     3  O   -1.032298
     4  O   -1.251153
     5  P    1.098161
     6  Ca   1.416435
     7  Ca   1.416693
     8  Ca   1.416593
 Sum of Mulliken charges=   1.00000
 Electronic spatial extent (au):  <R**2>=  1510.0949
 Charge=     1.0000 electrons
 Dipole moment (field-independent basis, Debye):
    X=    -0.0010    Y=    -0.0043    Z=    -8.2334  Tot=     8.2334
 Quadrupole moment (field-independent basis, Debye-Ang):
   XX=   -40.0295   YY=   -40.0463   ZZ=   -90.0109
   XY=     0.0032   XZ=    -0.0017   YZ=     0.0001
 Traceless Quadrupole moment (field-independent basis, Debye-Ang):
   XX=    16.6661   YY=    16.6492   ZZ=   -33.3153
   XY=     0.0032   XZ=    -0.0017   YZ=     0.0001
 Octapole moment (field-independent basis, Debye-Ang**2):
  XXX=    -8.3888  YYY=    57.9461  ZZZ=    -1.7069  XYY=     8.3665
  XXY=   -58.0072  XXZ=   -46.6963  XZZ=     0.0043  YZZ=    -0.0086
  YYZ=   -46.6720  XYZ=     0.0033
 Hexadecapole moment (field-independent basis, Debye-Ang**3):
 XXXX=  -416.0998 YYYY=  -415.9475 ZZZZ=  -721.8041 XXXY=     0.0149
 XXXZ=     2.1996 YYYX=     0.0088 YYYZ=   -15.2737 ZZZX=    -0.0082
 ZZZY=    -0.0007 XXYY=  -138.6732 XXZZ=  -187.6219 YYZZ=  -187.5758
 XXYZ=    15.2777 YYXZ=    -2.2059 ZZXY=     0.0021
 N-N= 9.527137077829D+02 E-N=-8.229903758893D+03  KE= 2.667694785655D+03
 Merz-Kollman atomic radii used.
 Read replacement radii for each type of atom:
 Rad(20) =   1.188000000000D+00
 Atom Element Radius
    1     8    1.40
    2     8    1.40
    3     8    1.40
    4     8    1.40
    5    15    1.80
    6    20    1.19
    7    20    1.19
    8    20    1.19

 **********************************************************************

            Electrostatic Properties Using The SCF Density

 **********************************************************************

       Atomic Center    1 is at   1.316582  0.678124  0.922479
       Atomic Center    2 is at  -1.245713  0.800833  0.922629
       Atomic Center    3 is at  -0.070610 -1.478800  0.922549
       Atomic Center    4 is at  -0.000080  0.000140 -1.711951
       Atomic Center    5 is at   0.000079 -0.000051  1.718319
       Atomic Center    6 is at   0.092943  1.943200 -0.570331
       Atomic Center    7 is at  -1.729922 -0.891181 -0.570271
       Atomic Center    8 is at   1.636847 -1.052100 -0.570421
     679 points will be used for fitting atomic charges
 Fitting point charges to eletrostatic potential
 Charges from ESP fit, RMS=   0.00615 RRMS=   0.03784:
 Charge=   1.00000 Dipole=    -0.0236    -0.0177    -8.4024 Tot=     8.4024
              1
     1  O   -0.944532
     2  O   -0.941965
     3  O   -0.941175
     4  O   -1.632438
     5  P    0.515070
     6  Ca   1.648243
     7  Ca   1.648747
     8  Ca   1.648049
 -----------------------------------------------------------------

              Electrostatic Properties (Atomic Units)

 -----------------------------------------------------------------
    Center     Electric         -------- Electric Field --------
               Potential          X             Y             Z
 -----------------------------------------------------------------
    1 Atom    -22.251142
    2 Atom    -22.251285
    3 Atom    -22.251393
    4 Atom    -22.290977
    5 Atom    -53.968022
    6 Atom    -80.043356
    7 Atom    -80.043244
    8 Atom    -80.043283
 -----------------------------------------------------------------
 1\1\GINC-N025\SP\RB3LYP\6-31+G(d,p)\Ca3O4P1(1+)\TIMN\12-Jun-2015\0\\# 
 b3lyp/6-31+G(d,p) int=ultrafine pop=(ReadRadii,MK)\\Ca3PO4_172.mol2_pl
 usQ.z51179.zip.xyz\\1,1\O,0,1.31407,0.68298,0.92248\O,0,-1.24866,0.796
 23,0.92263\O,0,-0.06515,-1.47905,0.92255\O,0,-0.00008,0.00014,-1.71195
 \P,0,0.00008,-0.00005,1.71832\Ca,0,0.08577,1.94353,-0.57033\Ca,0,-1.72
 662,-0.89756,-0.57027\Ca,0,1.64072,-1.04605,-0.57042\\Version=EM64T-G0
 3RevE.01\State=1-A\HF=-2675.0710385\RMSD=8.388e-05\Thermal=0.\Dipole=-
 0.0004052,-0.001674,-3.2392507\PG=C01 [X(Ca3O4P1)]\\@


 SOME PEOPLE TRY TO PULL THE WOOL OVER YOUR EYES
 USING THE WRONG YARN.
 Job cpu time:  0 days  0 hours  1 minutes 42.2 seconds.
 File lengths (MBytes):  RWF=     32 Int=      0 D2E=      0 Chk=     11 Scr=      1
 Normal termination of Gaussian 03 at Fri Jun 12 17:39:33 2015.
