 Entering Gaussian System, Link 0=/home/timn/tmp/g03.e01/g03
 Input=Ca3PO4_59.mol2c_plusQ.z51473.zip.xyz.gjf
 Output=Ca3PO4_59.mol2c_plusQ.z51473.zip.xyz.out
 Initial command:
 /home/timn/tmp/g03.e01/l1.exe /home/timn/tmp/g03.e01/Gau-17450.inp -scrdir=/home/timn/tmp/g03.e01/
 Default is to use a total of   2 processors:
                                2 via shared-memory
                                1 via Linda
 Entering Link 1 = /home/timn/tmp/g03.e01/l1.exe PID=     17451.
  
 Copyright (c) 1988,1990,1992,1993,1995,1998,2003,2004,2007, Gaussian, Inc.
                  All Rights Reserved.
  
 This is the Gaussian(R) 03 program.  It is based on the
 the Gaussian(R) 98 system (copyright 1998, Gaussian, Inc.),
 the Gaussian(R) 94 system (copyright 1995, Gaussian, Inc.),
 the Gaussian 92(TM) system (copyright 1992, Gaussian, Inc.),
 the Gaussian 90(TM) system (copyright 1990, Gaussian, Inc.),
 the Gaussian 88(TM) system (copyright 1988, Gaussian, Inc.),
 the Gaussian 86(TM) system (copyright 1986, Carnegie Mellon
 University), and the Gaussian 82(TM) system (copyright 1983,
 Carnegie Mellon University). Gaussian is a federally registered
 trademark of Gaussian, Inc.
  
 This software contains proprietary and confidential information,
 including trade secrets, belonging to Gaussian, Inc.
  
 This software is provided under written license and may be
 used, copied, transmitted, or stored only in accord with that
 written license.
  
 The following legend is applicable only to US Government
 contracts under FAR:
  
                    RESTRICTED RIGHTS LEGEND
  
 Use, reproduction and disclosure by the US Government is
 subject to restrictions as set forth in subparagraphs (a)
 and (c) of the Commercial Computer Software - Restricted
 Rights clause in FAR 52.227-19.
  
 Gaussian, Inc.
 340 Quinnipiac St., Bldg. 40, Wallingford CT 06492
  
  
 ---------------------------------------------------------------
 Warning -- This program may not be used in any manner that
 competes with the business of Gaussian, Inc. or will provide
 assistance to any competitor of Gaussian, Inc.  The licensee
 of this program is prohibited from giving any competitor of
 Gaussian, Inc. access to this program.  By using this program,
 the user acknowledges that Gaussian, Inc. is engaged in the
 business of creating and licensing software in the field of
 computational chemistry and represents and warrants to the
 licensee that it is not a competitor of Gaussian, Inc. and that
 it will not use this program in any manner prohibited above.
 ---------------------------------------------------------------
  

 Cite this work as:
 Gaussian 03, Revision E.01,
 M. J. Frisch, G. W. Trucks, H. B. Schlegel, G. E. Scuseria, 
 M. A. Robb, J. R. Cheeseman, J. A. Montgomery, Jr., T. Vreven, 
 K. N. Kudin, J. C. Burant, J. M. Millam, S. S. Iyengar, J. Tomasi, 
 V. Barone, B. Mennucci, M. Cossi, G. Scalmani, N. Rega, 
 G. A. Petersson, H. Nakatsuji, M. Hada, M. Ehara, K. Toyota, 
 R. Fukuda, J. Hasegawa, M. Ishida, T. Nakajima, Y. Honda, O. Kitao, 
 H. Nakai, M. Klene, X. Li, J. E. Knox, H. P. Hratchian, J. B. Cross, 
 V. Bakken, C. Adamo, J. Jaramillo, R. Gomperts, R. E. Stratmann, 
 O. Yazyev, A. J. Austin, R. Cammi, C. Pomelli, J. W. Ochterski, 
 P. Y. Ayala, K. Morokuma, G. A. Voth, P. Salvador, J. J. Dannenberg, 
 V. G. Zakrzewski, S. Dapprich, A. D. Daniels, M. C. Strain, 
 O. Farkas, D. K. Malick, A. D. Rabuck, K. Raghavachari, 
 J. B. Foresman, J. V. Ortiz, Q. Cui, A. G. Baboul, S. Clifford, 
 J. Cioslowski, B. B. Stefanov, G. Liu, A. Liashenko, P. Piskorz, 
 I. Komaromi, R. L. Martin, D. J. Fox, T. Keith, M. A. Al-Laham, 
 C. Y. Peng, A. Nanayakkara, M. Challacombe, P. M. W. Gill, 
 B. Johnson, W. Chen, M. W. Wong, C. Gonzalez, and J. A. Pople, 
 Gaussian, Inc., Wallingford CT, 2004.
 
 ******************************************
 Gaussian 03:  EM64T-G03RevE.01 11-Sep-2007
                12-Jun-2015 
 ******************************************
 %nproc=2
 Will use up to    2 processors via shared memory.
 Default route:  MP2=Direct MaxDisk=2000MB
 ----------------------------------------------------
 # b3lyp/6-31+G(d,p) int=ultrafine pop=(ReadRadii,MK)
 ----------------------------------------------------

 Warning!  SCF SP cutoffs with diffuse functions may be unreliable.
 Consider SCF=Tight

 1/38=1/1;
 2/17=6,18=5,40=1/2;
 3/5=1,6=6,7=111,11=2,16=1,25=1,30=1,74=-5,75=5/1,2,3;
 4//1;
 5/5=2,32=1,38=5/2;
 6/7=2,8=2,9=2,10=2,15=8,20=101,28=1/1,2;
 99/5=1,9=1/99;
 ------------------------------------
 Ca3PO4_59.mol2c_plusQ.z51473.zip.xyz
 ------------------------------------
 Symbolic Z-matrix:
 Charge =  1 Multiplicity = 1
 O                    -1.2824    0.74038   0.9227 
 O                     0.00018   0.00088  -1.71224 
 O                    -0.00064  -1.48135   0.92181 
 O                     1.28243   0.73891   0.92303 
 P                     0.00037  -0.00172   1.7184 
 Ca                    0.00114   1.9462   -0.56895 
 Ca                    1.68459  -0.97313  -0.57109 
 Ca                   -1.68585  -0.97131  -0.57087 
 
                          Input orientation:                          
 ---------------------------------------------------------------------
 Center     Atomic     Atomic              Coordinates (Angstroms)
 Number     Number      Type              X           Y           Z
 ---------------------------------------------------------------------
    1          8             0       -1.282400    0.740380    0.922700
    2          8             0        0.000180    0.000880   -1.712240
    3          8             0       -0.000640   -1.481350    0.921810
    4          8             0        1.282430    0.738910    0.923030
    5         15             0        0.000370   -0.001720    1.718400
    6         20             0        0.001140    1.946200   -0.568950
    7         20             0        1.684590   -0.973130   -0.571090
    8         20             0       -1.685850   -0.971310   -0.570870
 ---------------------------------------------------------------------
                    Distance matrix (angstroms):
                    1          2          3          4          5
     1  O    0.000000
     2  O    3.022380   0.000000
     3  O    2.564955   3.022454   0.000000
     4  O    2.564830   3.022168   2.564337   0.000000
     5  P    1.682067   3.430641   1.680435   1.680721   0.000000
     6  Ca   2.307920   2.256409   3.737709   2.307652   3.004391
     7  Ca   3.737721   2.255694   2.308038   2.307641   3.003664
     8  Ca   2.307251   2.256230   2.308282   3.737282   3.004031
                    6          7          8
     6  Ca   0.000000
     7  Ca   3.369940   0.000000
     8  Ca   3.370134   3.370440   0.000000
 Stoichiometry    Ca3O4P(1+)
 Framework group  C1[X(Ca3O4P)]
 Deg. of freedom    18
 Full point group                 C1
 Largest Abelian subgroup         C1      NOp   1
 Largest concise Abelian subgroup C1      NOp   1
                         Standard orientation:                         
 ---------------------------------------------------------------------
 Center     Atomic     Atomic              Coordinates (Angstroms)
 Number     Number      Type              X           Y           Z
 ---------------------------------------------------------------------
    1          8             0       -1.278727    0.746702    0.922698
    2          8             0        0.000187    0.000879   -1.712242
    3          8             0       -0.007950   -1.481328    0.921808
    4          8             0        1.286065    0.732570    0.923028
    5         15             0        0.000364   -0.001721    1.718398
    6         20             0        0.010751    1.946171   -0.568952
    7         20             0        1.679768   -0.981434   -0.571092
    8         20             0       -1.690622   -0.962975   -0.570872
 ---------------------------------------------------------------------
 Rotational constants (GHZ):      1.0154618      1.0152935      0.9039030
 Standard basis: 6-31+G(d,p) (6D, 7F)
 There are   180 symmetry adapted basis functions of A   symmetry.
 Integral buffers will be    131072 words long.
 Raffenetti 2 integral format.
 Two-electron integral symmetry is turned on.
   180 basis functions,   424 primitive gaussians,   180 cartesian basis functions
    53 alpha electrons       53 beta electrons
       nuclear repulsion energy       952.6999251510 Hartrees.
 NAtoms=    8 NActive=    8 NUniq=    8 SFac= 7.50D-01 NAtFMM=   80 NAOKFM=F Big=F
 One-electron integrals computed using PRISM.
 NBasis=   180 RedAO= T  NBF=   180
 NBsUse=   180 1.00D-06 NBFU=   180
 Harris functional with IExCor=  402 diagonalized for initial guess.
 ExpMin= 7.10D-03 ExpMax= 3.53D+04 ExpMxC= 5.30D+03 IAcc=3 IRadAn=         5 AccDes= 0.00D+00
 HarFok:  IExCor= 402 AccDes= 0.00D+00 IRadAn=         5 IDoV=1
 ScaDFX=  1.000000  1.000000  1.000000  1.000000
 Initial guess orbital symmetries:
       Occupied  (A) (A) (A) (A) (A) (A) (A) (A) (A) (A) (A) (A)
                 (A) (A) (A) (A) (A) (A) (A) (A) (A) (A) (A) (A)
                 (A) (A) (A) (A) (A) (A) (A) (A) (A) (A) (A) (A)
                 (A) (A) (A) (A) (A) (A) (A) (A) (A) (A) (A) (A)
                 (A) (A) (A) (A) (A)
       Virtual   (A) (A) (A) (A) (A) (A) (A) (A) (A) (A) (A) (A)
                 (A) (A) (A) (A) (A) (A) (A) (A) (A) (A) (A) (A)
                 (A) (A) (A) (A) (A) (A) (A) (A) (A) (A) (A) (A)
                 (A) (A) (A) (A) (A) (A) (A) (A) (A) (A) (A) (A)
                 (A) (A) (A) (A) (A) (A) (A) (A) (A) (A) (A) (A)
                 (A) (A) (A) (A) (A) (A) (A) (A) (A) (A) (A) (A)
                 (A) (A) (A) (A) (A) (A) (A) (A) (A) (A) (A) (A)
                 (A) (A) (A) (A) (A) (A) (A) (A) (A) (A) (A) (A)
                 (A) (A) (A) (A) (A) (A) (A) (A) (A) (A) (A) (A)
                 (A) (A) (A) (A) (A) (A) (A) (A) (A) (A) (A) (A)
                 (A) (A) (A) (A) (A) (A) (A)
 The electronic state of the initial guess is 1-A.
 Requested convergence on RMS density matrix=1.00D-04 within 128 cycles.
 Requested convergence on MAX density matrix=1.00D-02.
 Requested convergence on             energy=1.00D-02.
 No special actions if energy rises.
 EnCoef did     1 forward-backward iterations
 SCF Done:  E(RB+HF-LYP) =  -2675.07103933     A.U. after    8 cycles
             Convg  =    0.8312D-04             -V/T =  2.0028
             S**2   =   0.0000

 **********************************************************************

            Population analysis using the SCF density.

 **********************************************************************

 Orbital symmetries:
       Occupied  (A) (A) (A) (A) (A) (A) (A) (A) (A) (A) (A) (A)
                 (A) (A) (A) (A) (A) (A) (A) (A) (A) (A) (A) (A)
                 (A) (A) (A) (A) (A) (A) (A) (A) (A) (A) (A) (A)
                 (A) (A) (A) (A) (A) (A) (A) (A) (A) (A) (A) (A)
                 (A) (A) (A) (A) (A)
       Virtual   (A) (A) (A) (A) (A) (A) (A) (A) (A) (A) (A) (A)
                 (A) (A) (A) (A) (A) (A) (A) (A) (A) (A) (A) (A)
                 (A) (A) (A) (A) (A) (A) (A) (A) (A) (A) (A) (A)
                 (A) (A) (A) (A) (A) (A) (A) (A) (A) (A) (A) (A)
                 (A) (A) (A) (A) (A) (A) (A) (A) (A) (A) (A) (A)
                 (A) (A) (A) (A) (A) (A) (A) (A) (A) (A) (A) (A)
                 (A) (A) (A) (A) (A) (A) (A) (A) (A) (A) (A) (A)
                 (A) (A) (A) (A) (A) (A) (A) (A) (A) (A) (A) (A)
                 (A) (A) (A) (A) (A) (A) (A) (A) (A) (A) (A) (A)
                 (A) (A) (A) (A) (A) (A) (A) (A) (A) (A) (A) (A)
                 (A) (A) (A) (A) (A) (A) (A)
 The electronic state is 1-A.
 Alpha  occ. eigenvalues -- -145.49642-145.49636-145.49633 -77.25051 -19.21262
 Alpha  occ. eigenvalues --  -19.21241 -19.21157 -19.15942 -15.56476 -15.56471
 Alpha  occ. eigenvalues --  -15.56469 -12.69673 -12.69670 -12.69668 -12.69651
 Alpha  occ. eigenvalues --  -12.69647 -12.69645 -12.69603 -12.69600 -12.69598
 Alpha  occ. eigenvalues --   -6.70081  -4.86430  -4.86429  -4.85893  -1.93824
 Alpha  occ. eigenvalues --   -1.93740  -1.93737  -1.22376  -1.21697  -1.21693
 Alpha  occ. eigenvalues --   -1.21306  -1.21139  -1.21066  -1.21062  -1.20643
 Alpha  occ. eigenvalues --   -1.20640  -1.06755  -1.00377  -1.00322  -0.90939
 Alpha  occ. eigenvalues --   -0.62639  -0.50530  -0.50516  -0.47957  -0.43356
 Alpha  occ. eigenvalues --   -0.43351  -0.38353  -0.38323  -0.38172  -0.36137
 Alpha  occ. eigenvalues --   -0.36132  -0.34591  -0.30859
 Alpha virt. eigenvalues --   -0.19949  -0.18027  -0.18025  -0.12555  -0.12552
 Alpha virt. eigenvalues --   -0.10893  -0.09478  -0.09476  -0.08338  -0.07772
 Alpha virt. eigenvalues --   -0.06545  -0.06114  -0.06114  -0.04765  -0.04717
 Alpha virt. eigenvalues --   -0.04714  -0.04672  -0.04474  -0.04472  -0.04003
 Alpha virt. eigenvalues --   -0.04003  -0.03232  -0.02943  -0.02943  -0.02359
 Alpha virt. eigenvalues --   -0.02354  -0.00866   0.01027   0.02176   0.02617
 Alpha virt. eigenvalues --    0.02618   0.04573   0.04576   0.05228   0.06004
 Alpha virt. eigenvalues --    0.06004   0.06293   0.06295   0.07291   0.07294
 Alpha virt. eigenvalues --    0.07383   0.07663   0.07668   0.07823   0.08469
 Alpha virt. eigenvalues --    0.10685   0.10690   0.11335   0.11805   0.13656
 Alpha virt. eigenvalues --    0.15680   0.15683   0.19891   0.19893   0.20369
 Alpha virt. eigenvalues --    0.22085   0.22091   0.23483   0.23995   0.25319
 Alpha virt. eigenvalues --    0.25959   0.25967   0.30035   0.31450   0.31452
 Alpha virt. eigenvalues --    0.35744   0.36003   0.36009   0.37868   0.39074
 Alpha virt. eigenvalues --    0.39091   0.39778   0.45830   0.45831   0.53629
 Alpha virt. eigenvalues --    0.53636   0.55855   0.63368   0.63372   0.67678
 Alpha virt. eigenvalues --    0.82893   0.86950   0.86957   0.94081   0.94128
 Alpha virt. eigenvalues --    1.14553   1.16747   1.16767   1.18034   1.20775
 Alpha virt. eigenvalues --    1.21963   1.21988   1.23403   1.23416   1.28218
 Alpha virt. eigenvalues --    1.34155   1.34186   1.36430   1.54452   1.54484
 Alpha virt. eigenvalues --    1.57771   1.68374   1.71627   1.73135   1.73164
 Alpha virt. eigenvalues --    1.77479   1.77496   1.87080   1.87366   1.87371
 Alpha virt. eigenvalues --    1.88071   1.92073   1.92084   1.93330   1.98433
 Alpha virt. eigenvalues --    1.98444   2.03012   2.03014   2.14771   2.38159
 Alpha virt. eigenvalues --    2.55084   2.55217   3.54380   4.05616   4.14259
 Alpha virt. eigenvalues --    4.14312   4.31205
          Condensed to atoms (all electrons):
              1          2          3          4          5          6
     1  O    8.964518   0.023883   0.058528   0.058526  -0.199747   0.060050
     2  O    0.023883   8.852615   0.023992   0.023996  -0.039966   0.122102
     3  O    0.058528   0.023992   8.966533   0.058833  -0.201135   0.006267
     4  O    0.058526   0.023996   0.058833   8.966442  -0.201175   0.059833
     5  P   -0.199747  -0.039966  -0.201135  -0.201175  14.442419   0.033575
     6  Ca   0.060050   0.122102   0.006267   0.059833   0.033575  18.396902
     7  Ca   0.006183   0.122243   0.059705   0.059741   0.034061  -0.047710
     8  Ca   0.060048   0.122102   0.059769   0.006270   0.033635  -0.047581
              7          8
     1  O    0.006183   0.060048
     2  O    0.122243   0.122102
     3  O    0.059705   0.059769
     4  O    0.059741   0.006270
     5  P    0.034061   0.033635
     6  Ca  -0.047710  -0.047581
     7  Ca  18.397073  -0.047734
     8  Ca  -0.047734  18.396909
 Mulliken atomic charges:
              1
     1  O   -1.031989
     2  O   -1.250968
     3  O   -1.032492
     4  O   -1.032467
     5  P    1.098334
     6  Ca   1.416563
     7  Ca   1.416437
     8  Ca   1.416582
 Sum of Mulliken charges=   1.00000
 Atomic charges with hydrogens summed into heavy atoms:
              1
     1  O   -1.031989
     2  O   -1.250968
     3  O   -1.032492
     4  O   -1.032467
     5  P    1.098334
     6  Ca   1.416563
     7  Ca   1.416437
     8  Ca   1.416582
 Sum of Mulliken charges=   1.00000
 Electronic spatial extent (au):  <R**2>=  1510.1448
 Charge=     1.0000 electrons
 Dipole moment (field-independent basis, Debye):
    X=     0.0012    Y=     0.0100    Z=    -8.2297  Tot=     8.2297
 Quadrupole moment (field-independent basis, Debye-Ang):
   XX=   -40.0363   YY=   -40.0443   ZZ=   -90.0176
   XY=     0.0082   XZ=     0.0022   YZ=     0.0301
 Traceless Quadrupole moment (field-independent basis, Debye-Ang):
   XX=    16.6631   YY=    16.6551   ZZ=   -33.3182
   XY=     0.0082   XZ=     0.0022   YZ=     0.0301
 Octapole moment (field-independent basis, Debye-Ang**2):
  XXX=    -0.9385  YYY=    58.6872  ZZZ=    -1.6759  XYY=     0.9724
  XXY=   -58.5526  XXZ=   -46.7260  XZZ=     0.0009  YZZ=    -0.0537
  YYZ=   -46.6297  XYZ=     0.0073
 Hexadecapole moment (field-independent basis, Debye-Ang**3):
 XXXX=  -416.1038 YYYY=  -415.9055 ZZZZ=  -721.9253 XXXY=     0.0563
 XXXZ=     0.2872 YYYX=     0.0460 YYYZ=   -15.3073 ZZZX=     0.0182
 ZZZY=     0.1366 XXYY=  -138.7179 XXZZ=  -187.6108 YYZZ=  -187.6331
 XXYZ=    15.4723 YYXZ=    -0.2520 ZZXY=     0.0076
 N-N= 9.526999251510D+02 E-N=-8.229871032173D+03  KE= 2.667693282928D+03
 Merz-Kollman atomic radii used.
 Read replacement radii for each type of atom:
 Rad(20) =   1.188000000000D+00
 Atom Element Radius
    1     8    1.40
    2     8    1.40
    3     8    1.40
    4     8    1.40
    5    15    1.80
    6    20    1.19
    7    20    1.19
    8    20    1.19

 **********************************************************************

            Electrostatic Properties Using The SCF Density

 **********************************************************************

       Atomic Center    1 is at  -1.278727  0.746702  0.922698
       Atomic Center    2 is at   0.000187  0.000879 -1.712242
       Atomic Center    3 is at  -0.007950 -1.481328  0.921808
       Atomic Center    4 is at   1.286065  0.732570  0.923028
       Atomic Center    5 is at   0.000364 -0.001721  1.718398
       Atomic Center    6 is at   0.010751  1.946171 -0.568952
       Atomic Center    7 is at   1.679768 -0.981434 -0.571092
       Atomic Center    8 is at  -1.690622 -0.962975 -0.570872
     680 points will be used for fitting atomic charges
 Fitting point charges to eletrostatic potential
 Charges from ESP fit, RMS=   0.00612 RRMS=   0.03742:
 Charge=   1.00000 Dipole=     0.0052    -0.0343    -8.4348 Tot=     8.4349
              1
     1  O   -0.946195
     2  O   -1.633565
     3  O   -0.941218
     4  O   -0.946758
     5  P    0.515447
     6  Ca   1.650123
     7  Ca   1.651548
     8  Ca   1.650618
 -----------------------------------------------------------------

              Electrostatic Properties (Atomic Units)

 -----------------------------------------------------------------
    Center     Electric         -------- Electric Field --------
               Potential          X             Y             Z
 -----------------------------------------------------------------
    1 Atom    -22.250067
    2 Atom    -22.290753
    3 Atom    -22.252012
    4 Atom    -22.251579
    5 Atom    -53.967941
    6 Atom    -80.043239
    7 Atom    -80.043319
    8 Atom    -80.043282
 -----------------------------------------------------------------
 1\1\GINC-N021\SP\RB3LYP\6-31+G(d,p)\Ca3O4P1(1+)\TIMN\12-Jun-2015\0\\# 
 b3lyp/6-31+G(d,p) int=ultrafine pop=(ReadRadii,MK)\\Ca3PO4_59.mol2c_pl
 usQ.z51473.zip.xyz\\1,1\O,0,-1.2824,0.74038,0.9227\O,0,0.00018,0.00088
 ,-1.71224\O,0,-0.00064,-1.48135,0.92181\O,0,1.28243,0.73891,0.92303\P,
 0,0.00037,-0.00172,1.7184\Ca,0,0.00114,1.9462,-0.56895\Ca,0,1.68459,-0
 .97313,-0.57109\Ca,0,-1.68585,-0.97131,-0.57087\\Version=EM64T-G03RevE
 .01\State=1-A\HF=-2675.0710393\RMSD=8.312e-05\Thermal=0.\Dipole=0.0004
 473,0.0039442,-3.2378032\PG=C01 [X(Ca3O4P1)]\\@


 THE BEST WAY TO CONVINCE A FOOL THAT HE IS WRONG 
 IS TO LET HIM HAVE HIS OWN WAY.

                                         JOSH BILLINGS
 Job cpu time:  0 days  0 hours  1 minutes 41.9 seconds.
 File lengths (MBytes):  RWF=     32 Int=      0 D2E=      0 Chk=     11 Scr=      1
 Normal termination of Gaussian 03 at Fri Jun 12 17:44:23 2015.
