 Entering Gaussian System, Link 0=/home/timn/tmp/g03.e01/g03
 Input=Ca3PO4_56.mol2_plusQ.z51470.zip.xyz.gjf
 Output=Ca3PO4_56.mol2_plusQ.z51470.zip.xyz.out
 Initial command:
 /home/timn/tmp/g03.e01/l1.exe /home/timn/tmp/g03.e01/Gau-12128.inp -scrdir=/home/timn/tmp/g03.e01/
 Default is to use a total of   2 processors:
                                2 via shared-memory
                                1 via Linda
 Entering Link 1 = /home/timn/tmp/g03.e01/l1.exe PID=     12129.
  
 Copyright (c) 1988,1990,1992,1993,1995,1998,2003,2004,2007, Gaussian, Inc.
                  All Rights Reserved.
  
 This is the Gaussian(R) 03 program.  It is based on the
 the Gaussian(R) 98 system (copyright 1998, Gaussian, Inc.),
 the Gaussian(R) 94 system (copyright 1995, Gaussian, Inc.),
 the Gaussian 92(TM) system (copyright 1992, Gaussian, Inc.),
 the Gaussian 90(TM) system (copyright 1990, Gaussian, Inc.),
 the Gaussian 88(TM) system (copyright 1988, Gaussian, Inc.),
 the Gaussian 86(TM) system (copyright 1986, Carnegie Mellon
 University), and the Gaussian 82(TM) system (copyright 1983,
 Carnegie Mellon University). Gaussian is a federally registered
 trademark of Gaussian, Inc.
  
 This software contains proprietary and confidential information,
 including trade secrets, belonging to Gaussian, Inc.
  
 This software is provided under written license and may be
 used, copied, transmitted, or stored only in accord with that
 written license.
  
 The following legend is applicable only to US Government
 contracts under FAR:
  
                    RESTRICTED RIGHTS LEGEND
  
 Use, reproduction and disclosure by the US Government is
 subject to restrictions as set forth in subparagraphs (a)
 and (c) of the Commercial Computer Software - Restricted
 Rights clause in FAR 52.227-19.
  
 Gaussian, Inc.
 340 Quinnipiac St., Bldg. 40, Wallingford CT 06492
  
  
 ---------------------------------------------------------------
 Warning -- This program may not be used in any manner that
 competes with the business of Gaussian, Inc. or will provide
 assistance to any competitor of Gaussian, Inc.  The licensee
 of this program is prohibited from giving any competitor of
 Gaussian, Inc. access to this program.  By using this program,
 the user acknowledges that Gaussian, Inc. is engaged in the
 business of creating and licensing software in the field of
 computational chemistry and represents and warrants to the
 licensee that it is not a competitor of Gaussian, Inc. and that
 it will not use this program in any manner prohibited above.
 ---------------------------------------------------------------
  

 Cite this work as:
 Gaussian 03, Revision E.01,
 M. J. Frisch, G. W. Trucks, H. B. Schlegel, G. E. Scuseria, 
 M. A. Robb, J. R. Cheeseman, J. A. Montgomery, Jr., T. Vreven, 
 K. N. Kudin, J. C. Burant, J. M. Millam, S. S. Iyengar, J. Tomasi, 
 V. Barone, B. Mennucci, M. Cossi, G. Scalmani, N. Rega, 
 G. A. Petersson, H. Nakatsuji, M. Hada, M. Ehara, K. Toyota, 
 R. Fukuda, J. Hasegawa, M. Ishida, T. Nakajima, Y. Honda, O. Kitao, 
 H. Nakai, M. Klene, X. Li, J. E. Knox, H. P. Hratchian, J. B. Cross, 
 V. Bakken, C. Adamo, J. Jaramillo, R. Gomperts, R. E. Stratmann, 
 O. Yazyev, A. J. Austin, R. Cammi, C. Pomelli, J. W. Ochterski, 
 P. Y. Ayala, K. Morokuma, G. A. Voth, P. Salvador, J. J. Dannenberg, 
 V. G. Zakrzewski, S. Dapprich, A. D. Daniels, M. C. Strain, 
 O. Farkas, D. K. Malick, A. D. Rabuck, K. Raghavachari, 
 J. B. Foresman, J. V. Ortiz, Q. Cui, A. G. Baboul, S. Clifford, 
 J. Cioslowski, B. B. Stefanov, G. Liu, A. Liashenko, P. Piskorz, 
 I. Komaromi, R. L. Martin, D. J. Fox, T. Keith, M. A. Al-Laham, 
 C. Y. Peng, A. Nanayakkara, M. Challacombe, P. M. W. Gill, 
 B. Johnson, W. Chen, M. W. Wong, C. Gonzalez, and J. A. Pople, 
 Gaussian, Inc., Wallingford CT, 2004.
 
 ******************************************
 Gaussian 03:  EM64T-G03RevE.01 11-Sep-2007
                12-Jun-2015 
 ******************************************
 %nproc=2
 Will use up to    2 processors via shared memory.
 Default route:  MP2=Direct MaxDisk=2000MB
 ----------------------------------------------------
 # b3lyp/6-31+G(d,p) int=ultrafine pop=(ReadRadii,MK)
 ----------------------------------------------------

 Warning!  SCF SP cutoffs with diffuse functions may be unreliable.
 Consider SCF=Tight

 1/38=1/1;
 2/17=6,18=5,40=1/2;
 3/5=1,6=6,7=111,11=2,16=1,25=1,30=1,74=-5,75=5/1,2,3;
 4//1;
 5/5=2,32=1,38=5/2;
 6/7=2,8=2,9=2,10=2,15=8,20=101,28=1/1,2;
 99/5=1,9=1/99;
 -----------------------------------
 Ca3PO4_56.mol2_plusQ.z51470.zip.xyz
 -----------------------------------
 Symbolic Z-matrix:
 Charge =  1 Multiplicity = 1
 O                     0.16323  -1.47253   0.92037 
 O                    -1.35541   0.59449   0.92336 
 O                     1.19396   0.87578   0.92195 
 O                    -0.00152   0.00115  -1.71274 
 P                     0.00121  -0.00136   1.71795 
 Ca                   -0.2139    1.9341   -0.56877 
 Ca                   -1.56925  -1.15121  -0.56966 
 Ca                    1.78214  -0.78143  -0.57122 
 
                          Input orientation:                          
 ---------------------------------------------------------------------
 Center     Atomic     Atomic              Coordinates (Angstroms)
 Number     Number      Type              X           Y           Z
 ---------------------------------------------------------------------
    1          8             0        0.163230   -1.472530    0.920370
    2          8             0       -1.355410    0.594490    0.923360
    3          8             0        1.193960    0.875780    0.921950
    4          8             0       -0.001520    0.001150   -1.712740
    5         15             0        0.001210   -0.001360    1.717950
    6         20             0       -0.213900    1.934100   -0.568770
    7         20             0       -1.569250   -1.151210   -0.569660
    8         20             0        1.782140   -0.781430   -0.571220
 ---------------------------------------------------------------------
                    Distance matrix (angstroms):
                    1          2          3          4          5
     1  O    0.000000
     2  O    2.564927   0.000000
     3  O    2.564560   2.564842   0.000000
     4  O    3.021944   3.022266   3.022539   0.000000
     5  P    1.681287   1.681317   1.680965   3.430692   0.000000
     6  Ca   3.736963   2.307391   2.307457   2.256118   3.003559
     7  Ca   2.307579   2.307012   3.737502   2.256622   3.003608
     8  Ca   2.307234   3.737800   2.306915   2.257641   3.003418
                    6          7          8
     6  Ca   0.000000
     7  Ca   3.369883   0.000000
     8  Ca   3.370205   3.371729   0.000000
 Stoichiometry    Ca3O4P(1+)
 Framework group  C1[X(Ca3O4P)]
 Deg. of freedom    18
 Full point group                 C1
 Largest Abelian subgroup         C1      NOp   1
 Largest concise Abelian subgroup C1      NOp   1
                         Standard orientation:                         
 ---------------------------------------------------------------------
 Center     Atomic     Atomic              Coordinates (Angstroms)
 Number     Number      Type              X           Y           Z
 ---------------------------------------------------------------------
    1          8             0        0.160295   -1.472852    0.920372
    2          8             0       -1.354223    0.597190    0.923362
    3          8             0        1.195702    0.873400    0.921952
    4          8             0       -0.001518    0.001154   -1.712738
    5         15             0        0.001207   -0.001362    1.717952
    6         20             0       -0.210046    1.934523   -0.568768
    7         20             0       -1.571541   -1.148080   -0.569658
    8         20             0        1.780579   -0.784979   -0.571218
 ---------------------------------------------------------------------
 Rotational constants (GHZ):      1.0158451      1.0152018      0.9037048
 Standard basis: 6-31+G(d,p) (6D, 7F)
 There are   180 symmetry adapted basis functions of A   symmetry.
 Integral buffers will be    131072 words long.
 Raffenetti 2 integral format.
 Two-electron integral symmetry is turned on.
   180 basis functions,   424 primitive gaussians,   180 cartesian basis functions
    53 alpha electrons       53 beta electrons
       nuclear repulsion energy       952.7133729130 Hartrees.
 NAtoms=    8 NActive=    8 NUniq=    8 SFac= 7.50D-01 NAtFMM=   80 NAOKFM=F Big=F
 One-electron integrals computed using PRISM.
 NBasis=   180 RedAO= T  NBF=   180
 NBsUse=   180 1.00D-06 NBFU=   180
 Harris functional with IExCor=  402 diagonalized for initial guess.
 ExpMin= 7.10D-03 ExpMax= 3.53D+04 ExpMxC= 5.30D+03 IAcc=3 IRadAn=         5 AccDes= 0.00D+00
 HarFok:  IExCor= 402 AccDes= 0.00D+00 IRadAn=         5 IDoV=1
 ScaDFX=  1.000000  1.000000  1.000000  1.000000
 Initial guess orbital symmetries:
       Occupied  (A) (A) (A) (A) (A) (A) (A) (A) (A) (A) (A) (A)
                 (A) (A) (A) (A) (A) (A) (A) (A) (A) (A) (A) (A)
                 (A) (A) (A) (A) (A) (A) (A) (A) (A) (A) (A) (A)
                 (A) (A) (A) (A) (A) (A) (A) (A) (A) (A) (A) (A)
                 (A) (A) (A) (A) (A)
       Virtual   (A) (A) (A) (A) (A) (A) (A) (A) (A) (A) (A) (A)
                 (A) (A) (A) (A) (A) (A) (A) (A) (A) (A) (A) (A)
                 (A) (A) (A) (A) (A) (A) (A) (A) (A) (A) (A) (A)
                 (A) (A) (A) (A) (A) (A) (A) (A) (A) (A) (A) (A)
                 (A) (A) (A) (A) (A) (A) (A) (A) (A) (A) (A) (A)
                 (A) (A) (A) (A) (A) (A) (A) (A) (A) (A) (A) (A)
                 (A) (A) (A) (A) (A) (A) (A) (A) (A) (A) (A) (A)
                 (A) (A) (A) (A) (A) (A) (A) (A) (A) (A) (A) (A)
                 (A) (A) (A) (A) (A) (A) (A) (A) (A) (A) (A) (A)
                 (A) (A) (A) (A) (A) (A) (A) (A) (A) (A) (A) (A)
                 (A) (A) (A) (A) (A) (A) (A)
 The electronic state of the initial guess is 1-A.
 Requested convergence on RMS density matrix=1.00D-04 within 128 cycles.
 Requested convergence on MAX density matrix=1.00D-02.
 Requested convergence on             energy=1.00D-02.
 No special actions if energy rises.
 SCF Done:  E(RB+HF-LYP) =  -2675.07103421     A.U. after    8 cycles
             Convg  =    0.8331D-04             -V/T =  2.0028
             S**2   =   0.0000

 **********************************************************************

            Population analysis using the SCF density.

 **********************************************************************

 Orbital symmetries:
       Occupied  (A) (A) (A) (A) (A) (A) (A) (A) (A) (A) (A) (A)
                 (A) (A) (A) (A) (A) (A) (A) (A) (A) (A) (A) (A)
                 (A) (A) (A) (A) (A) (A) (A) (A) (A) (A) (A) (A)
                 (A) (A) (A) (A) (A) (A) (A) (A) (A) (A) (A) (A)
                 (A) (A) (A) (A) (A)
       Virtual   (A) (A) (A) (A) (A) (A) (A) (A) (A) (A) (A) (A)
                 (A) (A) (A) (A) (A) (A) (A) (A) (A) (A) (A) (A)
                 (A) (A) (A) (A) (A) (A) (A) (A) (A) (A) (A) (A)
                 (A) (A) (A) (A) (A) (A) (A) (A) (A) (A) (A) (A)
                 (A) (A) (A) (A) (A) (A) (A) (A) (A) (A) (A) (A)
                 (A) (A) (A) (A) (A) (A) (A) (A) (A) (A) (A) (A)
                 (A) (A) (A) (A) (A) (A) (A) (A) (A) (A) (A) (A)
                 (A) (A) (A) (A) (A) (A) (A) (A) (A) (A) (A) (A)
                 (A) (A) (A) (A) (A) (A) (A) (A) (A) (A) (A) (A)
                 (A) (A) (A) (A) (A) (A) (A) (A) (A) (A) (A) (A)
                 (A) (A) (A) (A) (A) (A) (A)
 The electronic state is 1-A.
 Alpha  occ. eigenvalues -- -145.49643-145.49632-145.49629 -77.25064 -19.21251
 Alpha  occ. eigenvalues --  -19.21226 -19.21202 -19.15934 -15.56477 -15.56467
 Alpha  occ. eigenvalues --  -15.56464 -12.69675 -12.69665 -12.69664 -12.69652
 Alpha  occ. eigenvalues --  -12.69642 -12.69640 -12.69605 -12.69595 -12.69594
 Alpha  occ. eigenvalues --   -6.70093  -4.86442  -4.86442  -4.85905  -1.93821
 Alpha  occ. eigenvalues --   -1.93739  -1.93733  -1.22376  -1.21695  -1.21692
 Alpha  occ. eigenvalues --   -1.21303  -1.21137  -1.21064  -1.21060  -1.20642
 Alpha  occ. eigenvalues --   -1.20636  -1.06759  -1.00366  -1.00347  -0.90926
 Alpha  occ. eigenvalues --   -0.62650  -0.50535  -0.50528  -0.47963  -0.43362
 Alpha  occ. eigenvalues --   -0.43359  -0.38352  -0.38339  -0.38185  -0.36124
 Alpha  occ. eigenvalues --   -0.36119  -0.34581  -0.30866
 Alpha virt. eigenvalues --   -0.19947  -0.18025  -0.18021  -0.12553  -0.12548
 Alpha virt. eigenvalues --   -0.10891  -0.09479  -0.09476  -0.08337  -0.07769
 Alpha virt. eigenvalues --   -0.06545  -0.06113  -0.06112  -0.04766  -0.04717
 Alpha virt. eigenvalues --   -0.04717  -0.04672  -0.04476  -0.04476  -0.04003
 Alpha virt. eigenvalues --   -0.04003  -0.03231  -0.02944  -0.02943  -0.02360
 Alpha virt. eigenvalues --   -0.02359  -0.00869   0.01026   0.02178   0.02616
 Alpha virt. eigenvalues --    0.02618   0.04573   0.04577   0.05228   0.06002
 Alpha virt. eigenvalues --    0.06004   0.06292   0.06295   0.07292   0.07294
 Alpha virt. eigenvalues --    0.07383   0.07663   0.07672   0.07824   0.08470
 Alpha virt. eigenvalues --    0.10685   0.10691   0.11331   0.11804   0.13653
 Alpha virt. eigenvalues --    0.15676   0.15684   0.19887   0.19888   0.20373
 Alpha virt. eigenvalues --    0.22087   0.22095   0.23481   0.23995   0.25322
 Alpha virt. eigenvalues --    0.25967   0.25970   0.30029   0.31448   0.31453
 Alpha virt. eigenvalues --    0.35746   0.35999   0.36011   0.37875   0.39069
 Alpha virt. eigenvalues --    0.39078   0.39776   0.45810   0.45832   0.53619
 Alpha virt. eigenvalues --    0.53641   0.55858   0.63364   0.63368   0.67665
 Alpha virt. eigenvalues --    0.82897   0.86951   0.86971   0.94092   0.94107
 Alpha virt. eigenvalues --    1.14565   1.16756   1.16761   1.18027   1.20789
 Alpha virt. eigenvalues --    1.21960   1.21968   1.23410   1.23416   1.28217
 Alpha virt. eigenvalues --    1.34169   1.34195   1.36440   1.54465   1.54471
 Alpha virt. eigenvalues --    1.57768   1.68379   1.71616   1.73139   1.73153
 Alpha virt. eigenvalues --    1.77475   1.77481   1.87089   1.87374   1.87383
 Alpha virt. eigenvalues --    1.88072   1.92069   1.92070   1.93322   1.98427
 Alpha virt. eigenvalues --    1.98442   2.03014   2.03023   2.14770   2.38129
 Alpha virt. eigenvalues --    2.55107   2.55135   3.54374   4.05607   4.14286
 Alpha virt. eigenvalues --    4.14297   4.31207
          Condensed to atoms (all electrons):
              1          2          3          4          5          6
     1  O    8.965088   0.058586   0.058725   0.023894  -0.200285   0.006160
     2  O    0.058586   8.965711   0.058768   0.023997  -0.200653   0.059804
     3  O    0.058725   0.058768   8.966375   0.024000  -0.201132   0.059739
     4  O    0.023894   0.023997   0.024000   8.852406  -0.039933   0.122300
     5  P   -0.200285  -0.200653  -0.201132  -0.039933  14.443215   0.033784
     6  Ca   0.006160   0.059804   0.059739   0.122300   0.033784  18.397195
     7  Ca   0.059956   0.059918   0.006266   0.122203   0.033524  -0.047739
     8  Ca   0.059990   0.006254   0.059872   0.122131   0.033659  -0.047774
              7          8
     1  O    0.059956   0.059990
     2  O    0.059918   0.006254
     3  O    0.006266   0.059872
     4  O    0.122203   0.122131
     5  P    0.033524   0.033659
     6  Ca  -0.047739  -0.047774
     7  Ca  18.396712  -0.047673
     8  Ca  -0.047673  18.396614
 Mulliken atomic charges:
              1
     1  O   -1.032115
     2  O   -1.032384
     3  O   -1.032614
     4  O   -1.250999
     5  P    1.097820
     6  Ca   1.416533
     7  Ca   1.416832
     8  Ca   1.416926
 Sum of Mulliken charges=   1.00000
 Atomic charges with hydrogens summed into heavy atoms:
              1
     1  O   -1.032115
     2  O   -1.032384
     3  O   -1.032614
     4  O   -1.250999
     5  P    1.097820
     6  Ca   1.416533
     7  Ca   1.416832
     8  Ca   1.416926
 Sum of Mulliken charges=   1.00000
 Electronic spatial extent (au):  <R**2>=  1510.1124
 Charge=     1.0000 electrons
 Dipole moment (field-independent basis, Debye):
    X=    -0.0019    Y=     0.0046    Z=    -8.2152  Tot=     8.2152
 Quadrupole moment (field-independent basis, Debye-Ang):
   XX=   -39.9944   YY=   -40.0494   ZZ=   -90.0314
   XY=     0.0029   XZ=    -0.0313   YZ=     0.0238
 Traceless Quadrupole moment (field-independent basis, Debye-Ang):
   XX=    16.6974   YY=    16.6423   ZZ=   -33.3397
   XY=     0.0029   XZ=    -0.0313   YZ=     0.0238
 Octapole moment (field-independent basis, Debye-Ang**2):
  XXX=    18.5942  YYY=    55.6355  ZZZ=    -1.6050  XYY=   -18.6739
  XXY=   -55.5449  XXZ=   -46.7116  XZZ=     0.0625  YZZ=    -0.0609
  YYZ=   -46.5867  XYZ=     0.0205
 Hexadecapole moment (field-independent basis, Debye-Ang**3):
 XXXX=  -416.0141 YYYY=  -415.8939 ZZZZ=  -721.7339 XXXY=     0.0430
 XXXZ=    -5.0266 YYYX=    -0.0015 YYYZ=   -14.4924 ZZZX=    -0.1486
 ZZZY=     0.1465 XXYY=  -138.6788 XXZZ=  -187.6108 YYZZ=  -187.5774
 XXYZ=    14.6710 YYXZ=     4.8693 ZZXY=    -0.0039
 N-N= 9.527133729130D+02 E-N=-8.229902038095D+03  KE= 2.667693900425D+03
 Merz-Kollman atomic radii used.
 Read replacement radii for each type of atom:
 Rad(20) =   1.188000000000D+00
 Atom Element Radius
    1     8    1.40
    2     8    1.40
    3     8    1.40
    4     8    1.40
    5    15    1.80
    6    20    1.19
    7    20    1.19
    8    20    1.19

 **********************************************************************

            Electrostatic Properties Using The SCF Density

 **********************************************************************

       Atomic Center    1 is at   0.160295 -1.472852  0.920372
       Atomic Center    2 is at  -1.354223  0.597190  0.923362
       Atomic Center    3 is at   1.195702  0.873400  0.921952
       Atomic Center    4 is at  -0.001518  0.001154 -1.712738
       Atomic Center    5 is at   0.001207 -0.001362  1.717952
       Atomic Center    6 is at  -0.210046  1.934523 -0.568768
       Atomic Center    7 is at  -1.571541 -1.148080 -0.569658
       Atomic Center    8 is at   1.780579 -0.784979 -0.571218
     683 points will be used for fitting atomic charges
 Fitting point charges to eletrostatic potential
 Charges from ESP fit, RMS=   0.00623 RRMS=   0.03776:
 Charge=   1.00000 Dipole=     0.0389     0.0117    -8.4378 Tot=     8.4379
              1
     1  O   -0.945609
     2  O   -0.949342
     3  O   -0.942415
     4  O   -1.634937
     5  P    0.514635
     6  Ca   1.652544
     7  Ca   1.652722
     8  Ca   1.652402
 -----------------------------------------------------------------

              Electrostatic Properties (Atomic Units)

 -----------------------------------------------------------------
    Center     Electric         -------- Electric Field --------
               Potential          X             Y             Z
 -----------------------------------------------------------------
    1 Atom    -22.250749
    2 Atom    -22.251245
    3 Atom    -22.251711
    4 Atom    -22.290892
    5 Atom    -53.967964
    6 Atom    -80.043381
    7 Atom    -80.043331
    8 Atom    -80.043242
 -----------------------------------------------------------------
 1\1\GINC-N034\SP\RB3LYP\6-31+G(d,p)\Ca3O4P1(1+)\TIMN\12-Jun-2015\0\\# 
 b3lyp/6-31+G(d,p) int=ultrafine pop=(ReadRadii,MK)\\Ca3PO4_56.mol2_plu
 sQ.z51470.zip.xyz\\1,1\O,0,0.16323,-1.47253,0.92037\O,0,-1.35541,0.594
 49,0.92336\O,0,1.19396,0.87578,0.92195\O,0,-0.00152,0.00115,-1.71274\P
 ,0,0.00121,-0.00136,1.71795\Ca,0,-0.2139,1.9341,-0.56877\Ca,0,-1.56925
 ,-1.15121,-0.56966\Ca,0,1.78214,-0.78143,-0.57122\\Version=EM64T-G03Re
 vE.01\State=1-A\HF=-2675.0710342\RMSD=8.331e-05\Thermal=0.\Dipole=-0.0
 00747,0.0017995,-3.2321018\PG=C01 [X(Ca3O4P1)]\\@


 IF YOU WANT TO LEARN FROM THE THEORETICAL PHYSICISTS ABOUT THE
 METHODS WHICH THEY USE, I ADVISE YOU TO FOLLOW THIS PRINCIPLE VERY STRICTLY:
 DON'T LISTEN TO THEIR WORDS; PAY ATTENTION, INSTEAD, TO THEIR ACTIONS.
 -- A.EINSTEIN, 1934
 Job cpu time:  0 days  0 hours  1 minutes 42.9 seconds.
 File lengths (MBytes):  RWF=     32 Int=      0 D2E=      0 Chk=     11 Scr=      1
 Normal termination of Gaussian 03 at Fri Jun 12 17:44:19 2015.
