 Entering Gaussian System, Link 0=/home/timn/tmp/g03.e01/g03
 Input=Ca3PO4_129.mol2c_plusQ.z51131.zip.xyz.gjf
 Output=Ca3PO4_129.mol2c_plusQ.z51131.zip.xyz.out
 Initial command:
 /home/timn/tmp/g03.e01/l1.exe /home/timn/tmp/g03.e01/Gau-16929.inp -scrdir=/home/timn/tmp/g03.e01/
 Default is to use a total of   2 processors:
                                2 via shared-memory
                                1 via Linda
 Entering Link 1 = /home/timn/tmp/g03.e01/l1.exe PID=     16930.
  
 Copyright (c) 1988,1990,1992,1993,1995,1998,2003,2004,2007, Gaussian, Inc.
                  All Rights Reserved.
  
 This is the Gaussian(R) 03 program.  It is based on the
 the Gaussian(R) 98 system (copyright 1998, Gaussian, Inc.),
 the Gaussian(R) 94 system (copyright 1995, Gaussian, Inc.),
 the Gaussian 92(TM) system (copyright 1992, Gaussian, Inc.),
 the Gaussian 90(TM) system (copyright 1990, Gaussian, Inc.),
 the Gaussian 88(TM) system (copyright 1988, Gaussian, Inc.),
 the Gaussian 86(TM) system (copyright 1986, Carnegie Mellon
 University), and the Gaussian 82(TM) system (copyright 1983,
 Carnegie Mellon University). Gaussian is a federally registered
 trademark of Gaussian, Inc.
  
 This software contains proprietary and confidential information,
 including trade secrets, belonging to Gaussian, Inc.
  
 This software is provided under written license and may be
 used, copied, transmitted, or stored only in accord with that
 written license.
  
 The following legend is applicable only to US Government
 contracts under FAR:
  
                    RESTRICTED RIGHTS LEGEND
  
 Use, reproduction and disclosure by the US Government is
 subject to restrictions as set forth in subparagraphs (a)
 and (c) of the Commercial Computer Software - Restricted
 Rights clause in FAR 52.227-19.
  
 Gaussian, Inc.
 340 Quinnipiac St., Bldg. 40, Wallingford CT 06492
  
  
 ---------------------------------------------------------------
 Warning -- This program may not be used in any manner that
 competes with the business of Gaussian, Inc. or will provide
 assistance to any competitor of Gaussian, Inc.  The licensee
 of this program is prohibited from giving any competitor of
 Gaussian, Inc. access to this program.  By using this program,
 the user acknowledges that Gaussian, Inc. is engaged in the
 business of creating and licensing software in the field of
 computational chemistry and represents and warrants to the
 licensee that it is not a competitor of Gaussian, Inc. and that
 it will not use this program in any manner prohibited above.
 ---------------------------------------------------------------
  

 Cite this work as:
 Gaussian 03, Revision E.01,
 M. J. Frisch, G. W. Trucks, H. B. Schlegel, G. E. Scuseria, 
 M. A. Robb, J. R. Cheeseman, J. A. Montgomery, Jr., T. Vreven, 
 K. N. Kudin, J. C. Burant, J. M. Millam, S. S. Iyengar, J. Tomasi, 
 V. Barone, B. Mennucci, M. Cossi, G. Scalmani, N. Rega, 
 G. A. Petersson, H. Nakatsuji, M. Hada, M. Ehara, K. Toyota, 
 R. Fukuda, J. Hasegawa, M. Ishida, T. Nakajima, Y. Honda, O. Kitao, 
 H. Nakai, M. Klene, X. Li, J. E. Knox, H. P. Hratchian, J. B. Cross, 
 V. Bakken, C. Adamo, J. Jaramillo, R. Gomperts, R. E. Stratmann, 
 O. Yazyev, A. J. Austin, R. Cammi, C. Pomelli, J. W. Ochterski, 
 P. Y. Ayala, K. Morokuma, G. A. Voth, P. Salvador, J. J. Dannenberg, 
 V. G. Zakrzewski, S. Dapprich, A. D. Daniels, M. C. Strain, 
 O. Farkas, D. K. Malick, A. D. Rabuck, K. Raghavachari, 
 J. B. Foresman, J. V. Ortiz, Q. Cui, A. G. Baboul, S. Clifford, 
 J. Cioslowski, B. B. Stefanov, G. Liu, A. Liashenko, P. Piskorz, 
 I. Komaromi, R. L. Martin, D. J. Fox, T. Keith, M. A. Al-Laham, 
 C. Y. Peng, A. Nanayakkara, M. Challacombe, P. M. W. Gill, 
 B. Johnson, W. Chen, M. W. Wong, C. Gonzalez, and J. A. Pople, 
 Gaussian, Inc., Wallingford CT, 2004.
 
 ******************************************
 Gaussian 03:  EM64T-G03RevE.01 11-Sep-2007
                12-Jun-2015 
 ******************************************
 %nproc=2
 Will use up to    2 processors via shared memory.
 Default route:  MP2=Direct MaxDisk=2000MB
 ----------------------------------------------------
 # b3lyp/6-31+G(d,p) int=ultrafine pop=(ReadRadii,MK)
 ----------------------------------------------------

 Warning!  SCF SP cutoffs with diffuse functions may be unreliable.
 Consider SCF=Tight

 1/38=1/1;
 2/17=6,18=5,40=1/2;
 3/5=1,6=6,7=111,11=2,16=1,25=1,30=1,74=-5,75=5/1,2,3;
 4//1;
 5/5=2,32=1,38=5/2;
 6/7=2,8=2,9=2,10=2,15=8,20=101,28=1/1,2;
 99/5=1,9=1/99;
 -------------------------------------
 Ca3PO4_129.mol2c_plusQ.z51131.zip.xyz
 -------------------------------------
 Symbolic Z-matrix:
 Charge =  1 Multiplicity = 1
 O                    -2.77609  -0.52338   0.41924 
 O                    -2.29911  -0.07078  -0.91929 
 O                    -1.65719  -0.26776   1.37333 
 O                     1.33124  -0.81577  -0.24139 
 P                     1.24606   0.88168  -0.92827 
 Ca                   -1.34065   1.7145    0.20651 
 Ca                   -0.75287  -1.656    -0.24971 
 Ca                    3.31944  -0.04868   0.48665 
 
                          Input orientation:                          
 ---------------------------------------------------------------------
 Center     Atomic     Atomic              Coordinates (Angstroms)
 Number     Number      Type              X           Y           Z
 ---------------------------------------------------------------------
    1          8             0       -2.776090   -0.523380    0.419240
    2          8             0       -2.299110   -0.070780   -0.919290
    3          8             0       -1.657190   -0.267760    1.373330
    4          8             0        1.331240   -0.815770   -0.241390
    5         15             0        1.246060    0.881680   -0.928270
    6         20             0       -1.340650    1.714500    0.206510
    7         20             0       -0.752870   -1.656000   -0.249710
    8         20             0        3.319440   -0.048680    0.486650
 ---------------------------------------------------------------------
                    Distance matrix (angstroms):
                    1          2          3          4          5
     1  O    0.000000
     2  O    1.491315   0.000000
     3  O    1.492503   2.388926   0.000000
     4  O    4.170382   3.767492   3.440690   0.000000
     5  P    4.468520   3.670898   3.879102   1.833138   0.000000
     6  Ca   2.667180   2.318037   2.321857   3.707004   2.944891
     7  Ca   2.413243   2.313464   2.319324   2.247125   3.300907
     8  Ca   6.114358   5.791827   5.059747   2.251979   2.677027
                    6          7          8
     6  Ca   0.000000
     7  Ca   3.451651   0.000000
     8  Ca   4.990363   4.439528   0.000000
 Stoichiometry    Ca3O4P(1+)
 Framework group  C1[X(Ca3O4P)]
 Deg. of freedom    18
 Full point group                 C1
 Largest Abelian subgroup         C1      NOp   1
 Largest concise Abelian subgroup C1      NOp   1
                         Standard orientation:                         
 ---------------------------------------------------------------------
 Center     Atomic     Atomic              Coordinates (Angstroms)
 Number     Number      Type              X           Y           Z
 ---------------------------------------------------------------------
    1          8             0       -2.776089   -0.523389    0.419239
    2          8             0       -2.299111   -0.070787   -0.919291
    3          8             0       -1.657190   -0.267765    1.373329
    4          8             0        1.331241   -0.815767   -0.241391
    5         15             0        1.246057    0.881683   -0.928271
    6         20             0       -1.340656    1.714495    0.206509
    7         20             0       -0.752866   -1.656003   -0.249711
    8         20             0        3.319439   -0.048671    0.486649
 ---------------------------------------------------------------------
 Rotational constants (GHZ):      1.4225905      0.5315538      0.4470504
 Standard basis: 6-31+G(d,p) (6D, 7F)
 There are   180 symmetry adapted basis functions of A   symmetry.
 Integral buffers will be    131072 words long.
 Raffenetti 2 integral format.
 Two-electron integral symmetry is turned on.
   180 basis functions,   424 primitive gaussians,   180 cartesian basis functions
    53 alpha electrons       53 beta electrons
       nuclear repulsion energy       838.0153065597 Hartrees.
 NAtoms=    8 NActive=    8 NUniq=    8 SFac= 7.50D-01 NAtFMM=   80 NAOKFM=F Big=F
 One-electron integrals computed using PRISM.
 NBasis=   180 RedAO= T  NBF=   180
 NBsUse=   180 1.00D-06 NBFU=   180
 Harris functional with IExCor=  402 diagonalized for initial guess.
 ExpMin= 7.10D-03 ExpMax= 3.53D+04 ExpMxC= 5.30D+03 IAcc=3 IRadAn=         5 AccDes= 0.00D+00
 HarFok:  IExCor= 402 AccDes= 0.00D+00 IRadAn=         5 IDoV=1
 ScaDFX=  1.000000  1.000000  1.000000  1.000000
 Initial guess orbital symmetries:
       Occupied  (A) (A) (A) (A) (A) (A) (A) (A) (A) (A) (A) (A)
                 (A) (A) (A) (A) (A) (A) (A) (A) (A) (A) (A) (A)
                 (A) (A) (A) (A) (A) (A) (A) (A) (A) (A) (A) (A)
                 (A) (A) (A) (A) (A) (A) (A) (A) (A) (A) (A) (A)
                 (A) (A) (A) (A) (A)
       Virtual   (A) (A) (A) (A) (A) (A) (A) (A) (A) (A) (A) (A)
                 (A) (A) (A) (A) (A) (A) (A) (A) (A) (A) (A) (A)
                 (A) (A) (A) (A) (A) (A) (A) (A) (A) (A) (A) (A)
                 (A) (A) (A) (A) (A) (A) (A) (A) (A) (A) (A) (A)
                 (A) (A) (A) (A) (A) (A) (A) (A) (A) (A) (A) (A)
                 (A) (A) (A) (A) (A) (A) (A) (A) (A) (A) (A) (A)
                 (A) (A) (A) (A) (A) (A) (A) (A) (A) (A) (A) (A)
                 (A) (A) (A) (A) (A) (A) (A) (A) (A) (A) (A) (A)
                 (A) (A) (A) (A) (A) (A) (A) (A) (A) (A) (A) (A)
                 (A) (A) (A) (A) (A) (A) (A) (A) (A) (A) (A) (A)
                 (A) (A) (A) (A) (A) (A) (A)
 The electronic state of the initial guess is 1-A.
 Requested convergence on RMS density matrix=1.00D-04 within 128 cycles.
 Requested convergence on MAX density matrix=1.00D-02.
 Requested convergence on             energy=1.00D-02.
 No special actions if energy rises.
 EnCoef did     2 forward-backward iterations
 EnCoef did     5 forward-backward iterations
 SCF Done:  E(RB+HF-LYP) =  -2674.73729407     A.U. after   10 cycles
             Convg  =    0.5407D-04             -V/T =  2.0027
             S**2   =   0.0000

 **********************************************************************

            Population analysis using the SCF density.

 **********************************************************************

 Orbital symmetries:
       Occupied  (A) (A) (A) (A) (A) (A) (A) (A) (A) (A) (A) (A)
                 (A) (A) (A) (A) (A) (A) (A) (A) (A) (A) (A) (A)
                 (A) (A) (A) (A) (A) (A) (A) (A) (A) (A) (A) (A)
                 (A) (A) (A) (A) (A) (A) (A) (A) (A) (A) (A) (A)
                 (A) (A) (A) (A) (A)
       Virtual   (A) (A) (A) (A) (A) (A) (A) (A) (A) (A) (A) (A)
                 (A) (A) (A) (A) (A) (A) (A) (A) (A) (A) (A) (A)
                 (A) (A) (A) (A) (A) (A) (A) (A) (A) (A) (A) (A)
                 (A) (A) (A) (A) (A) (A) (A) (A) (A) (A) (A) (A)
                 (A) (A) (A) (A) (A) (A) (A) (A) (A) (A) (A) (A)
                 (A) (A) (A) (A) (A) (A) (A) (A) (A) (A) (A) (A)
                 (A) (A) (A) (A) (A) (A) (A) (A) (A) (A) (A) (A)
                 (A) (A) (A) (A) (A) (A) (A) (A) (A) (A) (A) (A)
                 (A) (A) (A) (A) (A) (A) (A) (A) (A) (A) (A) (A)
                 (A) (A) (A) (A) (A) (A) (A) (A) (A) (A) (A) (A)
                 (A) (A) (A) (A) (A) (A) (A)
 The electronic state is 1-A.
 Alpha  occ. eigenvalues -- -145.53549-145.50105-145.49797 -77.15714 -19.34822
 Alpha  occ. eigenvalues --  -19.25819 -19.25819 -19.21430 -15.60459 -15.56992
 Alpha  occ. eigenvalues --  -15.56621 -12.73674 -12.73632 -12.73560 -12.70192
 Alpha  occ. eigenvalues --  -12.70169 -12.70113 -12.69850 -12.69821 -12.69721
 Alpha  occ. eigenvalues --   -6.62301  -4.78832  -4.78289  -4.78019  -1.97498
 Alpha  occ. eigenvalues --   -1.94174  -1.93827  -1.25039  -1.24763  -1.24704
 Alpha  occ. eigenvalues --   -1.24653  -1.21641  -1.21533  -1.21397  -1.21288
 Alpha  occ. eigenvalues --   -1.21145  -1.17323  -1.01699  -0.99570  -0.86185
 Alpha  occ. eigenvalues --   -0.61561  -0.55741  -0.53570  -0.53244  -0.44412
 Alpha  occ. eigenvalues --   -0.42543  -0.41698  -0.41394  -0.39674  -0.37755
 Alpha  occ. eigenvalues --   -0.33657  -0.29162  -0.26237
 Alpha virt. eigenvalues --   -0.21871  -0.17841  -0.17489  -0.13765  -0.13417
 Alpha virt. eigenvalues --   -0.12059  -0.11137  -0.10381  -0.09880  -0.09440
 Alpha virt. eigenvalues --   -0.07963  -0.07222  -0.06560  -0.06109  -0.05813
 Alpha virt. eigenvalues --   -0.05624  -0.05163  -0.05025  -0.04741  -0.04254
 Alpha virt. eigenvalues --   -0.04044  -0.04011  -0.03808  -0.03468  -0.03250
 Alpha virt. eigenvalues --   -0.02786  -0.02511  -0.01191  -0.00380   0.00500
 Alpha virt. eigenvalues --    0.00568   0.01555   0.03229   0.03709   0.04061
 Alpha virt. eigenvalues --    0.04205   0.04559   0.05334   0.05463   0.05865
 Alpha virt. eigenvalues --    0.06438   0.06497   0.06920   0.07266   0.07544
 Alpha virt. eigenvalues --    0.08553   0.09363   0.09972   0.10407   0.11042
 Alpha virt. eigenvalues --    0.11908   0.13312   0.14911   0.15475   0.16273
 Alpha virt. eigenvalues --    0.16929   0.17993   0.19947   0.21477   0.22979
 Alpha virt. eigenvalues --    0.24206   0.24492   0.26260   0.26890   0.28491
 Alpha virt. eigenvalues --    0.30002   0.31607   0.32503   0.34489   0.35060
 Alpha virt. eigenvalues --    0.38305   0.39621   0.42041   0.43092   0.45208
 Alpha virt. eigenvalues --    0.51270   0.52952   0.56110   0.58396   0.64049
 Alpha virt. eigenvalues --    0.68876   0.76341   0.80806   0.83453   0.87296
 Alpha virt. eigenvalues --    1.01810   1.08518   1.10333   1.10820   1.11890
 Alpha virt. eigenvalues --    1.14881   1.16019   1.17274   1.20011   1.21740
 Alpha virt. eigenvalues --    1.23192   1.23930   1.28257   1.41842   1.42537
 Alpha virt. eigenvalues --    1.51713   1.53946   1.58347   1.61919   1.70193
 Alpha virt. eigenvalues --    1.72322   1.73978   1.79237   1.79897   1.80636
 Alpha virt. eigenvalues --    1.84692   1.86501   1.87067   1.90650   1.92313
 Alpha virt. eigenvalues --    1.95794   2.20594   2.23769   2.24125   2.45425
 Alpha virt. eigenvalues --    3.03559   3.08167   3.42718   3.95637   4.01480
 Alpha virt. eigenvalues --    4.07851   4.29047
          Condensed to atoms (all electrons):
              1          2          3          4          5          6
     1  O    7.945466   0.031077   0.045926  -0.005025   0.001394   0.011703
     2  O    0.031077   8.403611   0.031080   0.007499  -0.034585   0.081989
     3  O    0.045926   0.031080   8.396386   0.017536  -0.047646   0.078420
     4  O   -0.005025   0.007499   0.017536   9.196012  -0.449315  -0.018972
     5  P    0.001394  -0.034585  -0.047646  -0.449315  15.664033   0.269527
     6  Ca   0.011703   0.081989   0.078420  -0.018972   0.269527  18.416303
     7  Ca   0.044728   0.097014   0.083092   0.111697  -0.058963  -0.060740
     8  Ca  -0.002717   0.000886   0.003588  -0.002794   0.364602   0.012379
              7          8
     1  O    0.044728  -0.002717
     2  O    0.097014   0.000886
     3  O    0.083092   0.003588
     4  O    0.111697  -0.002794
     5  P   -0.058963   0.364602
     6  Ca  -0.060740   0.012379
     7  Ca  18.323277  -0.022422
     8  Ca  -0.022422  18.472993
 Mulliken atomic charges:
              1
     1  O   -0.072552
     2  O   -0.618572
     3  O   -0.608382
     4  O   -0.856640
     5  P   -0.709047
     6  Ca   1.209390
     7  Ca   1.482317
     8  Ca   1.173486
 Sum of Mulliken charges=   1.00000
 Atomic charges with hydrogens summed into heavy atoms:
              1
     1  O   -0.072552
     2  O   -0.618572
     3  O   -0.608382
     4  O   -0.856640
     5  P   -0.709047
     6  Ca   1.209390
     7  Ca   1.482317
     8  Ca   1.173486
 Sum of Mulliken charges=   1.00000
 Electronic spatial extent (au):  <R**2>=  2293.2794
 Charge=     1.0000 electrons
 Dipole moment (field-independent basis, Debye):
    X=     7.1786    Y=    -1.8151    Z=     3.3372  Tot=     8.1218
 Quadrupole moment (field-independent basis, Debye-Ang):
   XX=   -37.9004   YY=   -41.3835   ZZ=   -84.9455
   XY=   -14.0571   XZ=    13.0630   YZ=     6.8925
 Traceless Quadrupole moment (field-independent basis, Debye-Ang):
   XX=    16.8427   YY=    13.3596   ZZ=   -30.2023
   XY=   -14.0571   XZ=    13.0630   YZ=     6.8925
 Octapole moment (field-independent basis, Debye-Ang**2):
  XXX=   198.7159  YYY=   -31.0059  ZZZ=    12.7616  XYY=   -67.6582
  XXY=     2.1086  XXZ=    41.5956  XZZ=     3.5987  YZZ=   -10.8154
  YYZ=     1.6780  XYZ=    -8.6969
 Hexadecapole moment (field-independent basis, Debye-Ang**3):
 XXXX= -1321.5832 YYYY=  -440.8598 ZZZZ=  -362.8378 XXXY=  -123.3612
 XXXZ=   102.5316 YYYX=   -64.0435 YYYZ=    27.5875 ZZZX=    41.3648
 ZZZY=    26.4614 XXYY=  -372.3662 XXZZ=  -398.4136 YYZZ=  -150.3662
 XXYZ=    16.2380 YYXZ=     6.0266 ZZXY=   -23.2493
 N-N= 8.380153065597D+02 E-N=-7.999164662504D+03  KE= 2.667614750394D+03
 Merz-Kollman atomic radii used.
 Read replacement radii for each type of atom:
 Rad(20) =   1.188000000000D+00
 Atom Element Radius
    1     8    1.40
    2     8    1.40
    3     8    1.40
    4     8    1.40
    5    15    1.80
    6    20    1.19
    7    20    1.19
    8    20    1.19

 **********************************************************************

            Electrostatic Properties Using The SCF Density

 **********************************************************************

       Atomic Center    1 is at  -2.776089 -0.523389  0.419239
       Atomic Center    2 is at  -2.299111 -0.070787 -0.919291
       Atomic Center    3 is at  -1.657190 -0.267765  1.373329
       Atomic Center    4 is at   1.331241 -0.815767 -0.241391
       Atomic Center    5 is at   1.246057  0.881683 -0.928271
       Atomic Center    6 is at  -1.340656  1.714495  0.206509
       Atomic Center    7 is at  -0.752866 -1.656003 -0.249711
       Atomic Center    8 is at   3.319439 -0.048671  0.486649
     774 points will be used for fitting atomic charges
 Fitting point charges to eletrostatic potential
 Charges from ESP fit, RMS=   0.01390 RRMS=   0.09058:
 Charge=   1.00000 Dipole=     8.1445    -1.2230     4.6211 Tot=     9.4437
              1
     1  O   -0.078109
     2  O   -0.609435
     3  O   -0.842308
     4  O   -0.764955
     5  P   -0.992429
     6  Ca   1.427554
     7  Ca   1.631003
     8  Ca   1.228679
 -----------------------------------------------------------------

              Electrostatic Properties (Atomic Units)

 -----------------------------------------------------------------
    Center     Electric         -------- Electric Field --------
               Potential          X             Y             Z
 -----------------------------------------------------------------
    1 Atom    -22.128870
    2 Atom    -22.213333
    3 Atom    -22.213527
    4 Atom    -22.247763
    5 Atom    -54.060067
    6 Atom    -80.040523
    7 Atom    -80.042168
    8 Atom    -80.007563
 -----------------------------------------------------------------
 1\1\GINC-N021\SP\RB3LYP\6-31+G(d,p)\Ca3O4P1(1+)\TIMN\12-Jun-2015\0\\# 
 b3lyp/6-31+G(d,p) int=ultrafine pop=(ReadRadii,MK)\\Ca3PO4_129.mol2c_p
 lusQ.z51131.zip.xyz\\1,1\O,0,-2.77609,-0.52338,0.41924\O,0,-2.29911,-0
 .07078,-0.91929\O,0,-1.65719,-0.26776,1.37333\O,0,1.33124,-0.81577,-0.
 24139\P,0,1.24606,0.88168,-0.92827\Ca,0,-1.34065,1.7145,0.20651\Ca,0,-
 0.75287,-1.656,-0.24971\Ca,0,3.31944,-0.04868,0.48665\\Version=EM64T-G
 03RevE.01\State=1-A\HF=-2674.7372941\RMSD=5.407e-05\Thermal=0.\Dipole=
 2.8242595,-0.7141187,1.3129415\PG=C01 [X(Ca3O4P1)]\\@


 BOOKS ARE LIGHTHOUSES ERECTED IN THE GREAT SEA OF TIME.
     -- E.P.WHIPPLE
 Job cpu time:  0 days  0 hours  1 minutes 52.9 seconds.
 File lengths (MBytes):  RWF=     32 Int=      0 D2E=      0 Chk=     11 Scr=      1
 Normal termination of Gaussian 03 at Fri Jun 12 17:37:27 2015.
