 Entering Gaussian System, Link 0=/home/timn/tmp/g03.e01/g03
 Input=Ca3PO4_183.mol2c_plusQ.z51191.zip.xyz.gjf
 Output=Ca3PO4_183.mol2c_plusQ.z51191.zip.xyz.out
 Initial command:
 /home/timn/tmp/g03.e01/l1.exe /home/timn/tmp/g03.e01/Gau-16106.inp -scrdir=/home/timn/tmp/g03.e01/
 Default is to use a total of   2 processors:
                                2 via shared-memory
                                1 via Linda
 Entering Link 1 = /home/timn/tmp/g03.e01/l1.exe PID=     16107.
  
 Copyright (c) 1988,1990,1992,1993,1995,1998,2003,2004,2007, Gaussian, Inc.
                  All Rights Reserved.
  
 This is the Gaussian(R) 03 program.  It is based on the
 the Gaussian(R) 98 system (copyright 1998, Gaussian, Inc.),
 the Gaussian(R) 94 system (copyright 1995, Gaussian, Inc.),
 the Gaussian 92(TM) system (copyright 1992, Gaussian, Inc.),
 the Gaussian 90(TM) system (copyright 1990, Gaussian, Inc.),
 the Gaussian 88(TM) system (copyright 1988, Gaussian, Inc.),
 the Gaussian 86(TM) system (copyright 1986, Carnegie Mellon
 University), and the Gaussian 82(TM) system (copyright 1983,
 Carnegie Mellon University). Gaussian is a federally registered
 trademark of Gaussian, Inc.
  
 This software contains proprietary and confidential information,
 including trade secrets, belonging to Gaussian, Inc.
  
 This software is provided under written license and may be
 used, copied, transmitted, or stored only in accord with that
 written license.
  
 The following legend is applicable only to US Government
 contracts under FAR:
  
                    RESTRICTED RIGHTS LEGEND
  
 Use, reproduction and disclosure by the US Government is
 subject to restrictions as set forth in subparagraphs (a)
 and (c) of the Commercial Computer Software - Restricted
 Rights clause in FAR 52.227-19.
  
 Gaussian, Inc.
 340 Quinnipiac St., Bldg. 40, Wallingford CT 06492
  
  
 ---------------------------------------------------------------
 Warning -- This program may not be used in any manner that
 competes with the business of Gaussian, Inc. or will provide
 assistance to any competitor of Gaussian, Inc.  The licensee
 of this program is prohibited from giving any competitor of
 Gaussian, Inc. access to this program.  By using this program,
 the user acknowledges that Gaussian, Inc. is engaged in the
 business of creating and licensing software in the field of
 computational chemistry and represents and warrants to the
 licensee that it is not a competitor of Gaussian, Inc. and that
 it will not use this program in any manner prohibited above.
 ---------------------------------------------------------------
  

 Cite this work as:
 Gaussian 03, Revision E.01,
 M. J. Frisch, G. W. Trucks, H. B. Schlegel, G. E. Scuseria, 
 M. A. Robb, J. R. Cheeseman, J. A. Montgomery, Jr., T. Vreven, 
 K. N. Kudin, J. C. Burant, J. M. Millam, S. S. Iyengar, J. Tomasi, 
 V. Barone, B. Mennucci, M. Cossi, G. Scalmani, N. Rega, 
 G. A. Petersson, H. Nakatsuji, M. Hada, M. Ehara, K. Toyota, 
 R. Fukuda, J. Hasegawa, M. Ishida, T. Nakajima, Y. Honda, O. Kitao, 
 H. Nakai, M. Klene, X. Li, J. E. Knox, H. P. Hratchian, J. B. Cross, 
 V. Bakken, C. Adamo, J. Jaramillo, R. Gomperts, R. E. Stratmann, 
 O. Yazyev, A. J. Austin, R. Cammi, C. Pomelli, J. W. Ochterski, 
 P. Y. Ayala, K. Morokuma, G. A. Voth, P. Salvador, J. J. Dannenberg, 
 V. G. Zakrzewski, S. Dapprich, A. D. Daniels, M. C. Strain, 
 O. Farkas, D. K. Malick, A. D. Rabuck, K. Raghavachari, 
 J. B. Foresman, J. V. Ortiz, Q. Cui, A. G. Baboul, S. Clifford, 
 J. Cioslowski, B. B. Stefanov, G. Liu, A. Liashenko, P. Piskorz, 
 I. Komaromi, R. L. Martin, D. J. Fox, T. Keith, M. A. Al-Laham, 
 C. Y. Peng, A. Nanayakkara, M. Challacombe, P. M. W. Gill, 
 B. Johnson, W. Chen, M. W. Wong, C. Gonzalez, and J. A. Pople, 
 Gaussian, Inc., Wallingford CT, 2004.
 
 ******************************************
 Gaussian 03:  EM64T-G03RevE.01 11-Sep-2007
                12-Jun-2015 
 ******************************************
 %nproc=2
 Will use up to    2 processors via shared memory.
 Default route:  MP2=Direct MaxDisk=2000MB
 ----------------------------------------------------
 # b3lyp/6-31+G(d,p) int=ultrafine pop=(ReadRadii,MK)
 ----------------------------------------------------

 Warning!  SCF SP cutoffs with diffuse functions may be unreliable.
 Consider SCF=Tight

 1/38=1/1;
 2/17=6,18=5,40=1/2;
 3/5=1,6=6,7=111,11=2,16=1,25=1,30=1,74=-5,75=5/1,2,3;
 4//1;
 5/5=2,32=1,38=5/2;
 6/7=2,8=2,9=2,10=2,15=8,20=101,28=1/1,2;
 99/5=1,9=1/99;
 -------------------------------------
 Ca3PO4_183.mol2c_plusQ.z51191.zip.xyz
 -------------------------------------
 Symbolic Z-matrix:
 Charge =  1 Multiplicity = 1
 O                    -1.18855  -0.93844   1.36125 
 O                    -0.21231   1.49454   1.36392 
 O                     0.00061  -0.00083  -0.68782 
 O                     1.4069   -0.56733   1.35988 
 P                     0.00188  -0.00343   1.06476 
 Ca                   -0.34162   2.35517  -0.71555 
 Ca                   -1.87445  -1.46775  -0.71981 
 Ca                    2.212    -0.88002  -0.72211 
 
                          Input orientation:                          
 ---------------------------------------------------------------------
 Center     Atomic     Atomic              Coordinates (Angstroms)
 Number     Number      Type              X           Y           Z
 ---------------------------------------------------------------------
    1          8             0       -1.188550   -0.938440    1.361250
    2          8             0       -0.212310    1.494540    1.363920
    3          8             0        0.000610   -0.000830   -0.687820
    4          8             0        1.406900   -0.567330    1.359880
    5         15             0        0.001880   -0.003430    1.064760
    6         20             0       -0.341620    2.355170   -0.715550
    7         20             0       -1.874450   -1.467750   -0.719810
    8         20             0        2.212000   -0.880020   -0.722110
 ---------------------------------------------------------------------
                    Distance matrix (angstroms):
                    1          2          3          4          5
     1  O    0.000000
     2  O    2.621535   0.000000
     3  O    2.547921   2.547764   0.000000
     4  O    2.621848   2.621672   2.547871   0.000000
     5  P    1.542489   1.542494   1.752582   1.542453   0.000000
     6  Ca   3.984753   2.254241   2.380888   3.988200   2.974977
     7  Ca   2.254205   3.984947   2.380909   3.987872   2.974817
     8  Ca   3.988426   3.983382   2.379999   2.254028   2.974213
                    6          7          8
     6  Ca   0.000000
     7  Ca   4.118774   0.000000
     8  Ca   4.121586   4.128499   0.000000
 Stoichiometry    Ca3O4P(1+)
 Framework group  C1[X(Ca3O4P)]
 Deg. of freedom    18
 Full point group                 C1
 Largest Abelian subgroup         C1      NOp   1
 Largest concise Abelian subgroup C1      NOp   1
                         Standard orientation:                         
 ---------------------------------------------------------------------
 Center     Atomic     Atomic              Coordinates (Angstroms)
 Number     Number      Type              X           Y           Z
 ---------------------------------------------------------------------
    1          8             0       -1.188584   -0.938398    1.361251
    2          8             0       -0.212256    1.494547    1.363921
    3          8             0        0.000610   -0.000831   -0.687819
    4          8             0        1.406880   -0.567381    1.359881
    5         15             0        0.001880   -0.003431    1.064761
    6         20             0       -0.341535    2.355182   -0.715549
    7         20             0       -1.874503   -1.467683   -0.719809
    8         20             0        2.211968   -0.880100   -0.722109
 ---------------------------------------------------------------------
 Rotational constants (GHZ):      0.8604811      0.8576788      0.6403261
 Standard basis: 6-31+G(d,p) (6D, 7F)
 There are   180 symmetry adapted basis functions of A   symmetry.
 Integral buffers will be    131072 words long.
 Raffenetti 2 integral format.
 Two-electron integral symmetry is turned on.
   180 basis functions,   424 primitive gaussians,   180 cartesian basis functions
    53 alpha electrons       53 beta electrons
       nuclear repulsion energy       899.3150911289 Hartrees.
 NAtoms=    8 NActive=    8 NUniq=    8 SFac= 7.50D-01 NAtFMM=   80 NAOKFM=F Big=F
 One-electron integrals computed using PRISM.
 NBasis=   180 RedAO= T  NBF=   180
 NBsUse=   180 1.00D-06 NBFU=   180
 Harris functional with IExCor=  402 diagonalized for initial guess.
 ExpMin= 7.10D-03 ExpMax= 3.53D+04 ExpMxC= 5.30D+03 IAcc=3 IRadAn=         5 AccDes= 0.00D+00
 HarFok:  IExCor= 402 AccDes= 0.00D+00 IRadAn=         5 IDoV=1
 ScaDFX=  1.000000  1.000000  1.000000  1.000000
 Initial guess orbital symmetries:
       Occupied  (A) (A) (A) (A) (A) (A) (A) (A) (A) (A) (A) (A)
                 (A) (A) (A) (A) (A) (A) (A) (A) (A) (A) (A) (A)
                 (A) (A) (A) (A) (A) (A) (A) (A) (A) (A) (A) (A)
                 (A) (A) (A) (A) (A) (A) (A) (A) (A) (A) (A) (A)
                 (A) (A) (A) (A) (A)
       Virtual   (A) (A) (A) (A) (A) (A) (A) (A) (A) (A) (A) (A)
                 (A) (A) (A) (A) (A) (A) (A) (A) (A) (A) (A) (A)
                 (A) (A) (A) (A) (A) (A) (A) (A) (A) (A) (A) (A)
                 (A) (A) (A) (A) (A) (A) (A) (A) (A) (A) (A) (A)
                 (A) (A) (A) (A) (A) (A) (A) (A) (A) (A) (A) (A)
                 (A) (A) (A) (A) (A) (A) (A) (A) (A) (A) (A) (A)
                 (A) (A) (A) (A) (A) (A) (A) (A) (A) (A) (A) (A)
                 (A) (A) (A) (A) (A) (A) (A) (A) (A) (A) (A) (A)
                 (A) (A) (A) (A) (A) (A) (A) (A) (A) (A) (A) (A)
                 (A) (A) (A) (A) (A) (A) (A) (A) (A) (A) (A) (A)
                 (A) (A) (A) (A) (A) (A) (A)
 The electronic state of the initial guess is 1-A.
 Requested convergence on RMS density matrix=1.00D-04 within 128 cycles.
 Requested convergence on MAX density matrix=1.00D-02.
 Requested convergence on             energy=1.00D-02.
 No special actions if energy rises.
 SCF Done:  E(RB+HF-LYP) =  -2675.01212966     A.U. after   10 cycles
             Convg  =    0.2888D-04             -V/T =  2.0027
             S**2   =   0.0000

 **********************************************************************

            Population analysis using the SCF density.

 **********************************************************************

 Orbital symmetries:
       Occupied  (A) (A) (A) (A) (A) (A) (A) (A) (A) (A) (A) (A)
                 (A) (A) (A) (A) (A) (A) (A) (A) (A) (A) (A) (A)
                 (A) (A) (A) (A) (A) (A) (A) (A) (A) (A) (A) (A)
                 (A) (A) (A) (A) (A) (A) (A) (A) (A) (A) (A) (A)
                 (A) (A) (A) (A) (A)
       Virtual   (A) (A) (A) (A) (A) (A) (A) (A) (A) (A) (A) (A)
                 (A) (A) (A) (A) (A) (A) (A) (A) (A) (A) (A) (A)
                 (A) (A) (A) (A) (A) (A) (A) (A) (A) (A) (A) (A)
                 (A) (A) (A) (A) (A) (A) (A) (A) (A) (A) (A) (A)
                 (A) (A) (A) (A) (A) (A) (A) (A) (A) (A) (A) (A)
                 (A) (A) (A) (A) (A) (A) (A) (A) (A) (A) (A) (A)
                 (A) (A) (A) (A) (A) (A) (A) (A) (A) (A) (A) (A)
                 (A) (A) (A) (A) (A) (A) (A) (A) (A) (A) (A) (A)
                 (A) (A) (A) (A) (A) (A) (A) (A) (A) (A) (A) (A)
                 (A) (A) (A) (A) (A) (A) (A) (A) (A) (A) (A) (A)
                 (A) (A) (A) (A) (A) (A) (A)
 The electronic state is 1-A.
 Alpha  occ. eigenvalues -- -145.53745-145.53740-145.53715 -77.32318 -19.26067
 Alpha  occ. eigenvalues --  -19.22410 -19.22398 -19.22377 -15.60638 -15.60633
 Alpha  occ. eigenvalues --  -15.60610 -12.73865 -12.73860 -12.73836 -12.73800
 Alpha  occ. eigenvalues --  -12.73795 -12.73771 -12.73745 -12.73740 -12.73716
 Alpha  occ. eigenvalues --   -6.76688  -4.93230  -4.92932  -4.92932  -1.97699
 Alpha  occ. eigenvalues --   -1.97692  -1.97670  -1.25656  -1.25317  -1.25305
 Alpha  occ. eigenvalues --   -1.25266  -1.25028  -1.25013  -1.24991  -1.24912
 Alpha  occ. eigenvalues --   -1.24895  -1.13300  -1.04682  -1.04673  -1.04452
 Alpha  occ. eigenvalues --   -0.63472  -0.55544  -0.53614  -0.53609  -0.47936
 Alpha  occ. eigenvalues --   -0.47928  -0.43439  -0.43435  -0.42225  -0.40370
 Alpha  occ. eigenvalues --   -0.40358  -0.37473  -0.26992
 Alpha virt. eigenvalues --   -0.22186  -0.22162  -0.15991  -0.15978  -0.14865
 Alpha virt. eigenvalues --   -0.12675  -0.11783  -0.11766  -0.11231  -0.08623
 Alpha virt. eigenvalues --   -0.08605  -0.07723  -0.05591  -0.05586  -0.05429
 Alpha virt. eigenvalues --   -0.05328  -0.05326  -0.05026  -0.04312  -0.04311
 Alpha virt. eigenvalues --   -0.03643  -0.03426  -0.03424  -0.03216  -0.02597
 Alpha virt. eigenvalues --   -0.01509  -0.01508  -0.00212   0.00147   0.00171
 Alpha virt. eigenvalues --    0.00326   0.02753   0.03243   0.03259   0.03902
 Alpha virt. eigenvalues --    0.03908   0.04409   0.04424   0.04866   0.05142
 Alpha virt. eigenvalues --    0.06351   0.06371   0.06387   0.06709   0.06739
 Alpha virt. eigenvalues --    0.07573   0.07585   0.07725   0.09378   0.09380
 Alpha virt. eigenvalues --    0.09926   0.12923   0.13785   0.17748   0.17754
 Alpha virt. eigenvalues --    0.18542   0.19356   0.19375   0.20716   0.22497
 Alpha virt. eigenvalues --    0.22522   0.24092   0.24425   0.26208   0.27118
 Alpha virt. eigenvalues --    0.27138   0.29198   0.29212   0.33368   0.36141
 Alpha virt. eigenvalues --    0.36666   0.36678   0.47342   0.47420   0.53782
 Alpha virt. eigenvalues --    0.53786   0.56319   0.60280   0.60324   0.71129
 Alpha virt. eigenvalues --    0.77760   0.77864   0.81134   0.90367   0.97677
 Alpha virt. eigenvalues --    0.97680   1.15130   1.15807   1.15853   1.19224
 Alpha virt. eigenvalues --    1.19249   1.20341   1.22453   1.22527   1.25220
 Alpha virt. eigenvalues --    1.25224   1.25315   1.26624   1.48792   1.48797
 Alpha virt. eigenvalues --    1.52020   1.67599   1.69801   1.69806   1.70940
 Alpha virt. eigenvalues --    1.72432   1.72438   1.72934   1.80876   1.80891
 Alpha virt. eigenvalues --    1.85859   1.86277   1.86350   1.95066   2.02863
 Alpha virt. eigenvalues --    2.02869   2.20388   2.20413   2.33909   2.66363
 Alpha virt. eigenvalues --    2.75947   2.75967   3.46504   4.03215   4.03232
 Alpha virt. eigenvalues --    4.03278   4.15603
          Condensed to atoms (all electrons):
              1          2          3          4          5          6
     1  O    8.978229  -0.049364   0.099287  -0.049744  -0.094858  -0.057972
     2  O   -0.049364   8.977608   0.099510  -0.049491  -0.093513   0.004043
     3  O    0.099287   0.099510   9.675621   0.099235  -0.421514  -0.147602
     4  O   -0.049744  -0.049491   0.099235   8.979265  -0.095969  -0.057633
     5  P   -0.094858  -0.093513  -0.421514  -0.095969  13.488657   0.288774
     6  Ca  -0.057972   0.004043  -0.147602  -0.057633   0.288774  18.706334
     7  Ca   0.004879  -0.057579  -0.146533  -0.057547   0.287816   0.120092
     8  Ca  -0.057169  -0.057599  -0.145632   0.005551   0.286860   0.119311
              7          8
     1  O    0.004879  -0.057169
     2  O   -0.057579  -0.057599
     3  O   -0.146533  -0.145632
     4  O   -0.057547   0.005551
     5  P    0.287816   0.286860
     6  Ca   0.120092   0.119311
     7  Ca  18.704708   0.118132
     8  Ca   0.118132  18.702034
 Mulliken atomic charges:
              1
     1  O   -0.773287
     2  O   -0.773615
     3  O   -1.112373
     4  O   -0.773668
     5  P    1.353748
     6  Ca   1.024651
     7  Ca   1.026032
     8  Ca   1.028512
 Sum of Mulliken charges=   1.00000
 Atomic charges with hydrogens summed into heavy atoms:
              1
     1  O   -0.773287
     2  O   -0.773615
     3  O   -1.112373
     4  O   -0.773668
     5  P    1.353748
     6  Ca   1.024651
     7  Ca   1.026032
     8  Ca   1.028512
 Sum of Mulliken charges=   1.00000
 Electronic spatial extent (au):  <R**2>=  1893.1505
 Charge=     1.0000 electrons
 Dipole moment (field-independent basis, Debye):
    X=     0.0119    Y=     0.0075    Z=   -10.6814  Tot=    10.6814
 Quadrupole moment (field-independent basis, Debye-Ang):
   XX=   -46.4381   YY=   -46.6035   ZZ=   -93.5721
   XY=    -0.0110   XZ=    -0.0906   YZ=     0.1176
 Traceless Quadrupole moment (field-independent basis, Debye-Ang):
   XX=    15.7664   YY=    15.6011   ZZ=   -31.3675
   XY=    -0.0110   XZ=    -0.0906   YZ=     0.1176
 Octapole moment (field-independent basis, Debye-Ang**2):
  XXX=    22.4314  YYY=    48.2190  ZZZ=    14.8137  XYY=   -22.1080
  XXY=   -48.4247  XXZ=   -30.3941  XZZ=     0.1692  YZZ=    -0.2141
  YYZ=   -30.1928  XYZ=     0.0256
 Hexadecapole moment (field-independent basis, Debye-Ang**3):
 XXXX=  -784.0161 YYYY=  -780.5351 ZZZZ=  -697.8770 XXXY=     0.1474
 XXXZ=   -19.1794 YYYX=    -0.3375 YYYZ=   -39.3530 ZZZX=    -0.3668
 ZZZY=     0.4176 XXYY=  -261.0486 XXZZ=  -295.1116 YYZZ=  -294.5546
 XXYZ=    40.6777 YYXZ=    18.1816 ZZXY=    -0.0469
 N-N= 8.993150911289D+02 E-N=-8.118588050869D+03  KE= 2.667703460466D+03
 Merz-Kollman atomic radii used.
 Read replacement radii for each type of atom:
 Rad(20) =   1.188000000000D+00
 Atom Element Radius
    1     8    1.40
    2     8    1.40
    3     8    1.40
    4     8    1.40
    5    15    1.80
    6    20    1.19
    7    20    1.19
    8    20    1.19

 **********************************************************************

            Electrostatic Properties Using The SCF Density

 **********************************************************************

       Atomic Center    1 is at  -1.188584 -0.938398  1.361251
       Atomic Center    2 is at  -0.212256  1.494547  1.363921
       Atomic Center    3 is at   0.000610 -0.000831 -0.687819
       Atomic Center    4 is at   1.406880 -0.567381  1.359881
       Atomic Center    5 is at   0.001880 -0.003431  1.064761
       Atomic Center    6 is at  -0.341535  2.355182 -0.715549
       Atomic Center    7 is at  -1.874503 -1.467683 -0.719809
       Atomic Center    8 is at   2.211968 -0.880100 -0.722109
     667 points will be used for fitting atomic charges
 Fitting point charges to eletrostatic potential
 Charges from ESP fit, RMS=   0.02421 RRMS=   0.13929:
 Charge=   1.00000 Dipole=    -0.0287     0.0086   -14.8517 Tot=    14.8517
              1
     1  O   -0.986916
     2  O   -0.979199
     3  O   -1.545684
     4  O   -0.980171
     5  P    2.133688
     6  Ca   1.114338
     7  Ca   1.124168
     8  Ca   1.119776
 -----------------------------------------------------------------

              Electrostatic Properties (Atomic Units)

 -----------------------------------------------------------------
    Center     Electric         -------- Electric Field --------
               Potential          X             Y             Z
 -----------------------------------------------------------------
    1 Atom    -22.240503
    2 Atom    -22.241135
    3 Atom    -22.205717
    4 Atom    -22.241117
    5 Atom    -53.882640
    6 Atom    -80.004955
    7 Atom    -80.004940
    8 Atom    -80.004628
 -----------------------------------------------------------------
 1\1\GINC-N028\SP\RB3LYP\6-31+G(d,p)\Ca3O4P1(1+)\TIMN\12-Jun-2015\0\\# 
 b3lyp/6-31+G(d,p) int=ultrafine pop=(ReadRadii,MK)\\Ca3PO4_183.mol2c_p
 lusQ.z51191.zip.xyz\\1,1\O,0,-1.18855,-0.93844,1.36125\O,0,-0.21231,1.
 49454,1.36392\O,0,0.00061,-0.00083,-0.68782\O,0,1.4069,-0.56733,1.3598
 8\P,0,0.00188,-0.00343,1.06476\Ca,0,-0.34162,2.35517,-0.71555\Ca,0,-1.
 87445,-1.46775,-0.71981\Ca,0,2.212,-0.88002,-0.72211\\Version=EM64T-G0
 3RevE.01\State=1-A\HF=-2675.0121297\RMSD=2.888e-05\Thermal=0.\Dipole=0
 .0046831,0.0029363,-4.2023838\PG=C01 [X(Ca3O4P1)]\\@


 MY GROUP MEETINGS AREN'T VERY STRUCTURED.
     -- PROF. M. S. GORDON, OCT. 5, 1984
 Job cpu time:  0 days  0 hours  2 minutes  1.8 seconds.
 File lengths (MBytes):  RWF=     32 Int=      0 D2E=      0 Chk=     11 Scr=      1
 Normal termination of Gaussian 03 at Fri Jun 12 17:40:35 2015.
