 Entering Gaussian System, Link 0=/home/timn/tmp/g03.e01/g03
 Input=Ca3PO4_21.mol2_plusQ.z51431.zip.xyz.gjf
 Output=Ca3PO4_21.mol2_plusQ.z51431.zip.xyz.out
 Initial command:
 /home/timn/tmp/g03.e01/l1.exe /home/timn/tmp/g03.e01/Gau-18766.inp -scrdir=/home/timn/tmp/g03.e01/
 Default is to use a total of   2 processors:
                                2 via shared-memory
                                1 via Linda
 Entering Link 1 = /home/timn/tmp/g03.e01/l1.exe PID=     18767.
  
 Copyright (c) 1988,1990,1992,1993,1995,1998,2003,2004,2007, Gaussian, Inc.
                  All Rights Reserved.
  
 This is the Gaussian(R) 03 program.  It is based on the
 the Gaussian(R) 98 system (copyright 1998, Gaussian, Inc.),
 the Gaussian(R) 94 system (copyright 1995, Gaussian, Inc.),
 the Gaussian 92(TM) system (copyright 1992, Gaussian, Inc.),
 the Gaussian 90(TM) system (copyright 1990, Gaussian, Inc.),
 the Gaussian 88(TM) system (copyright 1988, Gaussian, Inc.),
 the Gaussian 86(TM) system (copyright 1986, Carnegie Mellon
 University), and the Gaussian 82(TM) system (copyright 1983,
 Carnegie Mellon University). Gaussian is a federally registered
 trademark of Gaussian, Inc.
  
 This software contains proprietary and confidential information,
 including trade secrets, belonging to Gaussian, Inc.
  
 This software is provided under written license and may be
 used, copied, transmitted, or stored only in accord with that
 written license.
  
 The following legend is applicable only to US Government
 contracts under FAR:
  
                    RESTRICTED RIGHTS LEGEND
  
 Use, reproduction and disclosure by the US Government is
 subject to restrictions as set forth in subparagraphs (a)
 and (c) of the Commercial Computer Software - Restricted
 Rights clause in FAR 52.227-19.
  
 Gaussian, Inc.
 340 Quinnipiac St., Bldg. 40, Wallingford CT 06492
  
  
 ---------------------------------------------------------------
 Warning -- This program may not be used in any manner that
 competes with the business of Gaussian, Inc. or will provide
 assistance to any competitor of Gaussian, Inc.  The licensee
 of this program is prohibited from giving any competitor of
 Gaussian, Inc. access to this program.  By using this program,
 the user acknowledges that Gaussian, Inc. is engaged in the
 business of creating and licensing software in the field of
 computational chemistry and represents and warrants to the
 licensee that it is not a competitor of Gaussian, Inc. and that
 it will not use this program in any manner prohibited above.
 ---------------------------------------------------------------
  

 Cite this work as:
 Gaussian 03, Revision E.01,
 M. J. Frisch, G. W. Trucks, H. B. Schlegel, G. E. Scuseria, 
 M. A. Robb, J. R. Cheeseman, J. A. Montgomery, Jr., T. Vreven, 
 K. N. Kudin, J. C. Burant, J. M. Millam, S. S. Iyengar, J. Tomasi, 
 V. Barone, B. Mennucci, M. Cossi, G. Scalmani, N. Rega, 
 G. A. Petersson, H. Nakatsuji, M. Hada, M. Ehara, K. Toyota, 
 R. Fukuda, J. Hasegawa, M. Ishida, T. Nakajima, Y. Honda, O. Kitao, 
 H. Nakai, M. Klene, X. Li, J. E. Knox, H. P. Hratchian, J. B. Cross, 
 V. Bakken, C. Adamo, J. Jaramillo, R. Gomperts, R. E. Stratmann, 
 O. Yazyev, A. J. Austin, R. Cammi, C. Pomelli, J. W. Ochterski, 
 P. Y. Ayala, K. Morokuma, G. A. Voth, P. Salvador, J. J. Dannenberg, 
 V. G. Zakrzewski, S. Dapprich, A. D. Daniels, M. C. Strain, 
 O. Farkas, D. K. Malick, A. D. Rabuck, K. Raghavachari, 
 J. B. Foresman, J. V. Ortiz, Q. Cui, A. G. Baboul, S. Clifford, 
 J. Cioslowski, B. B. Stefanov, G. Liu, A. Liashenko, P. Piskorz, 
 I. Komaromi, R. L. Martin, D. J. Fox, T. Keith, M. A. Al-Laham, 
 C. Y. Peng, A. Nanayakkara, M. Challacombe, P. M. W. Gill, 
 B. Johnson, W. Chen, M. W. Wong, C. Gonzalez, and J. A. Pople, 
 Gaussian, Inc., Wallingford CT, 2004.
 
 ******************************************
 Gaussian 03:  EM64T-G03RevE.01 11-Sep-2007
                12-Jun-2015 
 ******************************************
 %nproc=2
 Will use up to    2 processors via shared memory.
 Default route:  MP2=Direct MaxDisk=2000MB
 ----------------------------------------------------
 # b3lyp/6-31+G(d,p) int=ultrafine pop=(ReadRadii,MK)
 ----------------------------------------------------

 Warning!  SCF SP cutoffs with diffuse functions may be unreliable.
 Consider SCF=Tight

 1/38=1/1;
 2/17=6,18=5,40=1/2;
 3/5=1,6=6,7=111,11=2,16=1,25=1,30=1,74=-5,75=5/1,2,3;
 4//1;
 5/5=2,32=1,38=5/2;
 6/7=2,8=2,9=2,10=2,15=8,20=101,28=1/1,2;
 99/5=1,9=1/99;
 -----------------------------------
 Ca3PO4_21.mol2_plusQ.z51431.zip.xyz
 -----------------------------------
 Symbolic Z-matrix:
 Charge =  1 Multiplicity = 1
 O                     1.41796   0.42843   0.92191 
 O                    -1.07869   1.01511   0.92197 
 O                    -0.00031  -0.00136  -1.71187 
 O                    -0.33859  -1.44082   0.92291 
 P                     0.0005    0.00198   1.71806 
 Ca                    1.41782  -1.33334  -0.56928 
 Ca                   -1.86331  -0.56227  -0.56926 
 Ca                    0.44497   1.89358  -0.57197 
 
                          Input orientation:                          
 ---------------------------------------------------------------------
 Center     Atomic     Atomic              Coordinates (Angstroms)
 Number     Number      Type              X           Y           Z
 ---------------------------------------------------------------------
    1          8             0        1.417960    0.428430    0.921910
    2          8             0       -1.078690    1.015110    0.921970
    3          8             0       -0.000310   -0.001360   -1.711870
    4          8             0       -0.338590   -1.440820    0.922910
    5         15             0        0.000500    0.001980    1.718060
    6         20             0        1.417820   -1.333340   -0.569280
    7         20             0       -1.863310   -0.562270   -0.569260
    8         20             0        0.444970    1.893580   -0.571970
 ---------------------------------------------------------------------
                    Distance matrix (angstroms):
                    1          2          3          4          5
     1  O    0.000000
     2  O    2.564655   0.000000
     3  O    3.022086   3.022123   0.000000
     4  O    2.565066   2.565023   3.021348   0.000000
     5  P    1.680746   1.680727   3.429932   1.681939   0.000000
     6  Ca   2.308134   3.737861   2.256275   2.307197   3.003964
     7  Ca   3.737888   2.308143   2.256313   2.307204   3.003997
     8  Ca   2.307607   2.307619   2.255758   3.737226   3.003322
                    6          7          8
     6  Ca   0.000000
     7  Ca   3.370514   0.000000
     8  Ca   3.370379   3.370365   0.000000
 Stoichiometry    Ca3O4P(1+)
 Framework group  C1[X(Ca3O4P)]
 Deg. of freedom    18
 Full point group                 C1
 Largest Abelian subgroup         C1      NOp   1
 Largest concise Abelian subgroup C1      NOp   1
                         Standard orientation:                         
 ---------------------------------------------------------------------
 Center     Atomic     Atomic              Coordinates (Angstroms)
 Number     Number      Type              X           Y           Z
 ---------------------------------------------------------------------
    1          8             0        1.272934    0.757495    0.921909
    2          8             0       -1.291518    0.725261    0.921969
    3          8             0        0.000026   -0.001395   -1.711871
    4          8             0        0.018586   -1.479953    0.922909
    5         15             0        0.000008    0.002042    1.718059
    6         20             0        1.697338   -0.952392   -0.569281
    7         20             0       -1.672910   -0.994709   -0.569261
    8         20             0       -0.024445    1.945005   -0.571971
 ---------------------------------------------------------------------
 Rotational constants (GHZ):      1.0154936      1.0154854      0.9037676
 Standard basis: 6-31+G(d,p) (6D, 7F)
 There are   180 symmetry adapted basis functions of A   symmetry.
 Integral buffers will be    131072 words long.
 Raffenetti 2 integral format.
 Two-electron integral symmetry is turned on.
   180 basis functions,   424 primitive gaussians,   180 cartesian basis functions
    53 alpha electrons       53 beta electrons
       nuclear repulsion energy       952.7141331181 Hartrees.
 NAtoms=    8 NActive=    8 NUniq=    8 SFac= 7.50D-01 NAtFMM=   80 NAOKFM=F Big=F
 One-electron integrals computed using PRISM.
 NBasis=   180 RedAO= T  NBF=   180
 NBsUse=   180 1.00D-06 NBFU=   180
 Harris functional with IExCor=  402 diagonalized for initial guess.
 ExpMin= 7.10D-03 ExpMax= 3.53D+04 ExpMxC= 5.30D+03 IAcc=3 IRadAn=         5 AccDes= 0.00D+00
 HarFok:  IExCor= 402 AccDes= 0.00D+00 IRadAn=         5 IDoV=1
 ScaDFX=  1.000000  1.000000  1.000000  1.000000
 Initial guess orbital symmetries:
       Occupied  (A) (A) (A) (A) (A) (A) (A) (A) (A) (A) (A) (A)
                 (A) (A) (A) (A) (A) (A) (A) (A) (A) (A) (A) (A)
                 (A) (A) (A) (A) (A) (A) (A) (A) (A) (A) (A) (A)
                 (A) (A) (A) (A) (A) (A) (A) (A) (A) (A) (A) (A)
                 (A) (A) (A) (A) (A)
       Virtual   (A) (A) (A) (A) (A) (A) (A) (A) (A) (A) (A) (A)
                 (A) (A) (A) (A) (A) (A) (A) (A) (A) (A) (A) (A)
                 (A) (A) (A) (A) (A) (A) (A) (A) (A) (A) (A) (A)
                 (A) (A) (A) (A) (A) (A) (A) (A) (A) (A) (A) (A)
                 (A) (A) (A) (A) (A) (A) (A) (A) (A) (A) (A) (A)
                 (A) (A) (A) (A) (A) (A) (A) (A) (A) (A) (A) (A)
                 (A) (A) (A) (A) (A) (A) (A) (A) (A) (A) (A) (A)
                 (A) (A) (A) (A) (A) (A) (A) (A) (A) (A) (A) (A)
                 (A) (A) (A) (A) (A) (A) (A) (A) (A) (A) (A) (A)
                 (A) (A) (A) (A) (A) (A) (A) (A) (A) (A) (A) (A)
                 (A) (A) (A) (A) (A) (A) (A)
 The electronic state of the initial guess is 1-A.
 Requested convergence on RMS density matrix=1.00D-04 within 128 cycles.
 Requested convergence on MAX density matrix=1.00D-02.
 Requested convergence on             energy=1.00D-02.
 No special actions if energy rises.
 EnCoef did     1 forward-backward iterations
 SCF Done:  E(RB+HF-LYP) =  -2675.07103895     A.U. after    8 cycles
             Convg  =    0.8348D-04             -V/T =  2.0028
             S**2   =   0.0000

 **********************************************************************

            Population analysis using the SCF density.

 **********************************************************************

 Orbital symmetries:
       Occupied  (A) (A) (A) (A) (A) (A) (A) (A) (A) (A) (A) (A)
                 (A) (A) (A) (A) (A) (A) (A) (A) (A) (A) (A) (A)
                 (A) (A) (A) (A) (A) (A) (A) (A) (A) (A) (A) (A)
                 (A) (A) (A) (A) (A) (A) (A) (A) (A) (A) (A) (A)
                 (A) (A) (A) (A) (A)
       Virtual   (A) (A) (A) (A) (A) (A) (A) (A) (A) (A) (A) (A)
                 (A) (A) (A) (A) (A) (A) (A) (A) (A) (A) (A) (A)
                 (A) (A) (A) (A) (A) (A) (A) (A) (A) (A) (A) (A)
                 (A) (A) (A) (A) (A) (A) (A) (A) (A) (A) (A) (A)
                 (A) (A) (A) (A) (A) (A) (A) (A) (A) (A) (A) (A)
                 (A) (A) (A) (A) (A) (A) (A) (A) (A) (A) (A) (A)
                 (A) (A) (A) (A) (A) (A) (A) (A) (A) (A) (A) (A)
                 (A) (A) (A) (A) (A) (A) (A) (A) (A) (A) (A) (A)
                 (A) (A) (A) (A) (A) (A) (A) (A) (A) (A) (A) (A)
                 (A) (A) (A) (A) (A) (A) (A) (A) (A) (A) (A) (A)
                 (A) (A) (A) (A) (A) (A) (A)
 The electronic state is 1-A.
 Alpha  occ. eigenvalues -- -145.49639-145.49633-145.49632 -77.25053 -19.21251
 Alpha  occ. eigenvalues --  -19.21250 -19.21165 -19.15940 -15.56472 -15.56469
 Alpha  occ. eigenvalues --  -15.56468 -12.69669 -12.69668 -12.69667 -12.69647
 Alpha  occ. eigenvalues --  -12.69646 -12.69644 -12.69599 -12.69598 -12.69597
 Alpha  occ. eigenvalues --   -6.70083  -4.86432  -4.86432  -4.85895  -1.93821
 Alpha  occ. eigenvalues --   -1.93737  -1.93736  -1.22375  -1.21694  -1.21692
 Alpha  occ. eigenvalues --   -1.21304  -1.21137  -1.21063  -1.21061  -1.20640
 Alpha  occ. eigenvalues --   -1.20640  -1.06754  -1.00373  -1.00329  -0.90937
 Alpha  occ. eigenvalues --   -0.62642  -0.50530  -0.50519  -0.47957  -0.43356
 Alpha  occ. eigenvalues --   -0.43353  -0.38354  -0.38329  -0.38176  -0.36134
 Alpha  occ. eigenvalues --   -0.36130  -0.34588  -0.30859
 Alpha virt. eigenvalues --   -0.19948  -0.18025  -0.18025  -0.12553  -0.12552
 Alpha virt. eigenvalues --   -0.10893  -0.09477  -0.09477  -0.08338  -0.07771
 Alpha virt. eigenvalues --   -0.06545  -0.06114  -0.06113  -0.04765  -0.04716
 Alpha virt. eigenvalues --   -0.04714  -0.04672  -0.04475  -0.04472  -0.04003
 Alpha virt. eigenvalues --   -0.04003  -0.03232  -0.02943  -0.02942  -0.02359
 Alpha virt. eigenvalues --   -0.02356  -0.00866   0.01028   0.02177   0.02618
 Alpha virt. eigenvalues --    0.02619   0.04574   0.04576   0.05228   0.06004
 Alpha virt. eigenvalues --    0.06005   0.06294   0.06294   0.07291   0.07296
 Alpha virt. eigenvalues --    0.07383   0.07665   0.07669   0.07824   0.08466
 Alpha virt. eigenvalues --    0.10686   0.10687   0.11332   0.11805   0.13660
 Alpha virt. eigenvalues --    0.15681   0.15682   0.19890   0.19892   0.20373
 Alpha virt. eigenvalues --    0.22087   0.22093   0.23485   0.23994   0.25320
 Alpha virt. eigenvalues --    0.25958   0.25970   0.30033   0.31450   0.31457
 Alpha virt. eigenvalues --    0.35747   0.36004   0.36008   0.37870   0.39074
 Alpha virt. eigenvalues --    0.39089   0.39780   0.45832   0.45833   0.53630
 Alpha virt. eigenvalues --    0.53634   0.55847   0.63370   0.63373   0.67681
 Alpha virt. eigenvalues --    0.82900   0.86954   0.86969   0.94088   0.94120
 Alpha virt. eigenvalues --    1.14556   1.16750   1.16768   1.18030   1.20789
 Alpha virt. eigenvalues --    1.21960   1.21983   1.23405   1.23414   1.28211
 Alpha virt. eigenvalues --    1.34155   1.34195   1.36434   1.54452   1.54477
 Alpha virt. eigenvalues --    1.57770   1.68381   1.71620   1.73135   1.73161
 Alpha virt. eigenvalues --    1.77475   1.77488   1.87084   1.87373   1.87382
 Alpha virt. eigenvalues --    1.88078   1.92068   1.92077   1.93327   1.98429
 Alpha virt. eigenvalues --    1.98446   2.03027   2.03030   2.14788   2.38155
 Alpha virt. eigenvalues --    2.55085   2.55190   3.54380   4.05627   4.14262
 Alpha virt. eigenvalues --    4.14312   4.31231
          Condensed to atoms (all electrons):
              1          2          3          4          5          6
     1  O    8.966236   0.058824   0.023969   0.058558  -0.201074   0.059807
     2  O    0.058824   8.966257   0.023965   0.058562  -0.201085   0.006262
     3  O    0.023969   0.023965   8.852723   0.023958  -0.039968   0.122094
     4  O    0.058558   0.058562   0.023958   8.964754  -0.200015   0.059991
     5  P   -0.201074  -0.201085  -0.039968  -0.200015  14.442850   0.033635
     6  Ca   0.059807   0.006262   0.122094   0.059991   0.033635  18.396822
     7  Ca   0.006257   0.059803   0.122096   0.059986   0.033648  -0.047537
     8  Ca   0.059746   0.059741   0.122243   0.006157   0.034046  -0.047707
              7          8
     1  O    0.006257   0.059746
     2  O    0.059803   0.059741
     3  O    0.122096   0.122243
     4  O    0.059986   0.006157
     5  P    0.033648   0.034046
     6  Ca  -0.047537  -0.047707
     7  Ca  18.396815  -0.047704
     8  Ca  -0.047704  18.397026
 Mulliken atomic charges:
              1
     1  O   -1.032322
     2  O   -1.032329
     3  O   -1.251080
     4  O   -1.031952
     5  P    1.097963
     6  Ca   1.416634
     7  Ca   1.416635
     8  Ca   1.416451
 Sum of Mulliken charges=   1.00000
 Atomic charges with hydrogens summed into heavy atoms:
              1
     1  O   -1.032322
     2  O   -1.032329
     3  O   -1.251080
     4  O   -1.031952
     5  P    1.097963
     6  Ca   1.416634
     7  Ca   1.416635
     8  Ca   1.416451
 Sum of Mulliken charges=   1.00000
 Electronic spatial extent (au):  <R**2>=  1510.1117
 Charge=     1.0000 electrons
 Dipole moment (field-independent basis, Debye):
    X=    -0.0002    Y=    -0.0129    Z=    -8.2275  Tot=     8.2275
 Quadrupole moment (field-independent basis, Debye-Ang):
   XX=   -40.0273   YY=   -40.0412   ZZ=   -90.0135
   XY=    -0.0002   XZ=     0.0007   YZ=    -0.0450
 Traceless Quadrupole moment (field-independent basis, Debye-Ang):
   XX=    16.6667   YY=    16.6528   ZZ=   -33.3194
   XY=    -0.0002   XZ=     0.0007   YZ=    -0.0450
 Octapole moment (field-independent basis, Debye-Ang**2):
  XXX=     2.2059  YYY=    58.4190  ZZZ=    -1.6848  XYY=    -2.2079
  XXY=   -58.6128  XXZ=   -46.6167  XZZ=    -0.0007  YZZ=     0.0717
  YYZ=   -46.7265  XYZ=     0.0019
 Hexadecapole moment (field-independent basis, Debye-Ang**3):
 XXXX=  -415.9786 YYYY=  -416.2300 ZZZZ=  -721.6590 XXXY=    -0.0009
 XXXZ=    -0.5807 YYYX=     0.0016 YYYZ=   -15.5871 ZZZX=     0.0004
 ZZZY=    -0.1847 XXYY=  -138.6439 XXZZ=  -187.6209 YYZZ=  -187.5683
 XXYZ=    15.3677 YYXZ=     0.5814 ZZXY=    -0.0010
 N-N= 9.527141331181D+02 E-N=-8.229902321540D+03  KE= 2.667693790977D+03
 Merz-Kollman atomic radii used.
 Read replacement radii for each type of atom:
 Rad(20) =   1.188000000000D+00
 Atom Element Radius
    1     8    1.40
    2     8    1.40
    3     8    1.40
    4     8    1.40
    5    15    1.80
    6    20    1.19
    7    20    1.19
    8    20    1.19

 **********************************************************************

            Electrostatic Properties Using The SCF Density

 **********************************************************************

       Atomic Center    1 is at   1.272934  0.757495  0.921909
       Atomic Center    2 is at  -1.291518  0.725261  0.921969
       Atomic Center    3 is at   0.000026 -0.001395 -1.711871
       Atomic Center    4 is at   0.018586 -1.479953  0.922909
       Atomic Center    5 is at   0.000008  0.002042  1.718059
       Atomic Center    6 is at   1.697338 -0.952392 -0.569281
       Atomic Center    7 is at  -1.672910 -0.994709 -0.569261
       Atomic Center    8 is at  -0.024445  1.945005 -0.571971
     684 points will be used for fitting atomic charges
 Fitting point charges to eletrostatic potential
 Charges from ESP fit, RMS=   0.00612 RRMS=   0.03736:
 Charge=   1.00000 Dipole=     0.0057    -0.0577    -8.4318 Tot=     8.4320
              1
     1  O   -0.946547
     2  O   -0.946024
     3  O   -1.634368
     4  O   -0.941552
     5  P    0.515023
     6  Ca   1.652077
     7  Ca   1.651000
     8  Ca   1.650391
 -----------------------------------------------------------------

              Electrostatic Properties (Atomic Units)

 -----------------------------------------------------------------
    Center     Electric         -------- Electric Field --------
               Potential          X             Y             Z
 -----------------------------------------------------------------
    1 Atom    -22.251750
    2 Atom    -22.251770
    3 Atom    -22.290869
    4 Atom    -22.250152
    5 Atom    -53.967943
    6 Atom    -80.043278
    7 Atom    -80.043272
    8 Atom    -80.043381
 -----------------------------------------------------------------
 1\1\GINC-N026\SP\RB3LYP\6-31+G(d,p)\Ca3O4P1(1+)\TIMN\12-Jun-2015\0\\# 
 b3lyp/6-31+G(d,p) int=ultrafine pop=(ReadRadii,MK)\\Ca3PO4_21.mol2_plu
 sQ.z51431.zip.xyz\\1,1\O,0,1.41796,0.42843,0.92191\O,0,-1.07869,1.0151
 1,0.92197\O,0,-0.00031,-0.00136,-1.71187\O,0,-0.33859,-1.44082,0.92291
 \P,0,0.0005,0.00198,1.71806\Ca,0,1.41782,-1.33334,-0.56928\Ca,0,-1.863
 31,-0.56227,-0.56926\Ca,0,0.44497,1.89358,-0.57197\\Version=EM64T-G03R
 evE.01\State=1-A\HF=-2675.071039\RMSD=8.348e-05\Thermal=0.\Dipole=-0.0
 013048,-0.0048898,-3.236929\PG=C01 [X(Ca3O4P1)]\\@


 IT IS BY EATING THE LIGHT OF A STAR THAT WE EXIST, 
 IN THE FINAL ANALYSIS, 
 JUST AS IT IS BY PERCEIVING THE LIGHT OF STARS
 THAT WE DEFINE THE WORLD AROUND US.

                                    -- GILBERT GROSVENOR
 Job cpu time:  0 days  0 hours  1 minutes 42.4 seconds.
 File lengths (MBytes):  RWF=     32 Int=      0 D2E=      0 Chk=     11 Scr=      1
 Normal termination of Gaussian 03 at Fri Jun 12 17:42:18 2015.
