 Entering Gaussian System, Link 0=/home/timn/tmp/g03.e01/g03
 Input=Ca3PO4_177.mol2c_plusQ.z51184.zip.xyz.gjf
 Output=Ca3PO4_177.mol2c_plusQ.z51184.zip.xyz.out
 Initial command:
 /home/timn/tmp/g03.e01/l1.exe /home/timn/tmp/g03.e01/Gau-13712.inp -scrdir=/home/timn/tmp/g03.e01/
 Default is to use a total of   2 processors:
                                2 via shared-memory
                                1 via Linda
 Entering Link 1 = /home/timn/tmp/g03.e01/l1.exe PID=     13713.
  
 Copyright (c) 1988,1990,1992,1993,1995,1998,2003,2004,2007, Gaussian, Inc.
                  All Rights Reserved.
  
 This is the Gaussian(R) 03 program.  It is based on the
 the Gaussian(R) 98 system (copyright 1998, Gaussian, Inc.),
 the Gaussian(R) 94 system (copyright 1995, Gaussian, Inc.),
 the Gaussian 92(TM) system (copyright 1992, Gaussian, Inc.),
 the Gaussian 90(TM) system (copyright 1990, Gaussian, Inc.),
 the Gaussian 88(TM) system (copyright 1988, Gaussian, Inc.),
 the Gaussian 86(TM) system (copyright 1986, Carnegie Mellon
 University), and the Gaussian 82(TM) system (copyright 1983,
 Carnegie Mellon University). Gaussian is a federally registered
 trademark of Gaussian, Inc.
  
 This software contains proprietary and confidential information,
 including trade secrets, belonging to Gaussian, Inc.
  
 This software is provided under written license and may be
 used, copied, transmitted, or stored only in accord with that
 written license.
  
 The following legend is applicable only to US Government
 contracts under FAR:
  
                    RESTRICTED RIGHTS LEGEND
  
 Use, reproduction and disclosure by the US Government is
 subject to restrictions as set forth in subparagraphs (a)
 and (c) of the Commercial Computer Software - Restricted
 Rights clause in FAR 52.227-19.
  
 Gaussian, Inc.
 340 Quinnipiac St., Bldg. 40, Wallingford CT 06492
  
  
 ---------------------------------------------------------------
 Warning -- This program may not be used in any manner that
 competes with the business of Gaussian, Inc. or will provide
 assistance to any competitor of Gaussian, Inc.  The licensee
 of this program is prohibited from giving any competitor of
 Gaussian, Inc. access to this program.  By using this program,
 the user acknowledges that Gaussian, Inc. is engaged in the
 business of creating and licensing software in the field of
 computational chemistry and represents and warrants to the
 licensee that it is not a competitor of Gaussian, Inc. and that
 it will not use this program in any manner prohibited above.
 ---------------------------------------------------------------
  

 Cite this work as:
 Gaussian 03, Revision E.01,
 M. J. Frisch, G. W. Trucks, H. B. Schlegel, G. E. Scuseria, 
 M. A. Robb, J. R. Cheeseman, J. A. Montgomery, Jr., T. Vreven, 
 K. N. Kudin, J. C. Burant, J. M. Millam, S. S. Iyengar, J. Tomasi, 
 V. Barone, B. Mennucci, M. Cossi, G. Scalmani, N. Rega, 
 G. A. Petersson, H. Nakatsuji, M. Hada, M. Ehara, K. Toyota, 
 R. Fukuda, J. Hasegawa, M. Ishida, T. Nakajima, Y. Honda, O. Kitao, 
 H. Nakai, M. Klene, X. Li, J. E. Knox, H. P. Hratchian, J. B. Cross, 
 V. Bakken, C. Adamo, J. Jaramillo, R. Gomperts, R. E. Stratmann, 
 O. Yazyev, A. J. Austin, R. Cammi, C. Pomelli, J. W. Ochterski, 
 P. Y. Ayala, K. Morokuma, G. A. Voth, P. Salvador, J. J. Dannenberg, 
 V. G. Zakrzewski, S. Dapprich, A. D. Daniels, M. C. Strain, 
 O. Farkas, D. K. Malick, A. D. Rabuck, K. Raghavachari, 
 J. B. Foresman, J. V. Ortiz, Q. Cui, A. G. Baboul, S. Clifford, 
 J. Cioslowski, B. B. Stefanov, G. Liu, A. Liashenko, P. Piskorz, 
 I. Komaromi, R. L. Martin, D. J. Fox, T. Keith, M. A. Al-Laham, 
 C. Y. Peng, A. Nanayakkara, M. Challacombe, P. M. W. Gill, 
 B. Johnson, W. Chen, M. W. Wong, C. Gonzalez, and J. A. Pople, 
 Gaussian, Inc., Wallingford CT, 2004.
 
 ******************************************
 Gaussian 03:  EM64T-G03RevE.01 11-Sep-2007
                12-Jun-2015 
 ******************************************
 %nproc=2
 Will use up to    2 processors via shared memory.
 Default route:  MP2=Direct MaxDisk=2000MB
 ----------------------------------------------------
 # b3lyp/6-31+G(d,p) int=ultrafine pop=(ReadRadii,MK)
 ----------------------------------------------------

 Warning!  SCF SP cutoffs with diffuse functions may be unreliable.
 Consider SCF=Tight

 1/38=1/1;
 2/17=6,18=5,40=1/2;
 3/5=1,6=6,7=111,11=2,16=1,25=1,30=1,74=-5,75=5/1,2,3;
 4//1;
 5/5=2,32=1,38=5/2;
 6/7=2,8=2,9=2,10=2,15=8,20=101,28=1/1,2;
 99/5=1,9=1/99;
 -------------------------------------
 Ca3PO4_177.mol2c_plusQ.z51184.zip.xyz
 -------------------------------------
 Symbolic Z-matrix:
 Charge =  1 Multiplicity = 1
 O                     0.58707   1.25367  -0.10859 
 O                    -2.69233  -0.00008  -0.33323 
 O                     2.2385   -0.00073   1.3316 
 O                     0.58725  -1.25354  -0.10991 
 P                     0.69131  -0.0006    1.03418 
 Ca                   -1.62389   1.81819  -0.07584 
 Ca                    2.44067   0.00071  -0.93544 
 Ca                   -1.62346  -1.81817  -0.07631 
 
                          Input orientation:                          
 ---------------------------------------------------------------------
 Center     Atomic     Atomic              Coordinates (Angstroms)
 Number     Number      Type              X           Y           Z
 ---------------------------------------------------------------------
    1          8             0        0.587070    1.253670   -0.108590
    2          8             0       -2.692330   -0.000080   -0.333230
    3          8             0        2.238500   -0.000730    1.331600
    4          8             0        0.587250   -1.253540   -0.109910
    5         15             0        0.691310   -0.000600    1.034180
    6         20             0       -1.623890    1.818190   -0.075840
    7         20             0        2.440670    0.000710   -0.935440
    8         20             0       -1.623460   -1.818170   -0.076310
 ---------------------------------------------------------------------
                    Distance matrix (angstroms):
                    1          2          3          4          5
     1  O    0.000000
     2  O    3.518070   0.000000
     3  O    2.524854   5.204301   0.000000
     4  O    2.507210   3.518050   2.524700   0.000000
     5  P    1.699995   3.649497   1.575518   1.699891   0.000000
     6  Ca   2.282126   2.124599   4.495266   3.784947   3.146473
     7  Ca   2.385251   5.168205   2.276037   2.385332   2.634324
     8  Ca   3.784665   2.124604   4.494445   2.281923   3.145617
                    6          7          8
     6  Ca   0.000000
     7  Ca   4.534622   0.000000
     8  Ca   3.636360   4.534709   0.000000
 Stoichiometry    Ca3O4P(1+)
 Framework group  C1[X(Ca3O4P)]
 Deg. of freedom    18
 Full point group                 C1
 Largest Abelian subgroup         C1      NOp   1
 Largest concise Abelian subgroup C1      NOp   1
                         Standard orientation:                         
 ---------------------------------------------------------------------
 Center     Atomic     Atomic              Coordinates (Angstroms)
 Number     Number      Type              X           Y           Z
 ---------------------------------------------------------------------
    1          8             0        0.587068    1.253670   -0.108589
    2          8             0       -2.692330   -0.000087   -0.333229
    3          8             0        2.238500   -0.000727    1.331601
    4          8             0        0.587253   -1.253540   -0.109909
    5         15             0        0.691310   -0.000600    1.034181
    6         20             0       -1.623894    1.818185   -0.075839
    7         20             0        2.440670    0.000714   -0.935439
    8         20             0       -1.623456   -1.818175   -0.076309
 ---------------------------------------------------------------------
 Rotational constants (GHZ):      1.2220201      0.6565470      0.5129875
 Standard basis: 6-31+G(d,p) (6D, 7F)
 There are   180 symmetry adapted basis functions of A   symmetry.
 Integral buffers will be    131072 words long.
 Raffenetti 2 integral format.
 Two-electron integral symmetry is turned on.
   180 basis functions,   424 primitive gaussians,   180 cartesian basis functions
    53 alpha electrons       53 beta electrons
       nuclear repulsion energy       872.1604104581 Hartrees.
 NAtoms=    8 NActive=    8 NUniq=    8 SFac= 7.50D-01 NAtFMM=   80 NAOKFM=F Big=F
 One-electron integrals computed using PRISM.
 NBasis=   180 RedAO= T  NBF=   180
 NBsUse=   180 1.00D-06 NBFU=   180
 Harris functional with IExCor=  402 diagonalized for initial guess.
 ExpMin= 7.10D-03 ExpMax= 3.53D+04 ExpMxC= 5.30D+03 IAcc=3 IRadAn=         5 AccDes= 0.00D+00
 HarFok:  IExCor= 402 AccDes= 0.00D+00 IRadAn=         5 IDoV=1
 ScaDFX=  1.000000  1.000000  1.000000  1.000000
 Initial guess orbital symmetries:
       Occupied  (A) (A) (A) (A) (A) (A) (A) (A) (A) (A) (A) (A)
                 (A) (A) (A) (A) (A) (A) (A) (A) (A) (A) (A) (A)
                 (A) (A) (A) (A) (A) (A) (A) (A) (A) (A) (A) (A)
                 (A) (A) (A) (A) (A) (A) (A) (A) (A) (A) (A) (A)
                 (A) (A) (A) (A) (A)
       Virtual   (A) (A) (A) (A) (A) (A) (A) (A) (A) (A) (A) (A)
                 (A) (A) (A) (A) (A) (A) (A) (A) (A) (A) (A) (A)
                 (A) (A) (A) (A) (A) (A) (A) (A) (A) (A) (A) (A)
                 (A) (A) (A) (A) (A) (A) (A) (A) (A) (A) (A) (A)
                 (A) (A) (A) (A) (A) (A) (A) (A) (A) (A) (A) (A)
                 (A) (A) (A) (A) (A) (A) (A) (A) (A) (A) (A) (A)
                 (A) (A) (A) (A) (A) (A) (A) (A) (A) (A) (A) (A)
                 (A) (A) (A) (A) (A) (A) (A) (A) (A) (A) (A) (A)
                 (A) (A) (A) (A) (A) (A) (A) (A) (A) (A) (A) (A)
                 (A) (A) (A) (A) (A) (A) (A) (A) (A) (A) (A) (A)
                 (A) (A) (A) (A) (A) (A) (A)
 The electronic state of the initial guess is 1-A.
 Requested convergence on RMS density matrix=1.00D-04 within 128 cycles.
 Requested convergence on MAX density matrix=1.00D-02.
 Requested convergence on             energy=1.00D-02.
 No special actions if energy rises.
 SCF Done:  E(RB+HF-LYP) =  -2674.99967888     A.U. after    8 cycles
             Convg  =    0.9149D-04             -V/T =  2.0027
             S**2   =   0.0000

 **********************************************************************

            Population analysis using the SCF density.

 **********************************************************************

 Orbital symmetries:
       Occupied  (A) (A) (A) (A) (A) (A) (A) (A) (A) (A) (A) (A)
                 (A) (A) (A) (A) (A) (A) (A) (A) (A) (A) (A) (A)
                 (A) (A) (A) (A) (A) (A) (A) (A) (A) (A) (A) (A)
                 (A) (A) (A) (A) (A) (A) (A) (A) (A) (A) (A) (A)
                 (A) (A) (A) (A) (A)
       Virtual   (A) (A) (A) (A) (A) (A) (A) (A) (A) (A) (A) (A)
                 (A) (A) (A) (A) (A) (A) (A) (A) (A) (A) (A) (A)
                 (A) (A) (A) (A) (A) (A) (A) (A) (A) (A) (A) (A)
                 (A) (A) (A) (A) (A) (A) (A) (A) (A) (A) (A) (A)
                 (A) (A) (A) (A) (A) (A) (A) (A) (A) (A) (A) (A)
                 (A) (A) (A) (A) (A) (A) (A) (A) (A) (A) (A) (A)
                 (A) (A) (A) (A) (A) (A) (A) (A) (A) (A) (A) (A)
                 (A) (A) (A) (A) (A) (A) (A) (A) (A) (A) (A) (A)
                 (A) (A) (A) (A) (A) (A) (A) (A) (A) (A) (A) (A)
                 (A) (A) (A) (A) (A) (A) (A) (A) (A) (A) (A) (A)
                 (A) (A) (A) (A) (A) (A) (A)
 The electronic state is 1-A.
 Alpha  occ. eigenvalues -- -145.52899-145.48522-145.48519 -77.24507 -19.21559
 Alpha  occ. eigenvalues --  -19.21556 -19.18910 -19.12189 -15.59696 -15.55425
 Alpha  occ. eigenvalues --  -15.55422 -12.72878 -12.72874 -12.72862 -12.68677
 Alpha  occ. eigenvalues --  -12.68674 -12.68609 -12.68605 -12.68484 -12.68480
 Alpha  occ. eigenvalues --   -6.69823  -4.86203  -4.86126  -4.85705  -1.96739
 Alpha  occ. eigenvalues --   -1.92690  -1.92664  -1.24715  -1.24001  -1.23964
 Alpha  occ. eigenvalues --   -1.20598  -1.20528  -1.20413  -1.20156  -1.19798
 Alpha  occ. eigenvalues --   -1.19306  -1.06955  -0.99976  -0.99930  -0.86573
 Alpha  occ. eigenvalues --   -0.61878  -0.49711  -0.49548  -0.48421  -0.42892
 Alpha  occ. eigenvalues --   -0.42357  -0.38148  -0.37916  -0.34574  -0.32843
 Alpha  occ. eigenvalues --   -0.32543  -0.30665  -0.30262
 Alpha virt. eigenvalues --   -0.20426  -0.18308  -0.17399  -0.12506  -0.11991
 Alpha virt. eigenvalues --   -0.10385  -0.10050  -0.08961  -0.08368  -0.08012
 Alpha virt. eigenvalues --   -0.07399  -0.06924  -0.06468  -0.05553  -0.05312
 Alpha virt. eigenvalues --   -0.05092  -0.04606  -0.04478  -0.04078  -0.03980
 Alpha virt. eigenvalues --   -0.03806  -0.03344  -0.03204  -0.03013  -0.02988
 Alpha virt. eigenvalues --   -0.02109  -0.00739   0.00381   0.00950   0.02176
 Alpha virt. eigenvalues --    0.02500   0.03695   0.04457   0.04596   0.05065
 Alpha virt. eigenvalues --    0.05153   0.05659   0.06263   0.06266   0.07334
 Alpha virt. eigenvalues --    0.07874   0.08138   0.08737   0.09153   0.09679
 Alpha virt. eigenvalues --    0.10495   0.10817   0.11184   0.11897   0.13946
 Alpha virt. eigenvalues --    0.15110   0.15327   0.15880   0.18524   0.20327
 Alpha virt. eigenvalues --    0.21767   0.22077   0.22900   0.23321   0.24877
 Alpha virt. eigenvalues --    0.25863   0.25885   0.27088   0.28290   0.28718
 Alpha virt. eigenvalues --    0.29952   0.33036   0.34496   0.37733   0.38561
 Alpha virt. eigenvalues --    0.39656   0.40755   0.44919   0.46904   0.48897
 Alpha virt. eigenvalues --    0.54417   0.59560   0.59739   0.64621   0.68997
 Alpha virt. eigenvalues --    0.69430   0.74893   0.88710   0.89380   0.91490
 Alpha virt. eigenvalues --    1.00710   1.12892   1.14375   1.16970   1.17779
 Alpha virt. eigenvalues --    1.18877   1.21567   1.22873   1.24358   1.25181
 Alpha virt. eigenvalues --    1.28335   1.28772   1.31243   1.46748   1.51240
 Alpha virt. eigenvalues --    1.55722   1.70976   1.73521   1.77159   1.77842
 Alpha virt. eigenvalues --    1.79139   1.80240   1.80575   1.84708   1.84846
 Alpha virt. eigenvalues --    1.85625   1.86064   1.88381   1.91424   1.95608
 Alpha virt. eigenvalues --    1.96190   2.00834   2.03132   2.10238   2.40203
 Alpha virt. eigenvalues --    2.50658   2.70534   3.51436   3.96528   4.03536
 Alpha virt. eigenvalues --    4.09009   4.17579
          Condensed to atoms (all electrons):
              1          2          3          4          5          6
     1  O    9.127188   0.012033   0.011665   0.110888  -0.462164   0.106822
     2  O    0.012033   8.773868   0.004241   0.012054  -0.063947   0.223068
     3  O    0.011665   0.004241   8.727783   0.011660  -0.021100   0.013014
     4  O    0.110888   0.012054   0.011660   9.127209  -0.462421   0.024048
     5  P   -0.462164  -0.063947  -0.021100  -0.462421  15.189113  -0.049546
     6  Ca   0.106822   0.223068   0.013014   0.024048  -0.049546  18.289453
     7  Ca   0.027020  -0.000807   0.119965   0.026998   0.169843  -0.018726
     8  Ca   0.024043   0.223030   0.013035   0.106861  -0.049478  -0.012456
              7          8
     1  O    0.027020   0.024043
     2  O   -0.000807   0.223030
     3  O    0.119965   0.013035
     4  O    0.026998   0.106861
     5  P    0.169843  -0.049478
     6  Ca  -0.018726  -0.012456
     7  Ca  18.314054  -0.018707
     8  Ca  -0.018707  18.289460
 Mulliken atomic charges:
              1
     1  O   -0.957495
     2  O   -1.183541
     3  O   -0.880262
     4  O   -0.957296
     5  P    0.749699
     6  Ca   1.424323
     7  Ca   1.380360
     8  Ca   1.424213
 Sum of Mulliken charges=   1.00000
 Atomic charges with hydrogens summed into heavy atoms:
              1
     1  O   -0.957495
     2  O   -1.183541
     3  O   -0.880262
     4  O   -0.957296
     5  P    0.749699
     6  Ca   1.424323
     7  Ca   1.380360
     8  Ca   1.424213
 Sum of Mulliken charges=   1.00000
 Electronic spatial extent (au):  <R**2>=  2050.2871
 Charge=     1.0000 electrons
 Dipole moment (field-independent basis, Debye):
    X=     1.5092    Y=     0.0065    Z=    -7.4980  Tot=     7.6484
 Quadrupole moment (field-independent basis, Debye-Ang):
   XX=   -53.1101   YY=   -32.2943   ZZ=   -70.0858
   XY=     0.0097   XZ=   -28.1180   YZ=    -0.0020
 Traceless Quadrupole moment (field-independent basis, Debye-Ang):
   XX=    -1.2800   YY=    19.5357   ZZ=   -18.2557
   XY=     0.0097   XZ=   -28.1180   YZ=    -0.0020
 Octapole moment (field-independent basis, Debye-Ang**2):
  XXX=   138.3744  YYY=     0.0064  ZZZ=   -33.8986  XYY=   -98.7328
  XXY=     0.0755  XXZ=   -59.5060  XZZ=     9.6892  YZZ=     0.0173
  YYZ=    -7.9246  XYZ=    -0.0242
 Hexadecapole moment (field-independent basis, Debye-Ang**3):
 XXXX= -1416.5836 YYYY=  -414.5305 ZZZZ=  -306.4655 XXXY=     0.0694
 XXXZ=  -249.8104 YYYX=    -0.0056 YYYZ=     0.0116 ZZZX=   -75.7124
 ZZZY=     0.0135 XXYY=  -179.6198 XXZZ=  -268.7595 YYZZ=  -139.9840
 XXYZ=    -0.0011 YYXZ=    -7.4763 ZZXY=     0.0253
 N-N= 8.721604104581D+02 E-N=-8.069619261474D+03  KE= 2.667721870109D+03
 Merz-Kollman atomic radii used.
 Read replacement radii for each type of atom:
 Rad(20) =   1.188000000000D+00
 Atom Element Radius
    1     8    1.40
    2     8    1.40
    3     8    1.40
    4     8    1.40
    5    15    1.80
    6    20    1.19
    7    20    1.19
    8    20    1.19

 **********************************************************************

            Electrostatic Properties Using The SCF Density

 **********************************************************************

       Atomic Center    1 is at   0.587068  1.253670 -0.108589
       Atomic Center    2 is at  -2.692330 -0.000087 -0.333229
       Atomic Center    3 is at   2.238500 -0.000727  1.331601
       Atomic Center    4 is at   0.587253 -1.253540 -0.109909
       Atomic Center    5 is at   0.691310 -0.000600  1.034181
       Atomic Center    6 is at  -1.623894  1.818185 -0.075839
       Atomic Center    7 is at   2.440670  0.000714 -0.935439
       Atomic Center    8 is at  -1.623456 -1.818175 -0.076309
     718 points will be used for fitting atomic charges
 Fitting point charges to eletrostatic potential
 Charges from ESP fit, RMS=   0.00726 RRMS=   0.04590:
 Charge=   1.00000 Dipole=     1.6555     0.0068    -7.7216 Tot=     7.8971
              1
     1  O   -1.022919
     2  O   -1.560684
     3  O   -0.574783
     4  O   -1.022865
     5  P    0.186037
     6  Ca   1.684113
     7  Ca   1.626985
     8  Ca   1.684114
 -----------------------------------------------------------------

              Electrostatic Properties (Atomic Units)

 -----------------------------------------------------------------
    Center     Electric         -------- Electric Field --------
               Potential          X             Y             Z
 -----------------------------------------------------------------
    1 Atom    -22.260084
    2 Atom    -22.349798
    3 Atom    -22.271978
    4 Atom    -22.260062
    5 Atom    -53.969486
    6 Atom    -80.059909
    7 Atom    -80.011183
    8 Atom    -80.059943
 -----------------------------------------------------------------
 1\1\GINC-N030\SP\RB3LYP\6-31+G(d,p)\Ca3O4P1(1+)\TIMN\12-Jun-2015\0\\# 
 b3lyp/6-31+G(d,p) int=ultrafine pop=(ReadRadii,MK)\\Ca3PO4_177.mol2c_p
 lusQ.z51184.zip.xyz\\1,1\O,0,0.58707,1.25367,-0.10859\O,0,-2.69233,-0.
 00008,-0.33323\O,0,2.2385,-0.00073,1.3316\O,0,0.58725,-1.25354,-0.1099
 1\P,0,0.69131,-0.0006,1.03418\Ca,0,-1.62389,1.81819,-0.07584\Ca,0,2.44
 067,0.00071,-0.93544\Ca,0,-1.62346,-1.81817,-0.07631\\Version=EM64T-G0
 3RevE.01\State=1-A\HF=-2674.9996789\RMSD=9.149e-05\Thermal=0.\Dipole=0
 .5937663,0.0025515,-2.9499421\PG=C01 [X(Ca3O4P1)]\\@


 NEVER TEACH A PIG TO SING.
 IT WASTES YOUR TIME AND ANNOYS THE PIG.
     -- SEEN ON A GREETING CARD
 Job cpu time:  0 days  0 hours  1 minutes 35.4 seconds.
 File lengths (MBytes):  RWF=     32 Int=      0 D2E=      0 Chk=     11 Scr=      1
 Normal termination of Gaussian 03 at Fri Jun 12 17:39:57 2015.
