 Entering Gaussian System, Link 0=/home/timn/tmp/g03.e01/g03
 Input=Ca3PO4_184.mol2c_plusQ.z51192.zip.xyz.gjf
 Output=Ca3PO4_184.mol2c_plusQ.z51192.zip.xyz.out
 Initial command:
 /home/timn/tmp/g03.e01/l1.exe /home/timn/tmp/g03.e01/Gau-11891.inp -scrdir=/home/timn/tmp/g03.e01/
 Default is to use a total of   2 processors:
                                2 via shared-memory
                                1 via Linda
 Entering Link 1 = /home/timn/tmp/g03.e01/l1.exe PID=     11892.
  
 Copyright (c) 1988,1990,1992,1993,1995,1998,2003,2004,2007, Gaussian, Inc.
                  All Rights Reserved.
  
 This is the Gaussian(R) 03 program.  It is based on the
 the Gaussian(R) 98 system (copyright 1998, Gaussian, Inc.),
 the Gaussian(R) 94 system (copyright 1995, Gaussian, Inc.),
 the Gaussian 92(TM) system (copyright 1992, Gaussian, Inc.),
 the Gaussian 90(TM) system (copyright 1990, Gaussian, Inc.),
 the Gaussian 88(TM) system (copyright 1988, Gaussian, Inc.),
 the Gaussian 86(TM) system (copyright 1986, Carnegie Mellon
 University), and the Gaussian 82(TM) system (copyright 1983,
 Carnegie Mellon University). Gaussian is a federally registered
 trademark of Gaussian, Inc.
  
 This software contains proprietary and confidential information,
 including trade secrets, belonging to Gaussian, Inc.
  
 This software is provided under written license and may be
 used, copied, transmitted, or stored only in accord with that
 written license.
  
 The following legend is applicable only to US Government
 contracts under FAR:
  
                    RESTRICTED RIGHTS LEGEND
  
 Use, reproduction and disclosure by the US Government is
 subject to restrictions as set forth in subparagraphs (a)
 and (c) of the Commercial Computer Software - Restricted
 Rights clause in FAR 52.227-19.
  
 Gaussian, Inc.
 340 Quinnipiac St., Bldg. 40, Wallingford CT 06492
  
  
 ---------------------------------------------------------------
 Warning -- This program may not be used in any manner that
 competes with the business of Gaussian, Inc. or will provide
 assistance to any competitor of Gaussian, Inc.  The licensee
 of this program is prohibited from giving any competitor of
 Gaussian, Inc. access to this program.  By using this program,
 the user acknowledges that Gaussian, Inc. is engaged in the
 business of creating and licensing software in the field of
 computational chemistry and represents and warrants to the
 licensee that it is not a competitor of Gaussian, Inc. and that
 it will not use this program in any manner prohibited above.
 ---------------------------------------------------------------
  

 Cite this work as:
 Gaussian 03, Revision E.01,
 M. J. Frisch, G. W. Trucks, H. B. Schlegel, G. E. Scuseria, 
 M. A. Robb, J. R. Cheeseman, J. A. Montgomery, Jr., T. Vreven, 
 K. N. Kudin, J. C. Burant, J. M. Millam, S. S. Iyengar, J. Tomasi, 
 V. Barone, B. Mennucci, M. Cossi, G. Scalmani, N. Rega, 
 G. A. Petersson, H. Nakatsuji, M. Hada, M. Ehara, K. Toyota, 
 R. Fukuda, J. Hasegawa, M. Ishida, T. Nakajima, Y. Honda, O. Kitao, 
 H. Nakai, M. Klene, X. Li, J. E. Knox, H. P. Hratchian, J. B. Cross, 
 V. Bakken, C. Adamo, J. Jaramillo, R. Gomperts, R. E. Stratmann, 
 O. Yazyev, A. J. Austin, R. Cammi, C. Pomelli, J. W. Ochterski, 
 P. Y. Ayala, K. Morokuma, G. A. Voth, P. Salvador, J. J. Dannenberg, 
 V. G. Zakrzewski, S. Dapprich, A. D. Daniels, M. C. Strain, 
 O. Farkas, D. K. Malick, A. D. Rabuck, K. Raghavachari, 
 J. B. Foresman, J. V. Ortiz, Q. Cui, A. G. Baboul, S. Clifford, 
 J. Cioslowski, B. B. Stefanov, G. Liu, A. Liashenko, P. Piskorz, 
 I. Komaromi, R. L. Martin, D. J. Fox, T. Keith, M. A. Al-Laham, 
 C. Y. Peng, A. Nanayakkara, M. Challacombe, P. M. W. Gill, 
 B. Johnson, W. Chen, M. W. Wong, C. Gonzalez, and J. A. Pople, 
 Gaussian, Inc., Wallingford CT, 2004.
 
 ******************************************
 Gaussian 03:  EM64T-G03RevE.01 11-Sep-2007
                12-Jun-2015 
 ******************************************
 %nproc=2
 Will use up to    2 processors via shared memory.
 Default route:  MP2=Direct MaxDisk=2000MB
 ----------------------------------------------------
 # b3lyp/6-31+G(d,p) int=ultrafine pop=(ReadRadii,MK)
 ----------------------------------------------------

 Warning!  SCF SP cutoffs with diffuse functions may be unreliable.
 Consider SCF=Tight

 1/38=1/1;
 2/17=6,18=5,40=1/2;
 3/5=1,6=6,7=111,11=2,16=1,25=1,30=1,74=-5,75=5/1,2,3;
 4//1;
 5/5=2,32=1,38=5/2;
 6/7=2,8=2,9=2,10=2,15=8,20=101,28=1/1,2;
 99/5=1,9=1/99;
 -------------------------------------
 Ca3PO4_184.mol2c_plusQ.z51192.zip.xyz
 -------------------------------------
 Symbolic Z-matrix:
 Charge =  1 Multiplicity = 1
 O                    -1.22876   0.82472   0.92389 
 O                    -0.09847  -1.47708   0.92247 
 O                     1.33052   0.65297   0.92087 
 O                    -0.00195  -0.00036  -1.71181 
 P                     0.00211   0.00016   1.718 
 Ca                    1.61571  -1.08369  -0.57146 
 Ca                   -1.74769  -0.85743  -0.56858 
 Ca                    0.12987   1.9409   -0.57063 
 
                          Input orientation:                          
 ---------------------------------------------------------------------
 Center     Atomic     Atomic              Coordinates (Angstroms)
 Number     Number      Type              X           Y           Z
 ---------------------------------------------------------------------
    1          8             0       -1.228760    0.824720    0.923890
    2          8             0       -0.098470   -1.477080    0.922470
    3          8             0        1.330520    0.652970    0.920870
    4          8             0       -0.001950   -0.000360   -1.711810
    5         15             0        0.002110    0.000160    1.718000
    6         20             0        1.615710   -1.083690   -0.571460
    7         20             0       -1.747690   -0.857430   -0.568580
    8         20             0        0.129870    1.940900   -0.570630
 ---------------------------------------------------------------------
                    Distance matrix (angstroms):
                    1          2          3          4          5
     1  O    0.000000
     2  O    2.564340   0.000000
     3  O    2.565038   2.564981   0.000000
     4  O    3.022041   3.021498   3.022138   0.000000
     5  P    1.680937   1.680840   1.681146   3.429812   0.000000
     6  Ca   3.737527   2.307595   2.307460   2.256286   3.003342
     7  Ca   2.307896   2.308056   3.738335   2.255915   3.004282
     8  Ca   2.307666   3.736853   2.307574   2.255695   3.003435
                    6          7          8
     6  Ca   0.000000
     7  Ca   3.371003   0.000000
     8  Ca   3.369847   3.369850   0.000000
 Stoichiometry    Ca3O4P(1+)
 Framework group  C1[X(Ca3O4P)]
 Deg. of freedom    18
 Full point group                 C1
 Largest Abelian subgroup         C1      NOp   1
 Largest concise Abelian subgroup C1      NOp   1
                         Standard orientation:                         
 ---------------------------------------------------------------------
 Center     Atomic     Atomic              Coordinates (Angstroms)
 Number     Number      Type              X           Y           Z
 ---------------------------------------------------------------------
    1          8             0       -1.228734    0.824760    0.923890
    2          8             0       -0.098520   -1.477077    0.922470
    3          8             0        1.330540    0.652926    0.920870
    4          8             0       -0.001952   -0.000360   -1.711810
    5         15             0        0.002108    0.000160    1.718000
    6         20             0        1.615673   -1.083743   -0.571460
    7         20             0       -1.747720   -0.857372   -0.568580
    8         20             0        0.129932    1.940896   -0.570630
 ---------------------------------------------------------------------
 Rotational constants (GHZ):      1.0157647      1.0152949      0.9038657
 Standard basis: 6-31+G(d,p) (6D, 7F)
 There are   180 symmetry adapted basis functions of A   symmetry.
 Integral buffers will be    131072 words long.
 Raffenetti 2 integral format.
 Two-electron integral symmetry is turned on.
   180 basis functions,   424 primitive gaussians,   180 cartesian basis functions
    53 alpha electrons       53 beta electrons
       nuclear repulsion energy       952.7452639009 Hartrees.
 NAtoms=    8 NActive=    8 NUniq=    8 SFac= 7.50D-01 NAtFMM=   80 NAOKFM=F Big=F
 One-electron integrals computed using PRISM.
 NBasis=   180 RedAO= T  NBF=   180
 NBsUse=   180 1.00D-06 NBFU=   180
 Harris functional with IExCor=  402 diagonalized for initial guess.
 ExpMin= 7.10D-03 ExpMax= 3.53D+04 ExpMxC= 5.30D+03 IAcc=3 IRadAn=         5 AccDes= 0.00D+00
 HarFok:  IExCor= 402 AccDes= 0.00D+00 IRadAn=         5 IDoV=1
 ScaDFX=  1.000000  1.000000  1.000000  1.000000
 Initial guess orbital symmetries:
       Occupied  (A) (A) (A) (A) (A) (A) (A) (A) (A) (A) (A) (A)
                 (A) (A) (A) (A) (A) (A) (A) (A) (A) (A) (A) (A)
                 (A) (A) (A) (A) (A) (A) (A) (A) (A) (A) (A) (A)
                 (A) (A) (A) (A) (A) (A) (A) (A) (A) (A) (A) (A)
                 (A) (A) (A) (A) (A)
       Virtual   (A) (A) (A) (A) (A) (A) (A) (A) (A) (A) (A) (A)
                 (A) (A) (A) (A) (A) (A) (A) (A) (A) (A) (A) (A)
                 (A) (A) (A) (A) (A) (A) (A) (A) (A) (A) (A) (A)
                 (A) (A) (A) (A) (A) (A) (A) (A) (A) (A) (A) (A)
                 (A) (A) (A) (A) (A) (A) (A) (A) (A) (A) (A) (A)
                 (A) (A) (A) (A) (A) (A) (A) (A) (A) (A) (A) (A)
                 (A) (A) (A) (A) (A) (A) (A) (A) (A) (A) (A) (A)
                 (A) (A) (A) (A) (A) (A) (A) (A) (A) (A) (A) (A)
                 (A) (A) (A) (A) (A) (A) (A) (A) (A) (A) (A) (A)
                 (A) (A) (A) (A) (A) (A) (A) (A) (A) (A) (A) (A)
                 (A) (A) (A) (A) (A) (A) (A)
 The electronic state of the initial guess is 1-A.
 Requested convergence on RMS density matrix=1.00D-04 within 128 cycles.
 Requested convergence on MAX density matrix=1.00D-02.
 Requested convergence on             energy=1.00D-02.
 No special actions if energy rises.
 SCF Done:  E(RB+HF-LYP) =  -2675.07103630     A.U. after    8 cycles
             Convg  =    0.8391D-04             -V/T =  2.0028
             S**2   =   0.0000

 **********************************************************************

            Population analysis using the SCF density.

 **********************************************************************

 Orbital symmetries:
       Occupied  (A) (A) (A) (A) (A) (A) (A) (A) (A) (A) (A) (A)
                 (A) (A) (A) (A) (A) (A) (A) (A) (A) (A) (A) (A)
                 (A) (A) (A) (A) (A) (A) (A) (A) (A) (A) (A) (A)
                 (A) (A) (A) (A) (A) (A) (A) (A) (A) (A) (A) (A)
                 (A) (A) (A) (A) (A)
       Virtual   (A) (A) (A) (A) (A) (A) (A) (A) (A) (A) (A) (A)
                 (A) (A) (A) (A) (A) (A) (A) (A) (A) (A) (A) (A)
                 (A) (A) (A) (A) (A) (A) (A) (A) (A) (A) (A) (A)
                 (A) (A) (A) (A) (A) (A) (A) (A) (A) (A) (A) (A)
                 (A) (A) (A) (A) (A) (A) (A) (A) (A) (A) (A) (A)
                 (A) (A) (A) (A) (A) (A) (A) (A) (A) (A) (A) (A)
                 (A) (A) (A) (A) (A) (A) (A) (A) (A) (A) (A) (A)
                 (A) (A) (A) (A) (A) (A) (A) (A) (A) (A) (A) (A)
                 (A) (A) (A) (A) (A) (A) (A) (A) (A) (A) (A) (A)
                 (A) (A) (A) (A) (A) (A) (A) (A) (A) (A) (A) (A)
                 (A) (A) (A) (A) (A) (A) (A)
 The electronic state is 1-A.
 Alpha  occ. eigenvalues -- -145.49642-145.49636-145.49630 -77.25055 -19.21234
 Alpha  occ. eigenvalues --  -19.21225 -19.21217 -19.15945 -15.56476 -15.56472
 Alpha  occ. eigenvalues --  -15.56466 -12.69674 -12.69670 -12.69665 -12.69652
 Alpha  occ. eigenvalues --  -12.69648 -12.69642 -12.69604 -12.69601 -12.69595
 Alpha  occ. eigenvalues --   -6.70085  -4.86434  -4.86434  -4.85897  -1.93824
 Alpha  occ. eigenvalues --   -1.93741  -1.93736  -1.22378  -1.21696  -1.21695
 Alpha  occ. eigenvalues --   -1.21307  -1.21139  -1.21065  -1.21063  -1.20644
 Alpha  occ. eigenvalues --   -1.20640  -1.06762  -1.00360  -1.00355  -0.90944
 Alpha  occ. eigenvalues --   -0.62643  -0.50531  -0.50528  -0.47963  -0.43360
 Alpha  occ. eigenvalues --   -0.43358  -0.38349  -0.38342  -0.38179  -0.36140
 Alpha  occ. eigenvalues --   -0.36138  -0.34594  -0.30859
 Alpha virt. eigenvalues --   -0.19950  -0.18028  -0.18025  -0.12555  -0.12553
 Alpha virt. eigenvalues --   -0.10894  -0.09479  -0.09477  -0.08338  -0.07772
 Alpha virt. eigenvalues --   -0.06545  -0.06114  -0.06113  -0.04765  -0.04715
 Alpha virt. eigenvalues --   -0.04714  -0.04673  -0.04473  -0.04472  -0.04003
 Alpha virt. eigenvalues --   -0.04003  -0.03232  -0.02943  -0.02943  -0.02357
 Alpha virt. eigenvalues --   -0.02356  -0.00867   0.01028   0.02176   0.02616
 Alpha virt. eigenvalues --    0.02618   0.04574   0.04576   0.05227   0.06003
 Alpha virt. eigenvalues --    0.06005   0.06293   0.06295   0.07291   0.07293
 Alpha virt. eigenvalues --    0.07382   0.07663   0.07667   0.07823   0.08464
 Alpha virt. eigenvalues --    0.10683   0.10687   0.11332   0.11804   0.13659
 Alpha virt. eigenvalues --    0.15678   0.15684   0.19890   0.19892   0.20369
 Alpha virt. eigenvalues --    0.22085   0.22091   0.23486   0.23992   0.25319
 Alpha virt. eigenvalues --    0.25957   0.25965   0.30033   0.31451   0.31454
 Alpha virt. eigenvalues --    0.35746   0.36001   0.36009   0.37869   0.39080
 Alpha virt. eigenvalues --    0.39085   0.39778   0.45829   0.45839   0.53627
 Alpha virt. eigenvalues --    0.53638   0.55844   0.63366   0.63375   0.67686
 Alpha virt. eigenvalues --    0.82899   0.86948   0.86974   0.94098   0.94121
 Alpha virt. eigenvalues --    1.14554   1.16753   1.16756   1.18028   1.20782
 Alpha virt. eigenvalues --    1.21964   1.21974   1.23402   1.23407   1.28208
 Alpha virt. eigenvalues --    1.34154   1.34187   1.36431   1.54451   1.54471
 Alpha virt. eigenvalues --    1.57779   1.68375   1.71617   1.73140   1.73147
 Alpha virt. eigenvalues --    1.77476   1.77483   1.87078   1.87368   1.87373
 Alpha virt. eigenvalues --    1.88073   1.92069   1.92082   1.93330   1.98432
 Alpha virt. eigenvalues --    1.98446   2.03021   2.03030   2.14785   2.38181
 Alpha virt. eigenvalues --    2.55144   2.55181   3.54377   4.05627   4.14271
 Alpha virt. eigenvalues --    4.14292   4.31227
          Condensed to atoms (all electrons):
              1          2          3          4          5          6
     1  O    8.966000   0.058666   0.058750   0.023996  -0.201046   0.006263
     2  O    0.058666   8.965745   0.058719   0.023966  -0.200900   0.059905
     3  O    0.058750   0.058719   8.965989   0.023982  -0.201122   0.059893
     4  O    0.023996   0.023966   0.023982   8.852836  -0.039956   0.122054
     5  P   -0.201046  -0.200900  -0.201122  -0.039956  14.443591   0.033766
     6  Ca   0.006263   0.059905   0.059893   0.122054   0.033766  18.396868
     7  Ca   0.059767   0.059778   0.006170   0.122126   0.033875  -0.047553
     8  Ca   0.059822   0.006193   0.059809   0.122128   0.033848  -0.047767
              7          8
     1  O    0.059767   0.059822
     2  O    0.059778   0.006193
     3  O    0.006170   0.059809
     4  O    0.122126   0.122128
     5  P    0.033875   0.033848
     6  Ca  -0.047553  -0.047767
     7  Ca  18.396683  -0.047593
     8  Ca  -0.047593  18.397211
 Mulliken atomic charges:
              1
     1  O   -1.032219
     2  O   -1.032071
     3  O   -1.032189
     4  O   -1.251131
     5  P    1.097944
     6  Ca   1.416572
     7  Ca   1.416746
     8  Ca   1.416348
 Sum of Mulliken charges=   1.00000
 Atomic charges with hydrogens summed into heavy atoms:
              1
     1  O   -1.032219
     2  O   -1.032071
     3  O   -1.032189
     4  O   -1.251131
     5  P    1.097944
     6  Ca   1.416572
     7  Ca   1.416746
     8  Ca   1.416348
 Sum of Mulliken charges=   1.00000
 Electronic spatial extent (au):  <R**2>=  1510.0234
 Charge=     1.0000 electrons
 Dipole moment (field-independent basis, Debye):
    X=    -0.0125    Y=    -0.0047    Z=    -8.2313  Tot=     8.2314
 Quadrupole moment (field-independent basis, Debye-Ang):
   XX=   -40.0186   YY=   -40.0505   ZZ=   -90.0140
   XY=    -0.0059   XZ=    -0.0464   YZ=    -0.0119
 Traceless Quadrupole moment (field-independent basis, Debye-Ang):
   XX=    16.6758   YY=    16.6439   ZZ=   -33.3197
   XY=    -0.0059   XZ=    -0.0464   YZ=    -0.0119
 Octapole moment (field-independent basis, Debye-Ang**2):
  XXX=   -11.9139  YYY=    57.3427  ZZZ=    -1.7103  XYY=    11.6728
  XXY=   -57.4314  XXZ=   -46.6696  XZZ=     0.0856  YZZ=     0.0072
  YYZ=   -46.6757  XYZ=     0.0513
 Hexadecapole moment (field-independent basis, Debye-Ang**3):
 XXXX=  -416.0686 YYYY=  -415.9695 ZZZZ=  -721.6674 XXXY=     0.0323
 XXXZ=     2.9048 YYYX=    -0.0389 YYYZ=   -15.1468 ZZZX=    -0.2370
 ZZZY=    -0.0383 XXYY=  -138.6793 XXZZ=  -187.6184 YYZZ=  -187.5461
 XXYZ=    15.1127 YYXZ=    -3.1536 ZZXY=    -0.0222
 N-N= 9.527452639009D+02 E-N=-8.229967349589D+03  KE= 2.667695480816D+03
 Merz-Kollman atomic radii used.
 Read replacement radii for each type of atom:
 Rad(20) =   1.188000000000D+00
 Atom Element Radius
    1     8    1.40
    2     8    1.40
    3     8    1.40
    4     8    1.40
    5    15    1.80
    6    20    1.19
    7    20    1.19
    8    20    1.19

 **********************************************************************

            Electrostatic Properties Using The SCF Density

 **********************************************************************

       Atomic Center    1 is at  -1.228734  0.824760  0.923890
       Atomic Center    2 is at  -0.098520 -1.477077  0.922470
       Atomic Center    3 is at   1.330540  0.652926  0.920870
       Atomic Center    4 is at  -0.001952 -0.000360 -1.711810
       Atomic Center    5 is at   0.002108  0.000160  1.718000
       Atomic Center    6 is at   1.615673 -1.083743 -0.571460
       Atomic Center    7 is at  -1.747720 -0.857372 -0.568580
       Atomic Center    8 is at   0.129932  1.940896 -0.570630
     672 points will be used for fitting atomic charges
 Fitting point charges to eletrostatic potential
 Charges from ESP fit, RMS=   0.00609 RRMS=   0.03747:
 Charge=   1.00000 Dipole=    -0.0482    -0.0148    -8.4091 Tot=     8.4093
              1
     1  O   -0.942734
     2  O   -0.942183
     3  O   -0.947633
     4  O   -1.630417
     5  P    0.518385
     6  Ca   1.647637
     7  Ca   1.648366
     8  Ca   1.648580
 -----------------------------------------------------------------

              Electrostatic Properties (Atomic Units)

 -----------------------------------------------------------------
    Center     Electric         -------- Electric Field --------
               Potential          X             Y             Z
 -----------------------------------------------------------------
    1 Atom    -22.251275
    2 Atom    -22.251077
    3 Atom    -22.251438
    4 Atom    -22.290952
    5 Atom    -53.968040
    6 Atom    -80.043298
    7 Atom    -80.043249
    8 Atom    -80.043369
 -----------------------------------------------------------------
 1\1\GINC-N031\SP\RB3LYP\6-31+G(d,p)\Ca3O4P1(1+)\TIMN\12-Jun-2015\0\\# 
 b3lyp/6-31+G(d,p) int=ultrafine pop=(ReadRadii,MK)\\Ca3PO4_184.mol2c_p
 lusQ.z51192.zip.xyz\\1,1\O,0,-1.22876,0.82472,0.92389\O,0,-0.09847,-1.
 47708,0.92247\O,0,1.33052,0.65297,0.92087\O,0,-0.00195,-0.00036,-1.711
 81\P,0,0.00211,0.00016,1.718\Ca,0,1.61571,-1.08369,-0.57146\Ca,0,-1.74
 769,-0.85743,-0.56858\Ca,0,0.12987,1.9409,-0.57063\\Version=EM64T-G03R
 evE.01\State=1-A\HF=-2675.0710363\RMSD=8.391e-05\Thermal=0.\Dipole=-0.
 0049089,-0.0018513,-3.2384599\PG=C01 [X(Ca3O4P1)]\\@


 I FIND THAT THE THREE TRULY GREAT TIMES FOR THINKING THOUGHTS
 ARE WHEN I AM STANDING IN THE SHOWER, SITTING ON THE JOHN, OR WALKING.

                                    -- COLIN FLETCHER
 Job cpu time:  0 days  0 hours  1 minutes 41.8 seconds.
 File lengths (MBytes):  RWF=     32 Int=      0 D2E=      0 Chk=     11 Scr=      1
 Normal termination of Gaussian 03 at Fri Jun 12 17:40:21 2015.
