 Entering Gaussian System, Link 0=/home/timn/tmp/g03.e01/g03
 Input=Ca3PO4_23.mol2_plusQ.z51434.zip.xyz.gjf
 Output=Ca3PO4_23.mol2_plusQ.z51434.zip.xyz.out
 Initial command:
 /home/timn/tmp/g03.e01/l1.exe /home/timn/tmp/g03.e01/Gau-12008.inp -scrdir=/home/timn/tmp/g03.e01/
 Default is to use a total of   2 processors:
                                2 via shared-memory
                                1 via Linda
 Entering Link 1 = /home/timn/tmp/g03.e01/l1.exe PID=     12009.
  
 Copyright (c) 1988,1990,1992,1993,1995,1998,2003,2004,2007, Gaussian, Inc.
                  All Rights Reserved.
  
 This is the Gaussian(R) 03 program.  It is based on the
 the Gaussian(R) 98 system (copyright 1998, Gaussian, Inc.),
 the Gaussian(R) 94 system (copyright 1995, Gaussian, Inc.),
 the Gaussian 92(TM) system (copyright 1992, Gaussian, Inc.),
 the Gaussian 90(TM) system (copyright 1990, Gaussian, Inc.),
 the Gaussian 88(TM) system (copyright 1988, Gaussian, Inc.),
 the Gaussian 86(TM) system (copyright 1986, Carnegie Mellon
 University), and the Gaussian 82(TM) system (copyright 1983,
 Carnegie Mellon University). Gaussian is a federally registered
 trademark of Gaussian, Inc.
  
 This software contains proprietary and confidential information,
 including trade secrets, belonging to Gaussian, Inc.
  
 This software is provided under written license and may be
 used, copied, transmitted, or stored only in accord with that
 written license.
  
 The following legend is applicable only to US Government
 contracts under FAR:
  
                    RESTRICTED RIGHTS LEGEND
  
 Use, reproduction and disclosure by the US Government is
 subject to restrictions as set forth in subparagraphs (a)
 and (c) of the Commercial Computer Software - Restricted
 Rights clause in FAR 52.227-19.
  
 Gaussian, Inc.
 340 Quinnipiac St., Bldg. 40, Wallingford CT 06492
  
  
 ---------------------------------------------------------------
 Warning -- This program may not be used in any manner that
 competes with the business of Gaussian, Inc. or will provide
 assistance to any competitor of Gaussian, Inc.  The licensee
 of this program is prohibited from giving any competitor of
 Gaussian, Inc. access to this program.  By using this program,
 the user acknowledges that Gaussian, Inc. is engaged in the
 business of creating and licensing software in the field of
 computational chemistry and represents and warrants to the
 licensee that it is not a competitor of Gaussian, Inc. and that
 it will not use this program in any manner prohibited above.
 ---------------------------------------------------------------
  

 Cite this work as:
 Gaussian 03, Revision E.01,
 M. J. Frisch, G. W. Trucks, H. B. Schlegel, G. E. Scuseria, 
 M. A. Robb, J. R. Cheeseman, J. A. Montgomery, Jr., T. Vreven, 
 K. N. Kudin, J. C. Burant, J. M. Millam, S. S. Iyengar, J. Tomasi, 
 V. Barone, B. Mennucci, M. Cossi, G. Scalmani, N. Rega, 
 G. A. Petersson, H. Nakatsuji, M. Hada, M. Ehara, K. Toyota, 
 R. Fukuda, J. Hasegawa, M. Ishida, T. Nakajima, Y. Honda, O. Kitao, 
 H. Nakai, M. Klene, X. Li, J. E. Knox, H. P. Hratchian, J. B. Cross, 
 V. Bakken, C. Adamo, J. Jaramillo, R. Gomperts, R. E. Stratmann, 
 O. Yazyev, A. J. Austin, R. Cammi, C. Pomelli, J. W. Ochterski, 
 P. Y. Ayala, K. Morokuma, G. A. Voth, P. Salvador, J. J. Dannenberg, 
 V. G. Zakrzewski, S. Dapprich, A. D. Daniels, M. C. Strain, 
 O. Farkas, D. K. Malick, A. D. Rabuck, K. Raghavachari, 
 J. B. Foresman, J. V. Ortiz, Q. Cui, A. G. Baboul, S. Clifford, 
 J. Cioslowski, B. B. Stefanov, G. Liu, A. Liashenko, P. Piskorz, 
 I. Komaromi, R. L. Martin, D. J. Fox, T. Keith, M. A. Al-Laham, 
 C. Y. Peng, A. Nanayakkara, M. Challacombe, P. M. W. Gill, 
 B. Johnson, W. Chen, M. W. Wong, C. Gonzalez, and J. A. Pople, 
 Gaussian, Inc., Wallingford CT, 2004.
 
 ******************************************
 Gaussian 03:  EM64T-G03RevE.01 11-Sep-2007
                12-Jun-2015 
 ******************************************
 %nproc=2
 Will use up to    2 processors via shared memory.
 Default route:  MP2=Direct MaxDisk=2000MB
 ----------------------------------------------------
 # b3lyp/6-31+G(d,p) int=ultrafine pop=(ReadRadii,MK)
 ----------------------------------------------------

 Warning!  SCF SP cutoffs with diffuse functions may be unreliable.
 Consider SCF=Tight

 1/38=1/1;
 2/17=6,18=5,40=1/2;
 3/5=1,6=6,7=111,11=2,16=1,25=1,30=1,74=-5,75=5/1,2,3;
 4//1;
 5/5=2,32=1,38=5/2;
 6/7=2,8=2,9=2,10=2,15=8,20=101,28=1/1,2;
 99/5=1,9=1/99;
 -----------------------------------
 Ca3PO4_23.mol2_plusQ.z51434.zip.xyz
 -----------------------------------
 Symbolic Z-matrix:
 Charge =  1 Multiplicity = 1
 O                     0.27898  -1.09258  -0.20538 
 O                     2.30587   0.89724   1.02709 
 O                     2.68621   0.83779  -0.49483 
 O                    -1.5916    0.58498  -0.52774 
 P                    -1.20828  -1.01857  -0.80826 
 Ca                    0.54565   1.49391  -0.25072 
 Ca                    2.46991  -1.21368   0.33583 
 Ca                   -3.58114  -0.00728   0.60144 
 
                          Input orientation:                          
 ---------------------------------------------------------------------
 Center     Atomic     Atomic              Coordinates (Angstroms)
 Number     Number      Type              X           Y           Z
 ---------------------------------------------------------------------
    1          8             0        0.278980   -1.092580   -0.205380
    2          8             0        2.305870    0.897240    1.027090
    3          8             0        2.686210    0.837790   -0.494830
    4          8             0       -1.591600    0.584980   -0.527740
    5         15             0       -1.208280   -1.018570   -0.808260
    6         20             0        0.545650    1.493910   -0.250720
    7         20             0        2.469910   -1.213680    0.335830
    8         20             0       -3.581140   -0.007280    0.601440
 ---------------------------------------------------------------------
                    Distance matrix (angstroms):
                    1          2          3          4          5
     1  O    0.000000
     2  O    3.096231   0.000000
     3  O    3.099172   1.569851   0.000000
     4  O    2.533218   4.207764   4.285400   0.000000
     5  P    1.606513   4.403191   4.325663   1.672423   0.000000
     6  Ca   2.600596   2.255480   2.252128   2.338959   3.114430
     7  Ca   2.260033   2.227270   2.223805   4.525129   3.856954
     8  Ca   4.090154   5.971283   6.418382   2.363068   2.939460
                    6          7          8
     6  Ca   0.000000
     7  Ca   3.373109   0.000000
     8  Ca   4.473270   6.175853   0.000000
 Stoichiometry    Ca3O4P(1+)
 Framework group  C1[X(Ca3O4P)]
 Deg. of freedom    18
 Full point group                 C1
 Largest Abelian subgroup         C1      NOp   1
 Largest concise Abelian subgroup C1      NOp   1
                         Standard orientation:                         
 ---------------------------------------------------------------------
 Center     Atomic     Atomic              Coordinates (Angstroms)
 Number     Number      Type              X           Y           Z
 ---------------------------------------------------------------------
    1          8             0        0.278981   -1.092579   -0.205382
    2          8             0        2.305871    0.897242    1.027088
    3          8             0        2.686211    0.837792   -0.494832
    4          8             0       -1.591599    0.584981   -0.527742
    5         15             0       -1.208279   -1.018569   -0.808262
    6         20             0        0.545651    1.493911   -0.250722
    7         20             0        2.469911   -1.213678    0.335828
    8         20             0       -3.581139   -0.007280    0.601438
 ---------------------------------------------------------------------
 Rotational constants (GHZ):      1.7046086      0.4499252      0.3934477
 Standard basis: 6-31+G(d,p) (6D, 7F)
 There are   180 symmetry adapted basis functions of A   symmetry.
 Integral buffers will be    131072 words long.
 Raffenetti 2 integral format.
 Two-electron integral symmetry is turned on.
   180 basis functions,   424 primitive gaussians,   180 cartesian basis functions
    53 alpha electrons       53 beta electrons
       nuclear repulsion energy       829.8997203442 Hartrees.
 NAtoms=    8 NActive=    8 NUniq=    8 SFac= 7.50D-01 NAtFMM=   80 NAOKFM=F Big=F
 One-electron integrals computed using PRISM.
 NBasis=   180 RedAO= T  NBF=   180
 NBsUse=   180 1.00D-06 NBFU=   180
 Harris functional with IExCor=  402 diagonalized for initial guess.
 ExpMin= 7.10D-03 ExpMax= 3.53D+04 ExpMxC= 5.30D+03 IAcc=3 IRadAn=         5 AccDes= 0.00D+00
 HarFok:  IExCor= 402 AccDes= 0.00D+00 IRadAn=         5 IDoV=1
 ScaDFX=  1.000000  1.000000  1.000000  1.000000
 Initial guess orbital symmetries:
       Occupied  (A) (A) (A) (A) (A) (A) (A) (A) (A) (A) (A) (A)
                 (A) (A) (A) (A) (A) (A) (A) (A) (A) (A) (A) (A)
                 (A) (A) (A) (A) (A) (A) (A) (A) (A) (A) (A) (A)
                 (A) (A) (A) (A) (A) (A) (A) (A) (A) (A) (A) (A)
                 (A) (A) (A) (A) (A)
       Virtual   (A) (A) (A) (A) (A) (A) (A) (A) (A) (A) (A) (A)
                 (A) (A) (A) (A) (A) (A) (A) (A) (A) (A) (A) (A)
                 (A) (A) (A) (A) (A) (A) (A) (A) (A) (A) (A) (A)
                 (A) (A) (A) (A) (A) (A) (A) (A) (A) (A) (A) (A)
                 (A) (A) (A) (A) (A) (A) (A) (A) (A) (A) (A) (A)
                 (A) (A) (A) (A) (A) (A) (A) (A) (A) (A) (A) (A)
                 (A) (A) (A) (A) (A) (A) (A) (A) (A) (A) (A) (A)
                 (A) (A) (A) (A) (A) (A) (A) (A) (A) (A) (A) (A)
                 (A) (A) (A) (A) (A) (A) (A) (A) (A) (A) (A) (A)
                 (A) (A) (A) (A) (A) (A) (A) (A) (A) (A) (A) (A)
                 (A) (A) (A) (A) (A) (A) (A)
 The electronic state of the initial guess is 1-A.
 Requested convergence on RMS density matrix=1.00D-04 within 128 cycles.
 Requested convergence on MAX density matrix=1.00D-02.
 Requested convergence on             energy=1.00D-02.
 No special actions if energy rises.
 EnCoef did     6 forward-backward iterations
 EnCoef did   100 forward-backward iterations
 EnCoef did   100 forward-backward iterations
 EnCoef did   100 forward-backward iterations
 SCF Done:  E(RB+HF-LYP) =  -2674.87852834     A.U. after   13 cycles
             Convg  =    0.8137D-04             -V/T =  2.0027
             S**2   =   0.0000

 **********************************************************************

            Population analysis using the SCF density.

 **********************************************************************

 Orbital symmetries:
       Occupied  (A) (A) (A) (A) (A) (A) (A) (A) (A) (A) (A) (A)
                 (A) (A) (A) (A) (A) (A) (A) (A) (A) (A) (A) (A)
                 (A) (A) (A) (A) (A) (A) (A) (A) (A) (A) (A) (A)
                 (A) (A) (A) (A) (A) (A) (A) (A) (A) (A) (A) (A)
                 (A) (A) (A) (A) (A)
       Virtual   (A) (A) (A) (A) (A) (A) (A) (A) (A) (A) (A) (A)
                 (A) (A) (A) (A) (A) (A) (A) (A) (A) (A) (A) (A)
                 (A) (A) (A) (A) (A) (A) (A) (A) (A) (A) (A) (A)
                 (A) (A) (A) (A) (A) (A) (A) (A) (A) (A) (A) (A)
                 (A) (A) (A) (A) (A) (A) (A) (A) (A) (A) (A) (A)
                 (A) (A) (A) (A) (A) (A) (A) (A) (A) (A) (A) (A)
                 (A) (A) (A) (A) (A) (A) (A) (A) (A) (A) (A) (A)
                 (A) (A) (A) (A) (A) (A) (A) (A) (A) (A) (A) (A)
                 (A) (A) (A) (A) (A) (A) (A) (A) (A) (A) (A) (A)
                 (A) (A) (A) (A) (A) (A) (A) (A) (A) (A) (A) (A)
                 (A) (A) (A) (A) (A) (A) (A)
 The electronic state is 1-A.
 Alpha  occ. eigenvalues -- -145.52013-145.51712-145.49215 -77.25374 -19.25134
 Alpha  occ. eigenvalues --  -19.24615 -19.22922 -19.22909 -15.58808 -15.58699
 Alpha  occ. eigenvalues --  -15.56106 -12.72019 -12.71995 -12.71940 -12.71893
 Alpha  occ. eigenvalues --  -12.71868 -12.71788 -12.69344 -12.69330 -12.69163
 Alpha  occ. eigenvalues --   -6.71041  -4.87420  -4.87167  -4.86927  -1.95946
 Alpha  occ. eigenvalues --   -1.95751  -1.93376  -1.24054  -1.23442  -1.23389
 Alpha  occ. eigenvalues --   -1.23266  -1.23058  -1.22990  -1.21225  -1.21072
 Alpha  occ. eigenvalues --   -1.20792  -1.09138  -1.05647  -1.03958  -0.86805
 Alpha  occ. eigenvalues --   -0.65655  -0.53356  -0.50990  -0.49153  -0.46367
 Alpha  occ. eigenvalues --   -0.45007  -0.44124  -0.43304  -0.41638  -0.39369
 Alpha  occ. eigenvalues --   -0.33874  -0.31842  -0.25234
 Alpha virt. eigenvalues --   -0.20650  -0.19671  -0.16795  -0.13712  -0.12705
 Alpha virt. eigenvalues --   -0.12387  -0.10595  -0.10412  -0.09898  -0.08623
 Alpha virt. eigenvalues --   -0.07606  -0.07019  -0.06825  -0.06417  -0.06198
 Alpha virt. eigenvalues --   -0.05447  -0.05163  -0.04837  -0.04653  -0.04294
 Alpha virt. eigenvalues --   -0.04057  -0.04001  -0.03918  -0.03361  -0.03217
 Alpha virt. eigenvalues --   -0.03158  -0.02735  -0.01872  -0.00356   0.01127
 Alpha virt. eigenvalues --    0.01366   0.02749   0.03392   0.03885   0.04102
 Alpha virt. eigenvalues --    0.04668   0.04971   0.05096   0.05565   0.05878
 Alpha virt. eigenvalues --    0.06424   0.07002   0.07198   0.07723   0.08180
 Alpha virt. eigenvalues --    0.08579   0.08875   0.09342   0.09923   0.10926
 Alpha virt. eigenvalues --    0.11456   0.14087   0.14394   0.15442   0.16608
 Alpha virt. eigenvalues --    0.17538   0.18222   0.19820   0.20356   0.21272
 Alpha virt. eigenvalues --    0.23580   0.24152   0.26767   0.26910   0.28737
 Alpha virt. eigenvalues --    0.30652   0.31403   0.33436   0.34891   0.36461
 Alpha virt. eigenvalues --    0.36623   0.37694   0.38893   0.42374   0.48529
 Alpha virt. eigenvalues --    0.50383   0.52883   0.57054   0.61050   0.64521
 Alpha virt. eigenvalues --    0.68208   0.70306   0.72297   0.87908   0.92665
 Alpha virt. eigenvalues --    1.06623   1.10320   1.10745   1.12706   1.13243
 Alpha virt. eigenvalues --    1.14683   1.16764   1.17676   1.19102   1.20557
 Alpha virt. eigenvalues --    1.25279   1.27967   1.35530   1.44751   1.48355
 Alpha virt. eigenvalues --    1.51742   1.53749   1.58562   1.65590   1.70596
 Alpha virt. eigenvalues --    1.71953   1.75069   1.76241   1.78226   1.81290
 Alpha virt. eigenvalues --    1.82364   1.83300   1.85663   1.88741   1.90349
 Alpha virt. eigenvalues --    1.98231   1.99217   2.18954   2.20781   2.38540
 Alpha virt. eigenvalues --    2.57868   3.03757   3.46020   3.91563   3.96560
 Alpha virt. eigenvalues --    4.03902   4.11939
          Condensed to atoms (all electrons):
              1          2          3          4          5          6
     1  O    8.983204  -0.001410  -0.003137   0.002043  -0.244054   0.028284
     2  O   -0.001410   8.481298  -0.031103  -0.000539  -0.003835   0.105510
     3  O   -0.003137  -0.031103   8.481129  -0.002360  -0.003758   0.102232
     4  O    0.002043  -0.000539  -0.002360   9.309579  -0.407616   0.048482
     5  P   -0.244054  -0.003835  -0.003758  -0.407616  15.236840   0.014320
     6  Ca   0.028284   0.105510   0.102232   0.048482   0.014320  18.262279
     7  Ca   0.066580   0.101145   0.104472   0.007189  -0.022119  -0.021845
     8  Ca  -0.029085   0.000742  -0.000364  -0.223834   0.302013   0.010258
              7          8
     1  O    0.066580  -0.029085
     2  O    0.101145   0.000742
     3  O    0.104472  -0.000364
     4  O    0.007189  -0.223834
     5  P   -0.022119   0.302013
     6  Ca  -0.021845   0.010258
     7  Ca  18.250174   0.011703
     8  Ca   0.011703  19.175673
 Mulliken atomic charges:
              1
     1  O   -0.802424
     2  O   -0.651808
     3  O   -0.647112
     4  O   -0.732943
     5  P    0.128209
     6  Ca   1.450480
     7  Ca   1.502702
     8  Ca   0.752895
 Sum of Mulliken charges=   1.00000
 Atomic charges with hydrogens summed into heavy atoms:
              1
     1  O   -0.802424
     2  O   -0.651808
     3  O   -0.647112
     4  O   -0.732943
     5  P    0.128209
     6  Ca   1.450480
     7  Ca   1.502702
     8  Ca   0.752895
 Sum of Mulliken charges=   1.00000
 Electronic spatial extent (au):  <R**2>=  2539.5774
 Charge=     1.0000 electrons
 Dipole moment (field-independent basis, Debye):
    X=    -1.0756    Y=    -1.7695    Z=     1.9227  Tot=     2.8258
 Quadrupole moment (field-independent basis, Debye-Ang):
   XX=   -38.4856   YY=   -55.9665   ZZ=   -79.1227
   XY=   -31.1133   XZ=    -3.6019   YZ=    -6.8161
 Traceless Quadrupole moment (field-independent basis, Debye-Ang):
   XX=    19.3727   YY=     1.8918   ZZ=   -21.2644
   XY=   -31.1133   XZ=    -3.6019   YZ=    -6.8161
 Octapole moment (field-independent basis, Debye-Ang**2):
  XXX=   -29.6218  YYY=    23.4362  ZZZ=    -2.9761  XYY=    60.0353
  XXY=   -87.5859  XXZ=    25.0557  XZZ=    18.5736  YZZ=     0.6324
  YYZ=    -0.6445  XYZ=   -18.0836
 Hexadecapole moment (field-independent basis, Debye-Ang**3):
 XXXX= -2027.0098 YYYY=  -454.5480 ZZZZ=  -296.8466 XXXY=  -331.8949
 XXXZ=    24.2902 YYYX=  -107.6672 YYYZ=   -32.3273 ZZZX=    24.2232
 ZZZY=   -27.0344 XXYY=  -469.6665 XXZZ=  -487.2367 YYZZ=  -138.9283
 XXYZ=   -27.2611 YYXZ=    15.2294 ZZXY=   -38.3636
 N-N= 8.298997203442D+02 E-N=-7.982530870945D+03  KE= 2.667644756501D+03
 Merz-Kollman atomic radii used.
 Read replacement radii for each type of atom:
 Rad(20) =   1.188000000000D+00
 Atom Element Radius
    1     8    1.40
    2     8    1.40
    3     8    1.40
    4     8    1.40
    5    15    1.80
    6    20    1.19
    7    20    1.19
    8    20    1.19

 **********************************************************************

            Electrostatic Properties Using The SCF Density

 **********************************************************************

       Atomic Center    1 is at   0.278981 -1.092579 -0.205382
       Atomic Center    2 is at   2.305871  0.897242  1.027088
       Atomic Center    3 is at   2.686211  0.837792 -0.494832
       Atomic Center    4 is at  -1.591599  0.584981 -0.527742
       Atomic Center    5 is at  -1.208279 -1.018569 -0.808262
       Atomic Center    6 is at   0.545651  1.493911 -0.250722
       Atomic Center    7 is at   2.469911 -1.213678  0.335828
       Atomic Center    8 is at  -3.581139 -0.007280  0.601438
     789 points will be used for fitting atomic charges
 Fitting point charges to eletrostatic potential
 Charges from ESP fit, RMS=   0.01459 RRMS=   0.09339:
 Charge=   1.00000 Dipole=    -4.1215    -1.7308     3.4882 Tot=     5.6701
              1
     1  O   -0.749299
     2  O   -0.849350
     3  O   -0.727637
     4  O   -0.608389
     5  P   -0.154916
     6  Ca   1.618268
     7  Ca   1.665116
     8  Ca   0.806208
 -----------------------------------------------------------------

              Electrostatic Properties (Atomic Units)

 -----------------------------------------------------------------
    Center     Electric         -------- Electric Field --------
               Potential          X             Y             Z
 -----------------------------------------------------------------
    1 Atom    -22.210195
    2 Atom    -22.242657
    3 Atom    -22.243033
    4 Atom    -22.220746
    5 Atom    -53.964924
    6 Atom    -80.049356
    7 Atom    -80.021362
    8 Atom    -80.025508
 -----------------------------------------------------------------
 1\1\GINC-N034\SP\RB3LYP\6-31+G(d,p)\Ca3O4P1(1+)\TIMN\12-Jun-2015\0\\# 
 b3lyp/6-31+G(d,p) int=ultrafine pop=(ReadRadii,MK)\\Ca3PO4_23.mol2_plu
 sQ.z51434.zip.xyz\\1,1\O,0,0.27898,-1.09258,-0.20538\O,0,2.30587,0.897
 24,1.02709\O,0,2.68621,0.83779,-0.49483\O,0,-1.5916,0.58498,-0.52774\P
 ,0,-1.20828,-1.01857,-0.80826\Ca,0,0.54565,1.49391,-0.25072\Ca,0,2.469
 91,-1.21368,0.33583\Ca,0,-3.58114,-0.00728,0.60144\\Version=EM64T-G03R
 evE.01\State=1-A\HF=-2674.8785283\RMSD=8.137e-05\Thermal=0.\Dipole=-0.
 4231704,-0.6961897,0.7564608\PG=C01 [X(Ca3O4P1)]\\@


 I DO NOT DEFINE TIME, SPACE, PLACE, AND MOTION, AS BEING WELL KNOWN TO ALL.
                                            -- NEWTON (1642-1726), PRINCIPIA
 Job cpu time:  0 days  0 hours  2 minutes 22.7 seconds.
 File lengths (MBytes):  RWF=     32 Int=      0 D2E=      0 Chk=     11 Scr=      1
 Normal termination of Gaussian 03 at Fri Jun 12 17:43:03 2015.
