 Entering Gaussian System, Link 0=/home/timn/tmp/g03.e01/g03
 Input=Ca3PO4_92.mol2cc_plusQ.z51510.zip.xyz.gjf
 Output=Ca3PO4_92.mol2cc_plusQ.z51510.zip.xyz.out
 Initial command:
 /home/timn/tmp/g03.e01/l1.exe /home/timn/tmp/g03.e01/Gau-19024.inp -scrdir=/home/timn/tmp/g03.e01/
 Default is to use a total of   2 processors:
                                2 via shared-memory
                                1 via Linda
 Entering Link 1 = /home/timn/tmp/g03.e01/l1.exe PID=     19025.
  
 Copyright (c) 1988,1990,1992,1993,1995,1998,2003,2004,2007, Gaussian, Inc.
                  All Rights Reserved.
  
 This is the Gaussian(R) 03 program.  It is based on the
 the Gaussian(R) 98 system (copyright 1998, Gaussian, Inc.),
 the Gaussian(R) 94 system (copyright 1995, Gaussian, Inc.),
 the Gaussian 92(TM) system (copyright 1992, Gaussian, Inc.),
 the Gaussian 90(TM) system (copyright 1990, Gaussian, Inc.),
 the Gaussian 88(TM) system (copyright 1988, Gaussian, Inc.),
 the Gaussian 86(TM) system (copyright 1986, Carnegie Mellon
 University), and the Gaussian 82(TM) system (copyright 1983,
 Carnegie Mellon University). Gaussian is a federally registered
 trademark of Gaussian, Inc.
  
 This software contains proprietary and confidential information,
 including trade secrets, belonging to Gaussian, Inc.
  
 This software is provided under written license and may be
 used, copied, transmitted, or stored only in accord with that
 written license.
  
 The following legend is applicable only to US Government
 contracts under FAR:
  
                    RESTRICTED RIGHTS LEGEND
  
 Use, reproduction and disclosure by the US Government is
 subject to restrictions as set forth in subparagraphs (a)
 and (c) of the Commercial Computer Software - Restricted
 Rights clause in FAR 52.227-19.
  
 Gaussian, Inc.
 340 Quinnipiac St., Bldg. 40, Wallingford CT 06492
  
  
 ---------------------------------------------------------------
 Warning -- This program may not be used in any manner that
 competes with the business of Gaussian, Inc. or will provide
 assistance to any competitor of Gaussian, Inc.  The licensee
 of this program is prohibited from giving any competitor of
 Gaussian, Inc. access to this program.  By using this program,
 the user acknowledges that Gaussian, Inc. is engaged in the
 business of creating and licensing software in the field of
 computational chemistry and represents and warrants to the
 licensee that it is not a competitor of Gaussian, Inc. and that
 it will not use this program in any manner prohibited above.
 ---------------------------------------------------------------
  

 Cite this work as:
 Gaussian 03, Revision E.01,
 M. J. Frisch, G. W. Trucks, H. B. Schlegel, G. E. Scuseria, 
 M. A. Robb, J. R. Cheeseman, J. A. Montgomery, Jr., T. Vreven, 
 K. N. Kudin, J. C. Burant, J. M. Millam, S. S. Iyengar, J. Tomasi, 
 V. Barone, B. Mennucci, M. Cossi, G. Scalmani, N. Rega, 
 G. A. Petersson, H. Nakatsuji, M. Hada, M. Ehara, K. Toyota, 
 R. Fukuda, J. Hasegawa, M. Ishida, T. Nakajima, Y. Honda, O. Kitao, 
 H. Nakai, M. Klene, X. Li, J. E. Knox, H. P. Hratchian, J. B. Cross, 
 V. Bakken, C. Adamo, J. Jaramillo, R. Gomperts, R. E. Stratmann, 
 O. Yazyev, A. J. Austin, R. Cammi, C. Pomelli, J. W. Ochterski, 
 P. Y. Ayala, K. Morokuma, G. A. Voth, P. Salvador, J. J. Dannenberg, 
 V. G. Zakrzewski, S. Dapprich, A. D. Daniels, M. C. Strain, 
 O. Farkas, D. K. Malick, A. D. Rabuck, K. Raghavachari, 
 J. B. Foresman, J. V. Ortiz, Q. Cui, A. G. Baboul, S. Clifford, 
 J. Cioslowski, B. B. Stefanov, G. Liu, A. Liashenko, P. Piskorz, 
 I. Komaromi, R. L. Martin, D. J. Fox, T. Keith, M. A. Al-Laham, 
 C. Y. Peng, A. Nanayakkara, M. Challacombe, P. M. W. Gill, 
 B. Johnson, W. Chen, M. W. Wong, C. Gonzalez, and J. A. Pople, 
 Gaussian, Inc., Wallingford CT, 2004.
 
 ******************************************
 Gaussian 03:  EM64T-G03RevE.01 11-Sep-2007
                12-Jun-2015 
 ******************************************
 %nproc=2
 Will use up to    2 processors via shared memory.
 Default route:  MP2=Direct MaxDisk=2000MB
 ----------------------------------------------------
 # b3lyp/6-31+G(d,p) int=ultrafine pop=(ReadRadii,MK)
 ----------------------------------------------------

 Warning!  SCF SP cutoffs with diffuse functions may be unreliable.
 Consider SCF=Tight

 1/38=1/1;
 2/17=6,18=5,40=1/2;
 3/5=1,6=6,7=111,11=2,16=1,25=1,30=1,74=-5,75=5/1,2,3;
 4//1;
 5/5=2,32=1,38=5/2;
 6/7=2,8=2,9=2,10=2,15=8,20=101,28=1/1,2;
 99/5=1,9=1/99;
 -------------------------------------
 Ca3PO4_92.mol2cc_plusQ.z51510.zip.xyz
 -------------------------------------
 Symbolic Z-matrix:
 Charge =  1 Multiplicity = 1
 O                    -0.88975   0.98844   0.32446 
 O                    -0.2109   -1.46692   0.60579 
 O                    -2.38557   0.92103   0.41122 
 O                     1.42591   0.40964   0.8531 
 P                    -0.00215  -0.08918   1.48541 
 Ca                   -1.94402  -0.9001   -0.82295 
 Ca                    1.87563  -1.46358  -0.48891 
 Ca                    0.89413   2.08968  -0.68003 
 
                          Input orientation:                          
 ---------------------------------------------------------------------
 Center     Atomic     Atomic              Coordinates (Angstroms)
 Number     Number      Type              X           Y           Z
 ---------------------------------------------------------------------
    1          8             0       -0.889750    0.988440    0.324460
    2          8             0       -0.210900   -1.466920    0.605790
    3          8             0       -2.385570    0.921030    0.411220
    4          8             0        1.425910    0.409640    0.853100
    5         15             0       -0.002150   -0.089180    1.485410
    6         20             0       -1.944020   -0.900100   -0.822950
    7         20             0        1.875630   -1.463580   -0.488910
    8         20             0        0.894130    2.089680   -0.680030
 ---------------------------------------------------------------------
                    Distance matrix (angstroms):
                    1          2          3          4          5
     1  O    0.000000
     2  O    2.562962   0.000000
     3  O    1.499850   3.235638   0.000000
     4  O    2.444739   2.502356   3.870938   0.000000
     5  P    1.815738   1.647870   2.802695   1.639510   0.000000
     6  Ca   2.448391   2.316525   2.243804   3.985096   3.123616
     7  Ca   3.784349   2.356265   4.965322   2.347806   3.051716
     8  Ca   2.324641   3.940029   3.648699   2.335768   3.199981
                    6          7          8
     6  Ca   0.000000
     7  Ca   3.875412   0.000000
     8  Ca   4.124840   3.691277   0.000000
 Stoichiometry    Ca3O4P(1+)
 Framework group  C1[X(Ca3O4P)]
 Deg. of freedom    18
 Full point group                 C1
 Largest Abelian subgroup         C1      NOp   1
 Largest concise Abelian subgroup C1      NOp   1
                         Standard orientation:                         
 ---------------------------------------------------------------------
 Center     Atomic     Atomic              Coordinates (Angstroms)
 Number     Number      Type              X           Y           Z
 ---------------------------------------------------------------------
    1          8             0       -0.889750    0.988442    0.324461
    2          8             0       -0.210902   -1.466918    0.605791
    3          8             0       -2.385570    0.921034    0.411221
    4          8             0        1.425910    0.409641    0.853101
    5         15             0       -0.002151   -0.089178    1.485411
    6         20             0       -1.944021   -0.900097   -0.822949
    7         20             0        1.875628   -1.463580   -0.488909
    8         20             0        0.894131    2.089681   -0.680029
 ---------------------------------------------------------------------
 Rotational constants (GHZ):      1.0020224      0.8342163      0.6166794
 Standard basis: 6-31+G(d,p) (6D, 7F)
 There are   180 symmetry adapted basis functions of A   symmetry.
 Integral buffers will be    131072 words long.
 Raffenetti 2 integral format.
 Two-electron integral symmetry is turned on.
   180 basis functions,   424 primitive gaussians,   180 cartesian basis functions
    53 alpha electrons       53 beta electrons
       nuclear repulsion energy       891.9267948986 Hartrees.
 NAtoms=    8 NActive=    8 NUniq=    8 SFac= 7.50D-01 NAtFMM=   80 NAOKFM=F Big=F
 One-electron integrals computed using PRISM.
 NBasis=   180 RedAO= T  NBF=   180
 NBsUse=   180 1.00D-06 NBFU=   180
 Harris functional with IExCor=  402 diagonalized for initial guess.
 ExpMin= 7.10D-03 ExpMax= 3.53D+04 ExpMxC= 5.30D+03 IAcc=3 IRadAn=         5 AccDes= 0.00D+00
 HarFok:  IExCor= 402 AccDes= 0.00D+00 IRadAn=         5 IDoV=1
 ScaDFX=  1.000000  1.000000  1.000000  1.000000
 Initial guess orbital symmetries:
       Occupied  (A) (A) (A) (A) (A) (A) (A) (A) (A) (A) (A) (A)
                 (A) (A) (A) (A) (A) (A) (A) (A) (A) (A) (A) (A)
                 (A) (A) (A) (A) (A) (A) (A) (A) (A) (A) (A) (A)
                 (A) (A) (A) (A) (A) (A) (A) (A) (A) (A) (A) (A)
                 (A) (A) (A) (A) (A)
       Virtual   (A) (A) (A) (A) (A) (A) (A) (A) (A) (A) (A) (A)
                 (A) (A) (A) (A) (A) (A) (A) (A) (A) (A) (A) (A)
                 (A) (A) (A) (A) (A) (A) (A) (A) (A) (A) (A) (A)
                 (A) (A) (A) (A) (A) (A) (A) (A) (A) (A) (A) (A)
                 (A) (A) (A) (A) (A) (A) (A) (A) (A) (A) (A) (A)
                 (A) (A) (A) (A) (A) (A) (A) (A) (A) (A) (A) (A)
                 (A) (A) (A) (A) (A) (A) (A) (A) (A) (A) (A) (A)
                 (A) (A) (A) (A) (A) (A) (A) (A) (A) (A) (A) (A)
                 (A) (A) (A) (A) (A) (A) (A) (A) (A) (A) (A) (A)
                 (A) (A) (A) (A) (A) (A) (A) (A) (A) (A) (A) (A)
                 (A) (A) (A) (A) (A) (A) (A)
 The electronic state of the initial guess is 1-A.
 Requested convergence on RMS density matrix=1.00D-04 within 128 cycles.
 Requested convergence on MAX density matrix=1.00D-02.
 Requested convergence on             energy=1.00D-02.
 No special actions if energy rises.
 EnCoef did    12 forward-backward iterations
 EnCoef did     7 forward-backward iterations
 EnCoef did     9 forward-backward iterations
 EnCoef did     2 forward-backward iterations
 SCF Done:  E(RB+HF-LYP) =  -2674.86109883     A.U. after   12 cycles
             Convg  =    0.3229D-04             -V/T =  2.0027
             S**2   =   0.0000

 **********************************************************************

            Population analysis using the SCF density.

 **********************************************************************

 Orbital symmetries:
       Occupied  (A) (A) (A) (A) (A) (A) (A) (A) (A) (A) (A) (A)
                 (A) (A) (A) (A) (A) (A) (A) (A) (A) (A) (A) (A)
                 (A) (A) (A) (A) (A) (A) (A) (A) (A) (A) (A) (A)
                 (A) (A) (A) (A) (A) (A) (A) (A) (A) (A) (A) (A)
                 (A) (A) (A) (A) (A)
       Virtual   (A) (A) (A) (A) (A) (A) (A) (A) (A) (A) (A) (A)
                 (A) (A) (A) (A) (A) (A) (A) (A) (A) (A) (A) (A)
                 (A) (A) (A) (A) (A) (A) (A) (A) (A) (A) (A) (A)
                 (A) (A) (A) (A) (A) (A) (A) (A) (A) (A) (A) (A)
                 (A) (A) (A) (A) (A) (A) (A) (A) (A) (A) (A) (A)
                 (A) (A) (A) (A) (A) (A) (A) (A) (A) (A) (A) (A)
                 (A) (A) (A) (A) (A) (A) (A) (A) (A) (A) (A) (A)
                 (A) (A) (A) (A) (A) (A) (A) (A) (A) (A) (A) (A)
                 (A) (A) (A) (A) (A) (A) (A) (A) (A) (A) (A) (A)
                 (A) (A) (A) (A) (A) (A) (A) (A) (A) (A) (A) (A)
                 (A) (A) (A) (A) (A) (A) (A)
 The electronic state is 1-A.
 Alpha  occ. eigenvalues -- -145.54058-145.52990-145.52974 -77.28679 -19.31264
 Alpha  occ. eigenvalues --  -19.25031 -19.24959 -19.24869 -15.60935 -15.59911
 Alpha  occ. eigenvalues --  -15.59845 -12.74145 -12.74109 -12.74052 -12.73119
 Alpha  occ. eigenvalues --  -12.73081 -12.73076 -12.73016 -12.73007 -12.72963
 Alpha  occ. eigenvalues --   -6.73840  -4.90267  -4.90135  -4.89551  -1.97970
 Alpha  occ. eigenvalues --   -1.97026  -1.96973  -1.25815  -1.25392  -1.25351
 Alpha  occ. eigenvalues --   -1.24927  -1.24611  -1.24515  -1.24399  -1.24390
 Alpha  occ. eigenvalues --   -1.24132  -1.15561  -1.09451  -1.04731  -0.92310
 Alpha  occ. eigenvalues --   -0.67258  -0.56998  -0.55383  -0.53936  -0.51271
 Alpha  occ. eigenvalues --   -0.48959  -0.45760  -0.44017  -0.41723  -0.37943
 Alpha  occ. eigenvalues --   -0.35431  -0.34907  -0.27145
 Alpha virt. eigenvalues --   -0.21748  -0.20864  -0.16384  -0.14790  -0.13883
 Alpha virt. eigenvalues --   -0.12408  -0.11954  -0.11152  -0.11012  -0.09937
 Alpha virt. eigenvalues --   -0.09244  -0.07925  -0.07403  -0.07029  -0.06546
 Alpha virt. eigenvalues --   -0.05598  -0.05385  -0.05230  -0.05032  -0.04817
 Alpha virt. eigenvalues --   -0.04597  -0.04298  -0.04119  -0.03663  -0.03464
 Alpha virt. eigenvalues --   -0.03379  -0.03302  -0.01305  -0.00001   0.00357
 Alpha virt. eigenvalues --    0.00673   0.01003   0.02616   0.02703   0.03273
 Alpha virt. eigenvalues --    0.03585   0.04229   0.04422   0.04802   0.04956
 Alpha virt. eigenvalues --    0.05163   0.05414   0.05500   0.06137   0.06338
 Alpha virt. eigenvalues --    0.06858   0.07051   0.08277   0.09374   0.10188
 Alpha virt. eigenvalues --    0.11000   0.12058   0.13131   0.14891   0.16951
 Alpha virt. eigenvalues --    0.17784   0.18663   0.19597   0.20238   0.21502
 Alpha virt. eigenvalues --    0.22709   0.24124   0.24527   0.25900   0.27120
 Alpha virt. eigenvalues --    0.30414   0.32285   0.32699   0.33560   0.34574
 Alpha virt. eigenvalues --    0.35652   0.36318   0.37978   0.40473   0.44434
 Alpha virt. eigenvalues --    0.46595   0.51239   0.58952   0.61131   0.62805
 Alpha virt. eigenvalues --    0.73878   0.74854   0.82102   0.84249   0.84786
 Alpha virt. eigenvalues --    0.91681   1.08278   1.12410   1.12577   1.15295
 Alpha virt. eigenvalues --    1.15812   1.18965   1.19513   1.20484   1.22241
 Alpha virt. eigenvalues --    1.22588   1.25283   1.37743   1.48317   1.49546
 Alpha virt. eigenvalues --    1.53956   1.57070   1.59341   1.66645   1.70466
 Alpha virt. eigenvalues --    1.71859   1.74631   1.75692   1.80819   1.81770
 Alpha virt. eigenvalues --    1.83392   1.84841   1.88168   1.88549   1.90501
 Alpha virt. eigenvalues --    1.96631   2.10573   2.21948   2.28783   2.47047
 Alpha virt. eigenvalues --    2.56778   3.08211   3.48113   3.93788   4.06849
 Alpha virt. eigenvalues --    4.10179   4.21274
          Condensed to atoms (all electrons):
              1          2          3          4          5          6
     1  O    8.792602   0.044959  -0.122012   0.124649  -0.093037  -0.069441
     2  O    0.044959   9.161890   0.040386   0.094858  -0.180357  -0.025140
     3  O   -0.122012   0.040386   8.584737   0.028417  -0.065019   0.155269
     4  O    0.124649   0.094858   0.028417   9.086716  -0.149524  -0.020726
     5  P   -0.093037  -0.180357  -0.065019  -0.149524  14.406068  -0.002473
     6  Ca  -0.069441  -0.025140   0.155269  -0.020726  -0.002473  18.477814
     7  Ca  -0.071414  -0.177117  -0.017905  -0.207602   0.097798   0.177163
     8  Ca  -0.048959  -0.037191  -0.037503  -0.109517   0.028771   0.086096
              7          8
     1  O   -0.071414  -0.048959
     2  O   -0.177117  -0.037191
     3  O   -0.017905  -0.037503
     4  O   -0.207602  -0.109517
     5  P    0.097798   0.028771
     6  Ca   0.177163   0.086096
     7  Ca  19.219437   0.312944
     8  Ca   0.312944  18.757989
 Mulliken atomic charges:
              1
     1  O   -0.557347
     2  O   -0.922288
     3  O   -0.566370
     4  O   -0.847273
     5  P    0.957774
     6  Ca   1.221439
     7  Ca   0.666696
     8  Ca   1.047369
 Sum of Mulliken charges=   1.00000
 Atomic charges with hydrogens summed into heavy atoms:
              1
     1  O   -0.557347
     2  O   -0.922288
     3  O   -0.566370
     4  O   -0.847273
     5  P    0.957774
     6  Ca   1.221439
     7  Ca   0.666696
     8  Ca   1.047369
 Sum of Mulliken charges=   1.00000
 Electronic spatial extent (au):  <R**2>=  1862.2682
 Charge=     1.0000 electrons
 Dipole moment (field-independent basis, Debye):
    X=     2.6755    Y=    -2.0493    Z=    -6.7166  Tot=     7.5146
 Quadrupole moment (field-independent basis, Debye-Ang):
   XX=   -56.1078   YY=   -48.0283   ZZ=   -86.9785
   XY=    10.5488   XZ=    10.0946   YZ=    -0.2505
 Traceless Quadrupole moment (field-independent basis, Debye-Ang):
   XX=     7.5971   YY=    15.6766   ZZ=   -23.2737
   XY=    10.5488   XZ=    10.0946   YZ=    -0.2505
 Octapole moment (field-independent basis, Debye-Ang**2):
  XXX=   -20.7298  YYY=    46.1461  ZZZ=    26.4116  XYY=    36.5081
  XXY=   -69.5811  XXZ=   -28.1739  XZZ=   -22.7027  YZZ=     0.4553
  YYZ=   -18.6286  XYZ=   -10.2472
 Hexadecapole moment (field-independent basis, Debye-Ang**3):
 XXXX=  -988.0538 YYYY=  -705.9870 ZZZZ=  -623.1467 XXXY=    47.3873
 XXXZ=    95.6292 YYYX=    44.8816 YYYZ=   -19.6256 ZZZX=    67.5012
 ZZZY=    -4.8343 XXYY=  -244.4640 XXZZ=  -281.2793 YYZZ=  -239.3106
 XXYZ=    17.9587 YYXZ=    10.2500 ZZXY=    11.5519
 N-N= 8.919267948986D+02 E-N=-8.103772204832D+03  KE= 2.667630314972D+03
 Merz-Kollman atomic radii used.
 Read replacement radii for each type of atom:
 Rad(20) =   1.188000000000D+00
 Atom Element Radius
    1     8    1.40
    2     8    1.40
    3     8    1.40
    4     8    1.40
    5    15    1.80
    6    20    1.19
    7    20    1.19
    8    20    1.19

 **********************************************************************

            Electrostatic Properties Using The SCF Density

 **********************************************************************

       Atomic Center    1 is at  -0.889750  0.988442  0.324461
       Atomic Center    2 is at  -0.210902 -1.466918  0.605791
       Atomic Center    3 is at  -2.385570  0.921034  0.411221
       Atomic Center    4 is at   1.425910  0.409641  0.853101
       Atomic Center    5 is at  -0.002151 -0.089178  1.485411
       Atomic Center    6 is at  -1.944021 -0.900097 -0.822949
       Atomic Center    7 is at   1.875628 -1.463580 -0.488909
       Atomic Center    8 is at   0.894131  2.089681 -0.680029
     711 points will be used for fitting atomic charges
 Fitting point charges to eletrostatic potential
 Charges from ESP fit, RMS=   0.03348 RRMS=   0.20017:
 Charge=   1.00000 Dipole=     4.1668    -2.1255   -11.1352 Tot=    12.0778
              1
     1  O   -0.493161
     2  O   -0.581046
     3  O   -0.418023
     4  O   -0.537423
     5  P    0.414675
     6  Ca   1.041767
     7  Ca   0.707821
     8  Ca   0.865389
 -----------------------------------------------------------------

              Electrostatic Properties (Atomic Units)

 -----------------------------------------------------------------
    Center     Electric         -------- Electric Field --------
               Potential          X             Y             Z
 -----------------------------------------------------------------
    1 Atom    -22.153771
    2 Atom    -22.215158
    3 Atom    -22.222678
    4 Atom    -22.214388
    5 Atom    -53.930452
    6 Atom    -80.011383
    7 Atom    -80.012657
    8 Atom    -80.001653
 -----------------------------------------------------------------
 1\1\GINC-N026\SP\RB3LYP\6-31+G(d,p)\Ca3O4P1(1+)\TIMN\12-Jun-2015\0\\# 
 b3lyp/6-31+G(d,p) int=ultrafine pop=(ReadRadii,MK)\\Ca3PO4_92.mol2cc_p
 lusQ.z51510.zip.xyz\\1,1\O,0,-0.88975,0.98844,0.32446\O,0,-0.2109,-1.4
 6692,0.60579\O,0,-2.38557,0.92103,0.41122\O,0,1.42591,0.40964,0.8531\P
 ,0,-0.00215,-0.08918,1.48541\Ca,0,-1.94402,-0.9001,-0.82295\Ca,0,1.875
 63,-1.46358,-0.48891\Ca,0,0.89413,2.08968,-0.68003\\Version=EM64T-G03R
 evE.01\State=1-A\HF=-2674.8610988\RMSD=3.229e-05\Thermal=0.\Dipole=1.0
 526063,-0.8062392,-2.6425058\PG=C01 [X(Ca3O4P1)]\\@


 EDUCATION WITHOUT COMMON SENSE IS A LOAD OF BOOKS ON THE BACK OF AN ASS.
 Job cpu time:  0 days  0 hours  2 minutes 25.0 seconds.
 File lengths (MBytes):  RWF=     32 Int=      0 D2E=      0 Chk=     11 Scr=      1
 Normal termination of Gaussian 03 at Fri Jun 12 17:46:39 2015.
