 Entering Gaussian System, Link 0=/home/timn/tmp/g03.e01/g03
 Input=Ca3PO4_111.mol2_plusQ.z51112.zip.xyz.gjf
 Output=Ca3PO4_111.mol2_plusQ.z51112.zip.xyz.out
 Initial command:
 /home/timn/tmp/g03.e01/l1.exe /home/timn/tmp/g03.e01/Gau-11407.inp -scrdir=/home/timn/tmp/g03.e01/
 Default is to use a total of   2 processors:
                                2 via shared-memory
                                1 via Linda
 Entering Link 1 = /home/timn/tmp/g03.e01/l1.exe PID=     11408.
  
 Copyright (c) 1988,1990,1992,1993,1995,1998,2003,2004,2007, Gaussian, Inc.
                  All Rights Reserved.
  
 This is the Gaussian(R) 03 program.  It is based on the
 the Gaussian(R) 98 system (copyright 1998, Gaussian, Inc.),
 the Gaussian(R) 94 system (copyright 1995, Gaussian, Inc.),
 the Gaussian 92(TM) system (copyright 1992, Gaussian, Inc.),
 the Gaussian 90(TM) system (copyright 1990, Gaussian, Inc.),
 the Gaussian 88(TM) system (copyright 1988, Gaussian, Inc.),
 the Gaussian 86(TM) system (copyright 1986, Carnegie Mellon
 University), and the Gaussian 82(TM) system (copyright 1983,
 Carnegie Mellon University). Gaussian is a federally registered
 trademark of Gaussian, Inc.
  
 This software contains proprietary and confidential information,
 including trade secrets, belonging to Gaussian, Inc.
  
 This software is provided under written license and may be
 used, copied, transmitted, or stored only in accord with that
 written license.
  
 The following legend is applicable only to US Government
 contracts under FAR:
  
                    RESTRICTED RIGHTS LEGEND
  
 Use, reproduction and disclosure by the US Government is
 subject to restrictions as set forth in subparagraphs (a)
 and (c) of the Commercial Computer Software - Restricted
 Rights clause in FAR 52.227-19.
  
 Gaussian, Inc.
 340 Quinnipiac St., Bldg. 40, Wallingford CT 06492
  
  
 ---------------------------------------------------------------
 Warning -- This program may not be used in any manner that
 competes with the business of Gaussian, Inc. or will provide
 assistance to any competitor of Gaussian, Inc.  The licensee
 of this program is prohibited from giving any competitor of
 Gaussian, Inc. access to this program.  By using this program,
 the user acknowledges that Gaussian, Inc. is engaged in the
 business of creating and licensing software in the field of
 computational chemistry and represents and warrants to the
 licensee that it is not a competitor of Gaussian, Inc. and that
 it will not use this program in any manner prohibited above.
 ---------------------------------------------------------------
  

 Cite this work as:
 Gaussian 03, Revision E.01,
 M. J. Frisch, G. W. Trucks, H. B. Schlegel, G. E. Scuseria, 
 M. A. Robb, J. R. Cheeseman, J. A. Montgomery, Jr., T. Vreven, 
 K. N. Kudin, J. C. Burant, J. M. Millam, S. S. Iyengar, J. Tomasi, 
 V. Barone, B. Mennucci, M. Cossi, G. Scalmani, N. Rega, 
 G. A. Petersson, H. Nakatsuji, M. Hada, M. Ehara, K. Toyota, 
 R. Fukuda, J. Hasegawa, M. Ishida, T. Nakajima, Y. Honda, O. Kitao, 
 H. Nakai, M. Klene, X. Li, J. E. Knox, H. P. Hratchian, J. B. Cross, 
 V. Bakken, C. Adamo, J. Jaramillo, R. Gomperts, R. E. Stratmann, 
 O. Yazyev, A. J. Austin, R. Cammi, C. Pomelli, J. W. Ochterski, 
 P. Y. Ayala, K. Morokuma, G. A. Voth, P. Salvador, J. J. Dannenberg, 
 V. G. Zakrzewski, S. Dapprich, A. D. Daniels, M. C. Strain, 
 O. Farkas, D. K. Malick, A. D. Rabuck, K. Raghavachari, 
 J. B. Foresman, J. V. Ortiz, Q. Cui, A. G. Baboul, S. Clifford, 
 J. Cioslowski, B. B. Stefanov, G. Liu, A. Liashenko, P. Piskorz, 
 I. Komaromi, R. L. Martin, D. J. Fox, T. Keith, M. A. Al-Laham, 
 C. Y. Peng, A. Nanayakkara, M. Challacombe, P. M. W. Gill, 
 B. Johnson, W. Chen, M. W. Wong, C. Gonzalez, and J. A. Pople, 
 Gaussian, Inc., Wallingford CT, 2004.
 
 ******************************************
 Gaussian 03:  EM64T-G03RevE.01 11-Sep-2007
                12-Jun-2015 
 ******************************************
 %nproc=2
 Will use up to    2 processors via shared memory.
 Default route:  MP2=Direct MaxDisk=2000MB
 ----------------------------------------------------
 # b3lyp/6-31+G(d,p) int=ultrafine pop=(ReadRadii,MK)
 ----------------------------------------------------

 Warning!  SCF SP cutoffs with diffuse functions may be unreliable.
 Consider SCF=Tight

 1/38=1/1;
 2/17=6,18=5,40=1/2;
 3/5=1,6=6,7=111,11=2,16=1,25=1,30=1,74=-5,75=5/1,2,3;
 4//1;
 5/5=2,32=1,38=5/2;
 6/7=2,8=2,9=2,10=2,15=8,20=101,28=1/1,2;
 99/5=1,9=1/99;
 ------------------------------------
 Ca3PO4_111.mol2_plusQ.z51112.zip.xyz
 ------------------------------------
 Symbolic Z-matrix:
 Charge =  1 Multiplicity = 1
 O                    -0.5145    1.25912  -0.36873 
 O                    -1.56241   0.00069   1.54102 
 O                     1.1593   -0.00008   1.08027 
 O                    -0.51486  -1.25998  -0.3677 
 P                    -0.34149  -0.00024   0.6184 
 Ca                    1.74801   1.87899  -0.3147 
 Ca                    1.74919  -1.8783   -0.31476 
 Ca                   -2.66809  -0.0004   -0.58828 
 
                          Input orientation:                          
 ---------------------------------------------------------------------
 Center     Atomic     Atomic              Coordinates (Angstroms)
 Number     Number      Type              X           Y           Z
 ---------------------------------------------------------------------
    1          8             0       -0.514500    1.259120   -0.368730
    2          8             0       -1.562410    0.000690    1.541020
    3          8             0        1.159300   -0.000080    1.080270
    4          8             0       -0.514860   -1.259980   -0.367700
    5         15             0       -0.341490   -0.000240    0.618400
    6         20             0        1.748010    1.878990   -0.314700
    7         20             0        1.749190   -1.878300   -0.314760
    8         20             0       -2.668090   -0.000400   -0.588280
 ---------------------------------------------------------------------
                    Distance matrix (angstroms):
                    1          2          3          4          5
     1  O    0.000000
     2  O    2.515732   0.000000
     3  O    2.546918   2.760434   0.000000
     4  O    2.519100   2.515922   2.546915   0.000000
     5  P    1.609455   1.530318   1.570253   1.609160   0.000000
     6  Ca   2.346510   4.234453   2.413177   3.869951   2.961113
     7  Ca   3.869187   4.235707   2.412838   2.347561   2.961223
     8  Ca   2.504504   2.399260   4.175281   2.504316   2.620905
                    6          7          8
     6  Ca   0.000000
     7  Ca   3.757290   0.000000
     8  Ca   4.807171   4.807669   0.000000
 Stoichiometry    Ca3O4P(1+)
 Framework group  C1[X(Ca3O4P)]
 Deg. of freedom    18
 Full point group                 C1
 Largest Abelian subgroup         C1      NOp   1
 Largest concise Abelian subgroup C1      NOp   1
                         Standard orientation:                         
 ---------------------------------------------------------------------
 Center     Atomic     Atomic              Coordinates (Angstroms)
 Number     Number      Type              X           Y           Z
 ---------------------------------------------------------------------
    1          8             0       -0.514499    1.259119   -0.368731
    2          8             0       -1.562411    0.000690    1.541019
    3          8             0        1.159299   -0.000083    1.080269
    4          8             0       -0.514862   -1.259981   -0.367701
    5         15             0       -0.341491   -0.000241    0.618399
    6         20             0        1.748012    1.878986   -0.314701
    7         20             0        1.749187   -1.878304   -0.314761
    8         20             0       -2.668091   -0.000398   -0.588281
 ---------------------------------------------------------------------
 Rotational constants (GHZ):      1.1824273      0.7260505      0.5409054
 Standard basis: 6-31+G(d,p) (6D, 7F)
 There are   180 symmetry adapted basis functions of A   symmetry.
 Integral buffers will be    131072 words long.
 Raffenetti 2 integral format.
 Two-electron integral symmetry is turned on.
   180 basis functions,   424 primitive gaussians,   180 cartesian basis functions
    53 alpha electrons       53 beta electrons
       nuclear repulsion energy       901.5302079092 Hartrees.
 NAtoms=    8 NActive=    8 NUniq=    8 SFac= 7.50D-01 NAtFMM=   80 NAOKFM=F Big=F
 One-electron integrals computed using PRISM.
 NBasis=   180 RedAO= T  NBF=   180
 NBsUse=   180 1.00D-06 NBFU=   180
 Harris functional with IExCor=  402 diagonalized for initial guess.
 ExpMin= 7.10D-03 ExpMax= 3.53D+04 ExpMxC= 5.30D+03 IAcc=3 IRadAn=         5 AccDes= 0.00D+00
 HarFok:  IExCor= 402 AccDes= 0.00D+00 IRadAn=         5 IDoV=1
 ScaDFX=  1.000000  1.000000  1.000000  1.000000
 Initial guess orbital symmetries:
       Occupied  (A) (A) (A) (A) (A) (A) (A) (A) (A) (A) (A) (A)
                 (A) (A) (A) (A) (A) (A) (A) (A) (A) (A) (A) (A)
                 (A) (A) (A) (A) (A) (A) (A) (A) (A) (A) (A) (A)
                 (A) (A) (A) (A) (A) (A) (A) (A) (A) (A) (A) (A)
                 (A) (A) (A) (A) (A)
       Virtual   (A) (A) (A) (A) (A) (A) (A) (A) (A) (A) (A) (A)
                 (A) (A) (A) (A) (A) (A) (A) (A) (A) (A) (A) (A)
                 (A) (A) (A) (A) (A) (A) (A) (A) (A) (A) (A) (A)
                 (A) (A) (A) (A) (A) (A) (A) (A) (A) (A) (A) (A)
                 (A) (A) (A) (A) (A) (A) (A) (A) (A) (A) (A) (A)
                 (A) (A) (A) (A) (A) (A) (A) (A) (A) (A) (A) (A)
                 (A) (A) (A) (A) (A) (A) (A) (A) (A) (A) (A) (A)
                 (A) (A) (A) (A) (A) (A) (A) (A) (A) (A) (A) (A)
                 (A) (A) (A) (A) (A) (A) (A) (A) (A) (A) (A) (A)
                 (A) (A) (A) (A) (A) (A) (A) (A) (A) (A) (A) (A)
                 (A) (A) (A) (A) (A) (A) (A)
 The electronic state of the initial guess is 1-A.
 Requested convergence on RMS density matrix=1.00D-04 within 128 cycles.
 Requested convergence on MAX density matrix=1.00D-02.
 Requested convergence on             energy=1.00D-02.
 No special actions if energy rises.
 SCF Done:  E(RB+HF-LYP) =  -2675.01472160     A.U. after   10 cycles
             Convg  =    0.3383D-04             -V/T =  2.0027
             S**2   =   0.0000

 **********************************************************************

            Population analysis using the SCF density.

 **********************************************************************

 Orbital symmetries:
       Occupied  (A) (A) (A) (A) (A) (A) (A) (A) (A) (A) (A) (A)
                 (A) (A) (A) (A) (A) (A) (A) (A) (A) (A) (A) (A)
                 (A) (A) (A) (A) (A) (A) (A) (A) (A) (A) (A) (A)
                 (A) (A) (A) (A) (A) (A) (A) (A) (A) (A) (A) (A)
                 (A) (A) (A) (A) (A)
       Virtual   (A) (A) (A) (A) (A) (A) (A) (A) (A) (A) (A) (A)
                 (A) (A) (A) (A) (A) (A) (A) (A) (A) (A) (A) (A)
                 (A) (A) (A) (A) (A) (A) (A) (A) (A) (A) (A) (A)
                 (A) (A) (A) (A) (A) (A) (A) (A) (A) (A) (A) (A)
                 (A) (A) (A) (A) (A) (A) (A) (A) (A) (A) (A) (A)
                 (A) (A) (A) (A) (A) (A) (A) (A) (A) (A) (A) (A)
                 (A) (A) (A) (A) (A) (A) (A) (A) (A) (A) (A) (A)
                 (A) (A) (A) (A) (A) (A) (A) (A) (A) (A) (A) (A)
                 (A) (A) (A) (A) (A) (A) (A) (A) (A) (A) (A) (A)
                 (A) (A) (A) (A) (A) (A) (A) (A) (A) (A) (A) (A)
                 (A) (A) (A) (A) (A) (A) (A)
 The electronic state is 1-A.
 Alpha  occ. eigenvalues -- -145.56110-145.52121-145.52120 -77.32376 -19.25577
 Alpha  occ. eigenvalues --  -19.23663 -19.23661 -19.21970 -15.62816 -15.59015
 Alpha  occ. eigenvalues --  -15.59014 -12.76018 -12.76014 -12.75987 -12.72227
 Alpha  occ. eigenvalues --  -12.72225 -12.72182 -12.72180 -12.72129 -12.72129
 Alpha  occ. eigenvalues --   -6.76989  -4.93388  -4.93333  -4.93225  -1.99594
 Alpha  occ. eigenvalues --   -1.96054  -1.96038  -1.27399  -1.26837  -1.26800
 Alpha  occ. eigenvalues --   -1.24005  -1.23529  -1.23500  -1.23363  -1.23335
 Alpha  occ. eigenvalues --   -1.23262  -1.14372  -1.06806  -1.04373  -1.04067
 Alpha  occ. eigenvalues --   -0.63886  -0.56016  -0.54691  -0.53568  -0.48206
 Alpha  occ. eigenvalues --   -0.47161  -0.45080  -0.43977  -0.43209  -0.40900
 Alpha  occ. eigenvalues --   -0.39794  -0.37074  -0.25494
 Alpha virt. eigenvalues --   -0.22274  -0.19989  -0.14503  -0.13477  -0.12911
 Alpha virt. eigenvalues --   -0.12375  -0.11236  -0.11128  -0.10052  -0.08867
 Alpha virt. eigenvalues --   -0.07459  -0.07053  -0.06013  -0.05445  -0.05243
 Alpha virt. eigenvalues --   -0.04988  -0.04746  -0.04507  -0.04256  -0.04241
 Alpha virt. eigenvalues --   -0.03635  -0.03500  -0.03095  -0.02942  -0.02100
 Alpha virt. eigenvalues --   -0.01331  -0.00583   0.00143   0.00503   0.00548
 Alpha virt. eigenvalues --    0.01556   0.02440   0.02597   0.03193   0.03698
 Alpha virt. eigenvalues --    0.03995   0.04026   0.04507   0.05593   0.06097
 Alpha virt. eigenvalues --    0.06145   0.06625   0.06692   0.06733   0.07751
 Alpha virt. eigenvalues --    0.07968   0.08107   0.08840   0.10472   0.11044
 Alpha virt. eigenvalues --    0.11462   0.12655   0.13860   0.14419   0.18078
 Alpha virt. eigenvalues --    0.18083   0.19690   0.19955   0.20577   0.22593
 Alpha virt. eigenvalues --    0.23024   0.23672   0.23922   0.26625   0.27058
 Alpha virt. eigenvalues --    0.27553   0.30361   0.30496   0.32314   0.35527
 Alpha virt. eigenvalues --    0.36776   0.40625   0.44112   0.44289   0.46823
 Alpha virt. eigenvalues --    0.52081   0.53232   0.58400   0.61107   0.68804
 Alpha virt. eigenvalues --    0.76678   0.76793   0.86939   0.93018   0.96950
 Alpha virt. eigenvalues --    1.00749   1.10881   1.14170   1.14333   1.17408
 Alpha virt. eigenvalues --    1.18966   1.21425   1.21927   1.22758   1.24554
 Alpha virt. eigenvalues --    1.26143   1.27624   1.28760   1.45575   1.51026
 Alpha virt. eigenvalues --    1.51425   1.67754   1.69306   1.69676   1.69834
 Alpha virt. eigenvalues --    1.73181   1.75235   1.75858   1.76615   1.80377
 Alpha virt. eigenvalues --    1.82113   1.85726   1.89742   1.95148   2.04224
 Alpha virt. eigenvalues --    2.08688   2.16847   2.16993   2.52109   2.66198
 Alpha virt. eigenvalues --    2.71121   2.79129   3.46804   4.02084   4.04124
 Alpha virt. eigenvalues --    4.05168   4.28061
          Condensed to atoms (all electrons):
              1          2          3          4          5          6
     1  O    9.098584   0.001487  -0.047561   0.106387  -0.180492  -0.054644
     2  O    0.001487   9.021555  -0.040777   0.001481  -0.246843  -0.035305
     3  O   -0.047561  -0.040777   9.214576  -0.047638  -0.093284  -0.093265
     4  O    0.106387   0.001481  -0.047638   9.098795  -0.180912  -0.055707
     5  P   -0.180492  -0.246843  -0.093284  -0.180912  13.711860   0.263898
     6  Ca  -0.054644  -0.035305  -0.093265  -0.055707   0.263898  18.869790
     7  Ca  -0.055758  -0.035274  -0.093288  -0.054704   0.263947   0.214968
     8  Ca   0.061268   0.075097   0.021384   0.061273   0.092576   0.003796
              7          8
     1  O   -0.055758   0.061268
     2  O   -0.035274   0.075097
     3  O   -0.093288   0.021384
     4  O   -0.054704   0.061273
     5  P    0.263947   0.092576
     6  Ca   0.214968   0.003796
     7  Ca  18.869977   0.003815
     8  Ca   0.003815  18.403018
 Mulliken atomic charges:
              1
     1  O   -0.929270
     2  O   -0.741421
     3  O   -0.820147
     4  O   -0.928973
     5  P    1.369250
     6  Ca   0.886469
     7  Ca   0.886319
     8  Ca   1.277773
 Sum of Mulliken charges=   1.00000
 Atomic charges with hydrogens summed into heavy atoms:
              1
     1  O   -0.929270
     2  O   -0.741421
     3  O   -0.820147
     4  O   -0.928973
     5  P    1.369250
     6  Ca   0.886469
     7  Ca   0.886319
     8  Ca   1.277773
 Sum of Mulliken charges=   1.00000
 Electronic spatial extent (au):  <R**2>=  1968.7589
 Charge=     1.0000 electrons
 Dipole moment (field-independent basis, Debye):
    X=    -1.9886    Y=    -0.0017    Z=    -5.7334  Tot=     6.0685
 Quadrupole moment (field-independent basis, Debye-Ang):
   XX=   -34.4551   YY=   -52.8869   ZZ=   -88.8552
   XY=    -0.0010   XZ=    13.1196   YZ=     0.0015
 Traceless Quadrupole moment (field-independent basis, Debye-Ang):
   XX=    24.2773   YY=     5.8455   ZZ=   -30.1228
   XY=    -0.0010   XZ=    13.1196   YZ=     0.0015
 Octapole moment (field-independent basis, Debye-Ang**2):
  XXX=  -150.0626  YYY=     0.0394  ZZZ=    -2.2917  XYY=    51.0321
  XXY=    -0.0617  XXZ=   -28.9144  XZZ=   -16.3924  YZZ=    -0.0106
  YYZ=     0.8103  XYZ=     0.0034
 Hexadecapole moment (field-independent basis, Debye-Ang**3):
 XXXX= -1216.5544 YYYY=  -722.1246 ZZZZ=  -408.4334 XXXY=    -0.0478
 XXXZ=   138.3978 YYYX=    -0.0130 YYYZ=    -0.0003 ZZZX=    63.6205
 ZZZY=    -0.0048 XXYY=  -301.8837 XXZZ=  -334.7260 YYZZ=  -205.6444
 XXYZ=     0.0112 YYXZ=     5.3165 ZZXY=     0.0102
 N-N= 9.015302079092D+02 E-N=-8.123045954365D+03  KE= 2.667685152558D+03
 Merz-Kollman atomic radii used.
 Read replacement radii for each type of atom:
 Rad(20) =   1.188000000000D+00
 Atom Element Radius
    1     8    1.40
    2     8    1.40
    3     8    1.40
    4     8    1.40
    5    15    1.80
    6    20    1.19
    7    20    1.19
    8    20    1.19

 **********************************************************************

            Electrostatic Properties Using The SCF Density

 **********************************************************************

       Atomic Center    1 is at  -0.514499  1.259119 -0.368731
       Atomic Center    2 is at  -1.562411  0.000690  1.541019
       Atomic Center    3 is at   1.159299 -0.000083  1.080269
       Atomic Center    4 is at  -0.514862 -1.259981 -0.367701
       Atomic Center    5 is at  -0.341491 -0.000241  0.618399
       Atomic Center    6 is at   1.748012  1.878986 -0.314701
       Atomic Center    7 is at   1.749187 -1.878304 -0.314761
       Atomic Center    8 is at  -2.668091 -0.000398 -0.588281
     681 points will be used for fitting atomic charges
 Fitting point charges to eletrostatic potential
 Charges from ESP fit, RMS=   0.02830 RRMS=   0.16857:
 Charge=   1.00000 Dipole=     0.9898    -0.0353    -8.5719 Tot=     8.6289
              1
     1  O   -1.161184
     2  O   -1.040474
     3  O   -1.035618
     4  O   -1.158154
     5  P    2.308933
     6  Ca   0.860698
     7  Ca   0.862501
     8  Ca   1.363298
 -----------------------------------------------------------------

              Electrostatic Properties (Atomic Units)

 -----------------------------------------------------------------
    Center     Electric         -------- Electric Field --------
               Potential          X             Y             Z
 -----------------------------------------------------------------
    1 Atom    -22.228067
    2 Atom    -22.246803
    3 Atom    -22.209564
    4 Atom    -22.227952
    5 Atom    -53.882166
    6 Atom    -80.021082
    7 Atom    -80.021005
    8 Atom    -79.980610
 -----------------------------------------------------------------
 1\1\GINC-N033\SP\RB3LYP\6-31+G(d,p)\Ca3O4P1(1+)\TIMN\12-Jun-2015\0\\# 
 b3lyp/6-31+G(d,p) int=ultrafine pop=(ReadRadii,MK)\\Ca3PO4_111.mol2_pl
 usQ.z51112.zip.xyz\\1,1\O,0,-0.5145,1.25912,-0.36873\O,0,-1.56241,0.00
 069,1.54102\O,0,1.1593,-0.00008,1.08027\O,0,-0.51486,-1.25998,-0.3677\
 P,0,-0.34149,-0.00024,0.6184\Ca,0,1.74801,1.87899,-0.3147\Ca,0,1.74919
 ,-1.8783,-0.31476\Ca,0,-2.66809,-0.0004,-0.58828\\Version=EM64T-G03Rev
 E.01\State=1-A\HF=-2675.0147216\RMSD=3.383e-05\Thermal=0.\Dipole=-0.78
 23736,-0.000678,-2.2556916\PG=C01 [X(Ca3O4P1)]\\@


 TERENCE, THIS IS STUPID STUFF:
 YOU EAT YOUR VICTUALS FAST ENOUGH;
 THERE CAN'T BE MUCH AMISS, 'TIS CLEAR
 TO SEE THE RATE YOU DRINK YOUR BEER.
 BUT OH, GOOD LORD, THE VERSE YOU MAKE,
 IT GIVES A CHAP THE BELLY-ACHE.
 THE COW, THE OLD COW, SHE IS DEAD;
 IT SLEEPS WELL, THE HORNED HEAD:
 WE POOR LADS, 'TIS OUR TURN NOW
 TO HEAR SUCH TUNES AS KILLED THE COW.
 PRETTY FRIENDSHIP 'TIS TO RHYME
 YOUR FRIENDS TO DEATH BEFORE THEIR TIME.
 MOPING, MELANCHOLY MAD:
 COME PIPE A TUNE TO DANCE TO, LAD.

     -- A. E. HOUSMAN
 Job cpu time:  0 days  0 hours  2 minutes  2.7 seconds.
 File lengths (MBytes):  RWF=     32 Int=      0 D2E=      0 Chk=     11 Scr=      1
 Normal termination of Gaussian 03 at Fri Jun 12 17:36:25 2015.
