 Entering Gaussian System, Link 0=/home/timn/tmp/g03.e01/g03
 Input=Ca3PO4_81.mol2_plusQ.z51498.zip.xyz.gjf
 Output=Ca3PO4_81.mol2_plusQ.z51498.zip.xyz.out
 Initial command:
 /home/timn/tmp/g03.e01/l1.exe /home/timn/tmp/g03.e01/Gau-12259.inp -scrdir=/home/timn/tmp/g03.e01/
 Default is to use a total of   2 processors:
                                2 via shared-memory
                                1 via Linda
 Entering Link 1 = /home/timn/tmp/g03.e01/l1.exe PID=     12260.
  
 Copyright (c) 1988,1990,1992,1993,1995,1998,2003,2004,2007, Gaussian, Inc.
                  All Rights Reserved.
  
 This is the Gaussian(R) 03 program.  It is based on the
 the Gaussian(R) 98 system (copyright 1998, Gaussian, Inc.),
 the Gaussian(R) 94 system (copyright 1995, Gaussian, Inc.),
 the Gaussian 92(TM) system (copyright 1992, Gaussian, Inc.),
 the Gaussian 90(TM) system (copyright 1990, Gaussian, Inc.),
 the Gaussian 88(TM) system (copyright 1988, Gaussian, Inc.),
 the Gaussian 86(TM) system (copyright 1986, Carnegie Mellon
 University), and the Gaussian 82(TM) system (copyright 1983,
 Carnegie Mellon University). Gaussian is a federally registered
 trademark of Gaussian, Inc.
  
 This software contains proprietary and confidential information,
 including trade secrets, belonging to Gaussian, Inc.
  
 This software is provided under written license and may be
 used, copied, transmitted, or stored only in accord with that
 written license.
  
 The following legend is applicable only to US Government
 contracts under FAR:
  
                    RESTRICTED RIGHTS LEGEND
  
 Use, reproduction and disclosure by the US Government is
 subject to restrictions as set forth in subparagraphs (a)
 and (c) of the Commercial Computer Software - Restricted
 Rights clause in FAR 52.227-19.
  
 Gaussian, Inc.
 340 Quinnipiac St., Bldg. 40, Wallingford CT 06492
  
  
 ---------------------------------------------------------------
 Warning -- This program may not be used in any manner that
 competes with the business of Gaussian, Inc. or will provide
 assistance to any competitor of Gaussian, Inc.  The licensee
 of this program is prohibited from giving any competitor of
 Gaussian, Inc. access to this program.  By using this program,
 the user acknowledges that Gaussian, Inc. is engaged in the
 business of creating and licensing software in the field of
 computational chemistry and represents and warrants to the
 licensee that it is not a competitor of Gaussian, Inc. and that
 it will not use this program in any manner prohibited above.
 ---------------------------------------------------------------
  

 Cite this work as:
 Gaussian 03, Revision E.01,
 M. J. Frisch, G. W. Trucks, H. B. Schlegel, G. E. Scuseria, 
 M. A. Robb, J. R. Cheeseman, J. A. Montgomery, Jr., T. Vreven, 
 K. N. Kudin, J. C. Burant, J. M. Millam, S. S. Iyengar, J. Tomasi, 
 V. Barone, B. Mennucci, M. Cossi, G. Scalmani, N. Rega, 
 G. A. Petersson, H. Nakatsuji, M. Hada, M. Ehara, K. Toyota, 
 R. Fukuda, J. Hasegawa, M. Ishida, T. Nakajima, Y. Honda, O. Kitao, 
 H. Nakai, M. Klene, X. Li, J. E. Knox, H. P. Hratchian, J. B. Cross, 
 V. Bakken, C. Adamo, J. Jaramillo, R. Gomperts, R. E. Stratmann, 
 O. Yazyev, A. J. Austin, R. Cammi, C. Pomelli, J. W. Ochterski, 
 P. Y. Ayala, K. Morokuma, G. A. Voth, P. Salvador, J. J. Dannenberg, 
 V. G. Zakrzewski, S. Dapprich, A. D. Daniels, M. C. Strain, 
 O. Farkas, D. K. Malick, A. D. Rabuck, K. Raghavachari, 
 J. B. Foresman, J. V. Ortiz, Q. Cui, A. G. Baboul, S. Clifford, 
 J. Cioslowski, B. B. Stefanov, G. Liu, A. Liashenko, P. Piskorz, 
 I. Komaromi, R. L. Martin, D. J. Fox, T. Keith, M. A. Al-Laham, 
 C. Y. Peng, A. Nanayakkara, M. Challacombe, P. M. W. Gill, 
 B. Johnson, W. Chen, M. W. Wong, C. Gonzalez, and J. A. Pople, 
 Gaussian, Inc., Wallingford CT, 2004.
 
 ******************************************
 Gaussian 03:  EM64T-G03RevE.01 11-Sep-2007
                12-Jun-2015 
 ******************************************
 %nproc=2
 Will use up to    2 processors via shared memory.
 Default route:  MP2=Direct MaxDisk=2000MB
 ----------------------------------------------------
 # b3lyp/6-31+G(d,p) int=ultrafine pop=(ReadRadii,MK)
 ----------------------------------------------------

 Warning!  SCF SP cutoffs with diffuse functions may be unreliable.
 Consider SCF=Tight

 1/38=1/1;
 2/17=6,18=5,40=1/2;
 3/5=1,6=6,7=111,11=2,16=1,25=1,30=1,74=-5,75=5/1,2,3;
 4//1;
 5/5=2,32=1,38=5/2;
 6/7=2,8=2,9=2,10=2,15=8,20=101,28=1/1,2;
 99/5=1,9=1/99;
 -----------------------------------
 Ca3PO4_81.mol2_plusQ.z51498.zip.xyz
 -----------------------------------
 Symbolic Z-matrix:
 Charge =  1 Multiplicity = 1
 O                     2.9476    0.67061  -0.00026 
 O                     1.66837  -1.50283  -0.00038 
 O                    -2.84009  -1.41525  -0.0005 
 O                    -0.83082   0.94463   0.00046 
 P                     3.07362  -0.87699  -0.00036 
 Ca                    1.07439   1.94663   0.00022 
 Ca                   -0.67238  -1.4589    0.0007 
 Ca                   -3.08525   0.69114  -0.00038 
 
                          Input orientation:                          
 ---------------------------------------------------------------------
 Center     Atomic     Atomic              Coordinates (Angstroms)
 Number     Number      Type              X           Y           Z
 ---------------------------------------------------------------------
    1          8             0        2.947600    0.670610   -0.000260
    2          8             0        1.668370   -1.502830   -0.000380
    3          8             0       -2.840090   -1.415250   -0.000500
    4          8             0       -0.830820    0.944630    0.000460
    5         15             0        3.073620   -0.876990   -0.000360
    6         20             0        1.074390    1.946630    0.000220
    7         20             0       -0.672380   -1.458900    0.000700
    8         20             0       -3.085250    0.691140   -0.000380
 ---------------------------------------------------------------------
                    Distance matrix (angstroms):
                    1          2          3          4          5
     1  O    0.000000
     2  O    2.521958   0.000000
     3  O    6.152086   4.509311   0.000000
     4  O    3.788343   3.498001   3.099387   0.000000
     5  P    1.552722   1.538312   5.938155   4.308474   0.000000
     6  Ca   2.266527   3.500227   5.159980   2.152633   3.459733
     7  Ca   4.199889   2.341162   2.168150   2.408747   3.790928
     8  Ca   6.032885   5.235495   2.120609   2.268637   6.355369
                    6          7          8
     6  Ca   0.000000
     7  Ca   3.827380   0.000000
     8  Ca   4.344981   3.231813   0.000000
 Stoichiometry    Ca3O4P(1+)
 Framework group  C1[X(Ca3O4P)]
 Deg. of freedom    18
 Full point group                 C1
 Largest Abelian subgroup         C1      NOp   1
 Largest concise Abelian subgroup C1      NOp   1
                         Standard orientation:                         
 ---------------------------------------------------------------------
 Center     Atomic     Atomic              Coordinates (Angstroms)
 Number     Number      Type              X           Y           Z
 ---------------------------------------------------------------------
    1          8             0       -2.947600    0.670612    0.000260
    2          8             0       -1.668370   -1.502828    0.000380
    3          8             0        2.840090   -1.415249    0.000500
    4          8             0        0.830820    0.944631   -0.000460
    5         15             0       -3.073620   -0.876988    0.000360
    6         20             0       -1.074390    1.946632   -0.000220
    7         20             0        0.672380   -1.458898   -0.000700
    8         20             0        3.085250    0.691141    0.000380
 ---------------------------------------------------------------------
 Rotational constants (GHZ):      1.3695407      0.4764498      0.3534782
 Standard basis: 6-31+G(d,p) (6D, 7F)
 There are   180 symmetry adapted basis functions of A   symmetry.
 Integral buffers will be    131072 words long.
 Raffenetti 2 integral format.
 Two-electron integral symmetry is turned on.
   180 basis functions,   424 primitive gaussians,   180 cartesian basis functions
    53 alpha electrons       53 beta electrons
       nuclear repulsion energy       801.1282599543 Hartrees.
 NAtoms=    8 NActive=    8 NUniq=    8 SFac= 7.50D-01 NAtFMM=   80 NAOKFM=F Big=F
 One-electron integrals computed using PRISM.
 NBasis=   180 RedAO= T  NBF=   180
 NBsUse=   180 1.00D-06 NBFU=   180
 Harris functional with IExCor=  402 diagonalized for initial guess.
 ExpMin= 7.10D-03 ExpMax= 3.53D+04 ExpMxC= 5.30D+03 IAcc=3 IRadAn=         5 AccDes= 0.00D+00
 HarFok:  IExCor= 402 AccDes= 0.00D+00 IRadAn=         5 IDoV=1
 ScaDFX=  1.000000  1.000000  1.000000  1.000000
 Initial guess orbital symmetries:
       Occupied  (A) (A) (A) (A) (A) (A) (A) (A) (A) (A) (A) (A)
                 (A) (A) (A) (A) (A) (A) (A) (A) (A) (A) (A) (A)
                 (A) (A) (A) (A) (A) (A) (A) (A) (A) (A) (A) (A)
                 (A) (A) (A) (A) (A) (A) (A) (A) (A) (A) (A) (A)
                 (A) (A) (A) (A) (A)
       Virtual   (A) (A) (A) (A) (A) (A) (A) (A) (A) (A) (A) (A)
                 (A) (A) (A) (A) (A) (A) (A) (A) (A) (A) (A) (A)
                 (A) (A) (A) (A) (A) (A) (A) (A) (A) (A) (A) (A)
                 (A) (A) (A) (A) (A) (A) (A) (A) (A) (A) (A) (A)
                 (A) (A) (A) (A) (A) (A) (A) (A) (A) (A) (A) (A)
                 (A) (A) (A) (A) (A) (A) (A) (A) (A) (A) (A) (A)
                 (A) (A) (A) (A) (A) (A) (A) (A) (A) (A) (A) (A)
                 (A) (A) (A) (A) (A) (A) (A) (A) (A) (A) (A) (A)
                 (A) (A) (A) (A) (A) (A) (A) (A) (A) (A) (A) (A)
                 (A) (A) (A) (A) (A) (A) (A) (A) (A) (A) (A) (A)
                 (A) (A) (A) (A) (A) (A) (A)
 The electronic state of the initial guess is 1-A.
 Requested convergence on RMS density matrix=1.00D-04 within 128 cycles.
 Requested convergence on MAX density matrix=1.00D-02.
 Requested convergence on             energy=1.00D-02.
 No special actions if energy rises.
 EnCoef did     3 forward-backward iterations
 EnCoef did   100 forward-backward iterations
 EnCoef did     4 forward-backward iterations
 EnCoef did     3 forward-backward iterations
 SCF Done:  E(RB+HF-LYP) =  -2675.00579486     A.U. after   10 cycles
             Convg  =    0.8272D-04             -V/T =  2.0028
             S**2   =   0.0000

 **********************************************************************

            Population analysis using the SCF density.

 **********************************************************************

 Orbital symmetries:
       Occupied  (A) (A) (A) (A) (A) (A) (A) (A) (A) (A) (A) (A)
                 (A) (A) (A) (A) (A) (A) (A) (A) (A) (A) (A) (A)
                 (A) (A) (A) (A) (A) (A) (A) (A) (A) (A) (A) (A)
                 (A) (A) (A) (A) (A) (A) (A) (A) (A) (A) (A) (A)
                 (A) (A) (A) (A) (A)
       Virtual   (A) (A) (A) (A) (A) (A) (A) (A) (A) (A) (A) (A)
                 (A) (A) (A) (A) (A) (A) (A) (A) (A) (A) (A) (A)
                 (A) (A) (A) (A) (A) (A) (A) (A) (A) (A) (A) (A)
                 (A) (A) (A) (A) (A) (A) (A) (A) (A) (A) (A) (A)
                 (A) (A) (A) (A) (A) (A) (A) (A) (A) (A) (A) (A)
                 (A) (A) (A) (A) (A) (A) (A) (A) (A) (A) (A) (A)
                 (A) (A) (A) (A) (A) (A) (A) (A) (A) (A) (A) (A)
                 (A) (A) (A) (A) (A) (A) (A) (A) (A) (A) (A) (A)
                 (A) (A) (A) (A) (A) (A) (A) (A) (A) (A) (A) (A)
                 (A) (A) (A) (A) (A) (A) (A) (A) (A) (A) (A) (A)
                 (A) (A) (A) (A) (A) (A) (A)
 The electronic state is 1-A.
 Alpha  occ. eigenvalues -- -145.53277-145.47073-145.44485 -77.29406 -19.27576
 Alpha  occ. eigenvalues --  -19.27196 -19.17721 -19.10352 -15.60170 -15.53973
 Alpha  occ. eigenvalues --  -15.51444 -12.73426 -12.73374 -12.73213 -12.67212
 Alpha  occ. eigenvalues --  -12.67130 -12.67051 -12.64720 -12.64629 -12.64474
 Alpha  occ. eigenvalues --   -6.74955  -4.91395  -4.91171  -4.90734  -1.97369
 Alpha  occ. eigenvalues --   -1.91269  -1.88894  -1.25223  -1.25071  -1.24240
 Alpha  occ. eigenvalues --   -1.19135  -1.18809  -1.18228  -1.16999  -1.16388
 Alpha  occ. eigenvalues --   -1.16275  -1.13240  -1.07845  -0.92334  -0.84314
 Alpha  occ. eigenvalues --   -0.66979  -0.56443  -0.52395  -0.52182  -0.45140
 Alpha  occ. eigenvalues --   -0.43247  -0.40553  -0.38456  -0.37483  -0.36321
 Alpha  occ. eigenvalues --   -0.29847  -0.28437  -0.28140
 Alpha virt. eigenvalues --   -0.21381  -0.19378  -0.18291  -0.14054  -0.13462
 Alpha virt. eigenvalues --   -0.11740  -0.10631  -0.10447  -0.08685  -0.08515
 Alpha virt. eigenvalues --   -0.07774  -0.07165  -0.06436  -0.06128  -0.05563
 Alpha virt. eigenvalues --   -0.05537  -0.04824  -0.04711  -0.04333  -0.03841
 Alpha virt. eigenvalues --   -0.03763  -0.03761  -0.03492  -0.03198  -0.02769
 Alpha virt. eigenvalues --   -0.02685  -0.02492  -0.01510   0.00312   0.00762
 Alpha virt. eigenvalues --    0.02061   0.03224   0.03830   0.04049   0.04454
 Alpha virt. eigenvalues --    0.04566   0.05399   0.06093   0.06139   0.06378
 Alpha virt. eigenvalues --    0.06543   0.07575   0.07675   0.08100   0.08703
 Alpha virt. eigenvalues --    0.10064   0.10947   0.11858   0.11992   0.13493
 Alpha virt. eigenvalues --    0.14467   0.15683   0.15952   0.17393   0.18054
 Alpha virt. eigenvalues --    0.18301   0.20071   0.20942   0.21860   0.24094
 Alpha virt. eigenvalues --    0.25440   0.26588   0.27023   0.29667   0.30443
 Alpha virt. eigenvalues --    0.31658   0.32410   0.33013   0.35983   0.37348
 Alpha virt. eigenvalues --    0.39265   0.40354   0.43794   0.46195   0.48645
 Alpha virt. eigenvalues --    0.52103   0.56488   0.56655   0.58487   0.58692
 Alpha virt. eigenvalues --    0.67526   0.79908   0.90173   0.95058   1.02054
 Alpha virt. eigenvalues --    1.06684   1.07625   1.08711   1.10059   1.11366
 Alpha virt. eigenvalues --    1.17105   1.18607   1.19564   1.23472   1.26412
 Alpha virt. eigenvalues --    1.28688   1.32030   1.33525   1.39661   1.43372
 Alpha virt. eigenvalues --    1.47745   1.61511   1.66143   1.67039   1.70953
 Alpha virt. eigenvalues --    1.74775   1.77141   1.79313   1.82757   1.83756
 Alpha virt. eigenvalues --    1.85251   1.86215   1.87616   1.87696   1.89266
 Alpha virt. eigenvalues --    1.94195   1.99869   2.01596   2.10587   2.22800
 Alpha virt. eigenvalues --    2.53990   2.69069   3.39974   3.84720   3.91758
 Alpha virt. eigenvalues --    3.92604   4.07872
          Condensed to atoms (all electrons):
              1          2          3          4          5          6
     1  O    8.781335  -0.080385   0.000009   0.003015  -0.071806   0.085982
     2  O   -0.080385   8.837236  -0.001487  -0.009293  -0.109724   0.003234
     3  O    0.000009  -0.001487   8.690938  -0.023457  -0.000365  -0.001254
     4  O    0.003015  -0.009293  -0.023457   9.066859  -0.007098   0.189655
     5  P   -0.071806  -0.109724  -0.000365  -0.007098  14.559776  -0.035341
     6  Ca   0.085982   0.003234  -0.001254   0.189655  -0.035341  18.245548
     7  Ca  -0.001578   0.034798   0.222754   0.040465   0.007186  -0.005926
     8  Ca   0.003804   0.009029   0.232545   0.085584  -0.013886  -0.006208
              7          8
     1  O   -0.001578   0.003804
     2  O    0.034798   0.009029
     3  O    0.222754   0.232545
     4  O    0.040465   0.085584
     5  P    0.007186  -0.013886
     6  Ca  -0.005926  -0.006208
     7  Ca  18.383757  -0.028825
     8  Ca  -0.028825  18.391694
 Mulliken atomic charges:
              1
     1  O   -0.720376
     2  O   -0.683408
     3  O   -1.119685
     4  O   -1.345731
     5  P    0.671258
     6  Ca   1.524310
     7  Ca   1.347368
     8  Ca   1.326263
 Sum of Mulliken charges=   1.00000
 Atomic charges with hydrogens summed into heavy atoms:
              1
     1  O   -0.720376
     2  O   -0.683408
     3  O   -1.119685
     4  O   -1.345731
     5  P    0.671258
     6  Ca   1.524310
     7  Ca   1.347368
     8  Ca   1.326263
 Sum of Mulliken charges=   1.00000
 Electronic spatial extent (au):  <R**2>=  2666.7010
 Charge=     1.0000 electrons
 Dipole moment (field-independent basis, Debye):
    X=     0.3911    Y=    11.4377    Z=    -0.0044  Tot=    11.4444
 Quadrupole moment (field-independent basis, Debye-Ang):
   XX=   -59.0128   YY=   -46.9168   ZZ=   -69.1144
   XY=    17.5123   XZ=     0.0023   YZ=     0.0146
 Traceless Quadrupole moment (field-independent basis, Debye-Ang):
   XX=    -0.6648   YY=    11.4311   ZZ=   -10.7664
   XY=    17.5123   XZ=     0.0023   YZ=     0.0146
 Octapole moment (field-independent basis, Debye-Ang**2):
  XXX=   102.7295  YYY=    80.5265  ZZZ=    -0.0089  XYY=   -35.9824
  XXY=   115.5980  XXZ=     0.0008  XZZ=     0.3042  YZZ=     8.1654
  YYZ=    -0.0253  XYZ=     0.0313
 Hexadecapole moment (field-independent basis, Debye-Ang**3):
 XXXX= -2100.8037 YYYY=  -624.8901 ZZZZ=   -84.6635 XXXY=   423.9256
 XXXZ=     0.0345 YYYX=   -48.7477 YYYZ=     0.0465 ZZZX=     0.0093
 ZZZY=     0.0286 XXYY=  -564.6205 XXZZ=  -384.9348 YYZZ=  -135.6237
 XXYZ=     0.0518 YYXZ=     0.0006 ZZXY=     5.4006
 N-N= 8.011282599543D+02 E-N=-7.926756868047D+03  KE= 2.667645217078D+03
 Merz-Kollman atomic radii used.
 Read replacement radii for each type of atom:
 Rad(20) =   1.188000000000D+00
 Atom Element Radius
    1     8    1.40
    2     8    1.40
    3     8    1.40
    4     8    1.40
    5    15    1.80
    6    20    1.19
    7    20    1.19
    8    20    1.19

 **********************************************************************

            Electrostatic Properties Using The SCF Density

 **********************************************************************

       Atomic Center    1 is at  -2.947600  0.670612  0.000260
       Atomic Center    2 is at  -1.668370 -1.502828  0.000380
       Atomic Center    3 is at   2.840090 -1.415249  0.000500
       Atomic Center    4 is at   0.830820  0.944631 -0.000460
       Atomic Center    5 is at  -3.073620 -0.876988  0.000360
       Atomic Center    6 is at  -1.074390  1.946632 -0.000220
       Atomic Center    7 is at   0.672380 -1.458898 -0.000700
       Atomic Center    8 is at   3.085250  0.691141  0.000380
     826 points will be used for fitting atomic charges
 Fitting point charges to eletrostatic potential
 Charges from ESP fit, RMS=   0.00609 RRMS=   0.04018:
 Charge=   1.00000 Dipole=     0.7533    11.7754    -0.0055 Tot=    11.7995
              1
     1  O   -0.699166
     2  O   -0.653165
     3  O   -1.466752
     4  O   -1.690744
     5  P    0.536326
     6  Ca   1.693114
     7  Ca   1.689535
     8  Ca   1.590852
 -----------------------------------------------------------------

              Electrostatic Properties (Atomic Units)

 -----------------------------------------------------------------
    Center     Electric         -------- Electric Field --------
               Potential          X             Y             Z
 -----------------------------------------------------------------
    1 Atom    -22.188819
    2 Atom    -22.191128
    3 Atom    -22.359744
    4 Atom    -22.280863
    5 Atom    -53.918854
    6 Atom    -80.008594
    7 Atom    -80.096767
    8 Atom    -80.072292
 -----------------------------------------------------------------
 1\1\GINC-N031\SP\RB3LYP\6-31+G(d,p)\Ca3O4P1(1+)\TIMN\12-Jun-2015\0\\# 
 b3lyp/6-31+G(d,p) int=ultrafine pop=(ReadRadii,MK)\\Ca3PO4_81.mol2_plu
 sQ.z51498.zip.xyz\\1,1\O,0,2.9476,0.67061,-0.00026\O,0,1.66837,-1.5028
 3,-0.00038\O,0,-2.84009,-1.41525,-0.0005\O,0,-0.83082,0.94463,0.00046\
 P,0,3.07362,-0.87699,-0.00036\Ca,0,1.07439,1.94663,0.00022\Ca,0,-0.672
 38,-1.4589,0.0007\Ca,0,-3.08525,0.69114,-0.00038\\Version=EM64T-G03Rev
 E.01\State=1-A\HF=-2675.0057949\RMSD=8.272e-05\Thermal=0.\Dipole=-0.15
 38775,4.4999503,0.00174\PG=C01 [X(Ca3O4P1)]\\@


 ... SUBJECTS WHICH DISCLOSE THEIR FULL POWER, MEANING AND BEAUTY AS SOON
 AS THEY ARE PRESENTED TO THE MIND HAVE VERY LITTLE OF THOSE QUALITIES
 TO DISCLOSE.
                           -- CHARLES DUTTON (1882)
 Job cpu time:  0 days  0 hours  1 minutes 47.3 seconds.
 File lengths (MBytes):  RWF=     32 Int=      0 D2E=      0 Chk=     11 Scr=      1
 Normal termination of Gaussian 03 at Fri Jun 12 17:45:46 2015.
