 Entering Gaussian System, Link 0=/home/timn/tmp/g03.e01/g03
 Input=Ca3PO4_194.mol2c_plusQc.z51691.zip.xyz.gjf
 Output=Ca3PO4_194.mol2c_plusQc.z51691.zip.xyz.out
 Initial command:
 /home/timn/tmp/g03.e01/l1.exe /home/timn/tmp/g03.e01/Gau-16152.inp -scrdir=/home/timn/tmp/g03.e01/
 Default is to use a total of   2 processors:
                                2 via shared-memory
                                1 via Linda
 Entering Link 1 = /home/timn/tmp/g03.e01/l1.exe PID=     16153.
  
 Copyright (c) 1988,1990,1992,1993,1995,1998,2003,2004,2007, Gaussian, Inc.
                  All Rights Reserved.
  
 This is the Gaussian(R) 03 program.  It is based on the
 the Gaussian(R) 98 system (copyright 1998, Gaussian, Inc.),
 the Gaussian(R) 94 system (copyright 1995, Gaussian, Inc.),
 the Gaussian 92(TM) system (copyright 1992, Gaussian, Inc.),
 the Gaussian 90(TM) system (copyright 1990, Gaussian, Inc.),
 the Gaussian 88(TM) system (copyright 1988, Gaussian, Inc.),
 the Gaussian 86(TM) system (copyright 1986, Carnegie Mellon
 University), and the Gaussian 82(TM) system (copyright 1983,
 Carnegie Mellon University). Gaussian is a federally registered
 trademark of Gaussian, Inc.
  
 This software contains proprietary and confidential information,
 including trade secrets, belonging to Gaussian, Inc.
  
 This software is provided under written license and may be
 used, copied, transmitted, or stored only in accord with that
 written license.
  
 The following legend is applicable only to US Government
 contracts under FAR:
  
                    RESTRICTED RIGHTS LEGEND
  
 Use, reproduction and disclosure by the US Government is
 subject to restrictions as set forth in subparagraphs (a)
 and (c) of the Commercial Computer Software - Restricted
 Rights clause in FAR 52.227-19.
  
 Gaussian, Inc.
 340 Quinnipiac St., Bldg. 40, Wallingford CT 06492
  
  
 ---------------------------------------------------------------
 Warning -- This program may not be used in any manner that
 competes with the business of Gaussian, Inc. or will provide
 assistance to any competitor of Gaussian, Inc.  The licensee
 of this program is prohibited from giving any competitor of
 Gaussian, Inc. access to this program.  By using this program,
 the user acknowledges that Gaussian, Inc. is engaged in the
 business of creating and licensing software in the field of
 computational chemistry and represents and warrants to the
 licensee that it is not a competitor of Gaussian, Inc. and that
 it will not use this program in any manner prohibited above.
 ---------------------------------------------------------------
  

 Cite this work as:
 Gaussian 03, Revision E.01,
 M. J. Frisch, G. W. Trucks, H. B. Schlegel, G. E. Scuseria, 
 M. A. Robb, J. R. Cheeseman, J. A. Montgomery, Jr., T. Vreven, 
 K. N. Kudin, J. C. Burant, J. M. Millam, S. S. Iyengar, J. Tomasi, 
 V. Barone, B. Mennucci, M. Cossi, G. Scalmani, N. Rega, 
 G. A. Petersson, H. Nakatsuji, M. Hada, M. Ehara, K. Toyota, 
 R. Fukuda, J. Hasegawa, M. Ishida, T. Nakajima, Y. Honda, O. Kitao, 
 H. Nakai, M. Klene, X. Li, J. E. Knox, H. P. Hratchian, J. B. Cross, 
 V. Bakken, C. Adamo, J. Jaramillo, R. Gomperts, R. E. Stratmann, 
 O. Yazyev, A. J. Austin, R. Cammi, C. Pomelli, J. W. Ochterski, 
 P. Y. Ayala, K. Morokuma, G. A. Voth, P. Salvador, J. J. Dannenberg, 
 V. G. Zakrzewski, S. Dapprich, A. D. Daniels, M. C. Strain, 
 O. Farkas, D. K. Malick, A. D. Rabuck, K. Raghavachari, 
 J. B. Foresman, J. V. Ortiz, Q. Cui, A. G. Baboul, S. Clifford, 
 J. Cioslowski, B. B. Stefanov, G. Liu, A. Liashenko, P. Piskorz, 
 I. Komaromi, R. L. Martin, D. J. Fox, T. Keith, M. A. Al-Laham, 
 C. Y. Peng, A. Nanayakkara, M. Challacombe, P. M. W. Gill, 
 B. Johnson, W. Chen, M. W. Wong, C. Gonzalez, and J. A. Pople, 
 Gaussian, Inc., Wallingford CT, 2004.
 
 ******************************************
 Gaussian 03:  EM64T-G03RevE.01 11-Sep-2007
                12-Jun-2015 
 ******************************************
 %nproc=2
 Will use up to    2 processors via shared memory.
 Default route:  MP2=Direct MaxDisk=2000MB
 ----------------------------------------------------
 # b3lyp/6-31+G(d,p) int=ultrafine pop=(ReadRadii,MK)
 ----------------------------------------------------

 Warning!  SCF SP cutoffs with diffuse functions may be unreliable.
 Consider SCF=Tight

 1/38=1/1;
 2/17=6,18=5,40=1/2;
 3/5=1,6=6,7=111,11=2,16=1,25=1,30=1,74=-5,75=5/1,2,3;
 4//1;
 5/5=2,32=1,38=5/2;
 6/7=2,8=2,9=2,10=2,15=8,20=101,28=1/1,2;
 99/5=1,9=1/99;
 --------------------------------------
 Ca3PO4_194.mol2c_plusQc.z51691.zip.xyz
 --------------------------------------
 Symbolic Z-matrix:
 Charge =  1 Multiplicity = 1
 O                     2.94927   0.67036  -0.00263 
 O                    -2.8408   -1.41443  -0.00324 
 O                     1.66741  -1.50126  -0.00071 
 O                    -0.83064   0.94455   0.00411 
 P                     3.07351  -0.87733  -0.0028 
 Ca                   -3.08522   0.69196  -0.00285 
 Ca                   -0.67321  -1.45923   0.00427 
 Ca                    1.0752    1.94557   0.00167 
 
                          Input orientation:                          
 ---------------------------------------------------------------------
 Center     Atomic     Atomic              Coordinates (Angstroms)
 Number     Number      Type              X           Y           Z
 ---------------------------------------------------------------------
    1          8             0        2.949270    0.670360   -0.002630
    2          8             0       -2.840800   -1.414430   -0.003240
    3          8             0        1.667410   -1.501260   -0.000710
    4          8             0       -0.830640    0.944550    0.004110
    5         15             0        3.073510   -0.877330   -0.002800
    6         20             0       -3.085220    0.691960   -0.002850
    7         20             0       -0.673210   -1.459230    0.004270
    8         20             0        1.075200    1.945570    0.001670
 ---------------------------------------------------------------------
                    Distance matrix (angstroms):
                    1          2          3          4          5
     1  O    0.000000
     2  O    6.153963   0.000000
     3  O    2.521726   4.509047   0.000000
     4  O    3.789848   3.099288   3.496035   0.000000
     5  P    1.552669   5.938648   1.538314   4.308327   0.000000
     6  Ca   6.034529   2.120524   5.234282   2.268696   6.355519
     7  Ca   4.202090   2.168066   2.341003   2.408930   3.791645
     8  Ca   2.266786   5.159911   3.497335   2.152736   3.458616
                    6          7          8
     6  Ca   0.000000
     7  Ca   3.231944   0.000000
     8  Ca   4.345187   3.827481   0.000000
 Stoichiometry    Ca3O4P(1+)
 Framework group  C1[X(Ca3O4P)]
 Deg. of freedom    18
 Full point group                 C1
 Largest Abelian subgroup         C1      NOp   1
 Largest concise Abelian subgroup C1      NOp   1
                         Standard orientation:                         
 ---------------------------------------------------------------------
 Center     Atomic     Atomic              Coordinates (Angstroms)
 Number     Number      Type              X           Y           Z
 ---------------------------------------------------------------------
    1          8             0        2.949270    0.670364   -0.002630
    2          8             0       -2.840799   -1.414430   -0.003240
    3          8             0        1.667411   -1.501257   -0.000710
    4          8             0       -0.830640    0.944551    0.004110
    5         15             0        3.073511   -0.877326   -0.002800
    6         20             0       -3.085220    0.691960   -0.002850
    7         20             0       -0.673209   -1.459229    0.004270
    8         20             0        1.075199    1.945572    0.001670
 ---------------------------------------------------------------------
 Rotational constants (GHZ):      1.3702128      0.4763358      0.3534612
 Standard basis: 6-31+G(d,p) (6D, 7F)
 There are   180 symmetry adapted basis functions of A   symmetry.
 Integral buffers will be    131072 words long.
 Raffenetti 2 integral format.
 Two-electron integral symmetry is turned on.
   180 basis functions,   424 primitive gaussians,   180 cartesian basis functions
    53 alpha electrons       53 beta electrons
       nuclear repulsion energy       801.1367316215 Hartrees.
 NAtoms=    8 NActive=    8 NUniq=    8 SFac= 7.50D-01 NAtFMM=   80 NAOKFM=F Big=F
 One-electron integrals computed using PRISM.
 NBasis=   180 RedAO= T  NBF=   180
 NBsUse=   180 1.00D-06 NBFU=   180
 Harris functional with IExCor=  402 diagonalized for initial guess.
 ExpMin= 7.10D-03 ExpMax= 3.53D+04 ExpMxC= 5.30D+03 IAcc=3 IRadAn=         5 AccDes= 0.00D+00
 HarFok:  IExCor= 402 AccDes= 0.00D+00 IRadAn=         5 IDoV=1
 ScaDFX=  1.000000  1.000000  1.000000  1.000000
 Initial guess orbital symmetries:
       Occupied  (A) (A) (A) (A) (A) (A) (A) (A) (A) (A) (A) (A)
                 (A) (A) (A) (A) (A) (A) (A) (A) (A) (A) (A) (A)
                 (A) (A) (A) (A) (A) (A) (A) (A) (A) (A) (A) (A)
                 (A) (A) (A) (A) (A) (A) (A) (A) (A) (A) (A) (A)
                 (A) (A) (A) (A) (A)
       Virtual   (A) (A) (A) (A) (A) (A) (A) (A) (A) (A) (A) (A)
                 (A) (A) (A) (A) (A) (A) (A) (A) (A) (A) (A) (A)
                 (A) (A) (A) (A) (A) (A) (A) (A) (A) (A) (A) (A)
                 (A) (A) (A) (A) (A) (A) (A) (A) (A) (A) (A) (A)
                 (A) (A) (A) (A) (A) (A) (A) (A) (A) (A) (A) (A)
                 (A) (A) (A) (A) (A) (A) (A) (A) (A) (A) (A) (A)
                 (A) (A) (A) (A) (A) (A) (A) (A) (A) (A) (A) (A)
                 (A) (A) (A) (A) (A) (A) (A) (A) (A) (A) (A) (A)
                 (A) (A) (A) (A) (A) (A) (A) (A) (A) (A) (A) (A)
                 (A) (A) (A) (A) (A) (A) (A) (A) (A) (A) (A) (A)
                 (A) (A) (A) (A) (A) (A) (A)
 The electronic state of the initial guess is 1-A.
 Requested convergence on RMS density matrix=1.00D-04 within 128 cycles.
 Requested convergence on MAX density matrix=1.00D-02.
 Requested convergence on             energy=1.00D-02.
 No special actions if energy rises.
 EnCoef did     3 forward-backward iterations
 EnCoef did   100 forward-backward iterations
 EnCoef did     4 forward-backward iterations
 EnCoef did     3 forward-backward iterations
 SCF Done:  E(RB+HF-LYP) =  -2675.00579491     A.U. after   10 cycles
             Convg  =    0.8268D-04             -V/T =  2.0028
             S**2   =   0.0000

 **********************************************************************

            Population analysis using the SCF density.

 **********************************************************************

 Orbital symmetries:
       Occupied  (A) (A) (A) (A) (A) (A) (A) (A) (A) (A) (A) (A)
                 (A) (A) (A) (A) (A) (A) (A) (A) (A) (A) (A) (A)
                 (A) (A) (A) (A) (A) (A) (A) (A) (A) (A) (A) (A)
                 (A) (A) (A) (A) (A) (A) (A) (A) (A) (A) (A) (A)
                 (A) (A) (A) (A) (A)
       Virtual   (A) (A) (A) (A) (A) (A) (A) (A) (A) (A) (A) (A)
                 (A) (A) (A) (A) (A) (A) (A) (A) (A) (A) (A) (A)
                 (A) (A) (A) (A) (A) (A) (A) (A) (A) (A) (A) (A)
                 (A) (A) (A) (A) (A) (A) (A) (A) (A) (A) (A) (A)
                 (A) (A) (A) (A) (A) (A) (A) (A) (A) (A) (A) (A)
                 (A) (A) (A) (A) (A) (A) (A) (A) (A) (A) (A) (A)
                 (A) (A) (A) (A) (A) (A) (A) (A) (A) (A) (A) (A)
                 (A) (A) (A) (A) (A) (A) (A) (A) (A) (A) (A) (A)
                 (A) (A) (A) (A) (A) (A) (A) (A) (A) (A) (A) (A)
                 (A) (A) (A) (A) (A) (A) (A) (A) (A) (A) (A) (A)
                 (A) (A) (A) (A) (A) (A) (A)
 The electronic state is 1-A.
 Alpha  occ. eigenvalues -- -145.53274-145.47073-145.44487 -77.29406 -19.27576
 Alpha  occ. eigenvalues --  -19.27198 -19.17717 -19.10351 -15.60167 -15.53972
 Alpha  occ. eigenvalues --  -15.51445 -12.73423 -12.73371 -12.73210 -12.67212
 Alpha  occ. eigenvalues --  -12.67130 -12.67051 -12.64721 -12.64630 -12.64476
 Alpha  occ. eigenvalues --   -6.74955  -4.91395  -4.91171  -4.90735  -1.97366
 Alpha  occ. eigenvalues --   -1.91268  -1.88895  -1.25220  -1.25068  -1.24237
 Alpha  occ. eigenvalues --   -1.19135  -1.18808  -1.18227  -1.17000  -1.16389
 Alpha  occ. eigenvalues --   -1.16276  -1.13243  -1.07846  -0.92329  -0.84315
 Alpha  occ. eigenvalues --   -0.66979  -0.56443  -0.52399  -0.52184  -0.45141
 Alpha  occ. eigenvalues --   -0.43249  -0.40555  -0.38451  -0.37477  -0.36316
 Alpha  occ. eigenvalues --   -0.29849  -0.28438  -0.28141
 Alpha virt. eigenvalues --   -0.21377  -0.19379  -0.18289  -0.14055  -0.13459
 Alpha virt. eigenvalues --   -0.11736  -0.10631  -0.10446  -0.08686  -0.08514
 Alpha virt. eigenvalues --   -0.07774  -0.07165  -0.06436  -0.06130  -0.05562
 Alpha virt. eigenvalues --   -0.05536  -0.04824  -0.04711  -0.04333  -0.03841
 Alpha virt. eigenvalues --   -0.03764  -0.03760  -0.03494  -0.03198  -0.02768
 Alpha virt. eigenvalues --   -0.02686  -0.02492  -0.01510   0.00308   0.00764
 Alpha virt. eigenvalues --    0.02068   0.03225   0.03831   0.04050   0.04454
 Alpha virt. eigenvalues --    0.04565   0.05403   0.06094   0.06138   0.06379
 Alpha virt. eigenvalues --    0.06543   0.07577   0.07675   0.08101   0.08706
 Alpha virt. eigenvalues --    0.10064   0.10949   0.11859   0.11989   0.13485
 Alpha virt. eigenvalues --    0.14464   0.15683   0.15953   0.17392   0.18059
 Alpha virt. eigenvalues --    0.18299   0.20072   0.20942   0.21856   0.24096
 Alpha virt. eigenvalues --    0.25446   0.26585   0.27026   0.29666   0.30445
 Alpha virt. eigenvalues --    0.31653   0.32409   0.33012   0.35983   0.37345
 Alpha virt. eigenvalues --    0.39261   0.40354   0.43798   0.46205   0.48639
 Alpha virt. eigenvalues --    0.52102   0.56503   0.56651   0.58489   0.58699
 Alpha virt. eigenvalues --    0.67526   0.79892   0.90166   0.95067   1.02122
 Alpha virt. eigenvalues --    1.06686   1.07630   1.08709   1.10064   1.11364
 Alpha virt. eigenvalues --    1.17108   1.18607   1.19552   1.23472   1.26407
 Alpha virt. eigenvalues --    1.28679   1.32050   1.33536   1.39672   1.43370
 Alpha virt. eigenvalues --    1.47798   1.61533   1.66137   1.67042   1.70950
 Alpha virt. eigenvalues --    1.74801   1.77146   1.79318   1.82749   1.83747
 Alpha virt. eigenvalues --    1.85250   1.86218   1.87617   1.87694   1.89268
 Alpha virt. eigenvalues --    1.94199   1.99865   2.01599   2.10569   2.22796
 Alpha virt. eigenvalues --    2.53992   2.69071   3.39974   3.84728   3.91755
 Alpha virt. eigenvalues --    3.92609   4.07876
          Condensed to atoms (all electrons):
              1          2          3          4          5          6
     1  O    8.780503   0.000009  -0.080511   0.003014  -0.071094   0.003785
     2  O    0.000009   8.690981  -0.001500  -0.023468  -0.000371   0.232550
     3  O   -0.080511  -0.001500   8.837718  -0.009369  -0.110074   0.009018
     4  O    0.003014  -0.023468  -0.009369   9.066892  -0.007104   0.085613
     5  P   -0.071094  -0.000371  -0.110074  -0.007104  14.559593  -0.013857
     6  Ca   0.003785   0.232550   0.009018   0.085613  -0.013857  18.391582
     7  Ca  -0.001497   0.222797   0.034837   0.040459   0.007077  -0.028743
     8  Ca   0.085976  -0.001256   0.003249   0.189678  -0.035287  -0.006228
              7          8
     1  O   -0.001497   0.085976
     2  O    0.222797  -0.001256
     3  O    0.034837   0.003249
     4  O    0.040459   0.189678
     5  P    0.007077  -0.035287
     6  Ca  -0.028743  -0.006228
     7  Ca  18.383597  -0.005883
     8  Ca  -0.005883  18.245493
 Mulliken atomic charges:
              1
     1  O   -0.720186
     2  O   -1.119743
     3  O   -0.683368
     4  O   -1.345715
     5  P    0.671117
     6  Ca   1.326280
     7  Ca   1.347357
     8  Ca   1.524258
 Sum of Mulliken charges=   1.00000
 Atomic charges with hydrogens summed into heavy atoms:
              1
     1  O   -0.720186
     2  O   -1.119743
     3  O   -0.683368
     4  O   -1.345715
     5  P    0.671117
     6  Ca   1.326280
     7  Ca   1.347357
     8  Ca   1.524258
 Sum of Mulliken charges=   1.00000
 Electronic spatial extent (au):  <R**2>=  2666.8331
 Charge=     1.0000 electrons
 Dipole moment (field-independent basis, Debye):
    X=    -0.3880    Y=    11.4261    Z=     0.0197  Tot=    11.4327
 Quadrupole moment (field-independent basis, Debye-Ang):
   XX=   -59.0330   YY=   -46.9042   ZZ=   -69.1140
   XY=   -17.5232   XZ=     0.0304   YZ=    -0.0864
 Traceless Quadrupole moment (field-independent basis, Debye-Ang):
   XX=    -0.6826   YY=    11.4462   ZZ=   -10.7636
   XY=   -17.5232   XZ=     0.0304   YZ=    -0.0864
 Octapole moment (field-independent basis, Debye-Ang**2):
  XXX=  -102.6737  YYY=    80.3496  ZZZ=     0.0519  XYY=    35.9216
  XXY=   115.6252  XXZ=     0.0073  XZZ=    -0.3020  YZZ=     8.1587
  YYZ=     0.1515  XYZ=     0.2396
 Hexadecapole moment (field-independent basis, Debye-Ang**3):
 XXXX= -2102.0724 YYYY=  -624.6162 ZZZZ=   -84.6652 XXXY=  -424.2559
 XXXZ=     0.4137 YYYX=    48.7179 YYYZ=    -0.2659 ZZZX=     0.0786
 ZZZY=    -0.1815 XXYY=  -564.4297 XXZZ=  -385.0188 YYZZ=  -135.5607
 XXYZ=    -0.3343 YYXZ=     0.0149 ZZXY=    -5.4017
 N-N= 8.011367316215D+02 E-N=-7.926774194296D+03  KE= 2.667645245271D+03
 Merz-Kollman atomic radii used.
 Read replacement radii for each type of atom:
 Rad(20) =   1.188000000000D+00
 Atom Element Radius
    1     8    1.40
    2     8    1.40
    3     8    1.40
    4     8    1.40
    5    15    1.80
    6    20    1.19
    7    20    1.19
    8    20    1.19

 **********************************************************************

            Electrostatic Properties Using The SCF Density

 **********************************************************************

       Atomic Center    1 is at   2.949270  0.670364 -0.002630
       Atomic Center    2 is at  -2.840799 -1.414430 -0.003240
       Atomic Center    3 is at   1.667411 -1.501257 -0.000710
       Atomic Center    4 is at  -0.830640  0.944551  0.004110
       Atomic Center    5 is at   3.073511 -0.877326 -0.002800
       Atomic Center    6 is at  -3.085220  0.691960 -0.002850
       Atomic Center    7 is at  -0.673209 -1.459229  0.004270
       Atomic Center    8 is at   1.075199  1.945572  0.001670
     820 points will be used for fitting atomic charges
 Fitting point charges to eletrostatic potential
 Charges from ESP fit, RMS=   0.00596 RRMS=   0.03924:
 Charge=   1.00000 Dipole=    -0.7533    11.7532     0.0197 Tot=    11.7774
              1
     1  O   -0.705923
     2  O   -1.467193
     3  O   -0.661146
     4  O   -1.707281
     5  P    0.543573
     6  Ca   1.594387
     7  Ca   1.698564
     8  Ca   1.705018
 -----------------------------------------------------------------

              Electrostatic Properties (Atomic Units)

 -----------------------------------------------------------------
    Center     Electric         -------- Electric Field --------
               Potential          X             Y             Z
 -----------------------------------------------------------------
    1 Atom    -22.188805
    2 Atom    -22.359770
    3 Atom    -22.191097
    4 Atom    -22.280915
    5 Atom    -53.918828
    6 Atom    -80.072323
    7 Atom    -80.096754
    8 Atom    -80.008601
 -----------------------------------------------------------------
 1\1\GINC-N028\SP\RB3LYP\6-31+G(d,p)\Ca3O4P1(1+)\TIMN\12-Jun-2015\0\\# 
 b3lyp/6-31+G(d,p) int=ultrafine pop=(ReadRadii,MK)\\Ca3PO4_194.mol2c_p
 lusQc.z51691.zip.xyz\\1,1\O,0,2.94927,0.67036,-0.00263\O,0,-2.8408,-1.
 41443,-0.00324\O,0,1.66741,-1.50126,-0.00071\O,0,-0.83064,0.94455,0.00
 411\P,0,3.07351,-0.87733,-0.0028\Ca,0,-3.08522,0.69196,-0.00285\Ca,0,-
 0.67321,-1.45923,0.00427\Ca,0,1.0752,1.94557,0.00167\\Version=EM64T-G0
 3RevE.01\State=1-A\HF=-2675.0057949\RMSD=8.268e-05\Thermal=0.\Dipole=-
 0.1526431,4.4953546,0.0077391\PG=C01 [X(Ca3O4P1)]\\@


 ONE OF THE BENEFITS OF A COLLEGE EDUCATION
 IS TO SHOW THE BOY ITS LITTLE AVAIL 
                                    EMERSON IN 'CULTURE'
 Job cpu time:  0 days  0 hours  1 minutes 45.9 seconds.
 File lengths (MBytes):  RWF=     32 Int=      0 D2E=      0 Chk=     11 Scr=      1
 Normal termination of Gaussian 03 at Fri Jun 12 17:40:47 2015.
