 Entering Gaussian System, Link 0=/home/timn/tmp/g03.e01/g03
 Input=Ca3PO4_148.mol2c_plusQ.z51152.zip.xyz.gjf
 Output=Ca3PO4_148.mol2c_plusQ.z51152.zip.xyz.out
 Initial command:
 /home/timn/tmp/g03.e01/l1.exe /home/timn/tmp/g03.e01/Gau-18891.inp -scrdir=/home/timn/tmp/g03.e01/
 Default is to use a total of   2 processors:
                                2 via shared-memory
                                1 via Linda
 Entering Link 1 = /home/timn/tmp/g03.e01/l1.exe PID=     18892.
  
 Copyright (c) 1988,1990,1992,1993,1995,1998,2003,2004,2007, Gaussian, Inc.
                  All Rights Reserved.
  
 This is the Gaussian(R) 03 program.  It is based on the
 the Gaussian(R) 98 system (copyright 1998, Gaussian, Inc.),
 the Gaussian(R) 94 system (copyright 1995, Gaussian, Inc.),
 the Gaussian 92(TM) system (copyright 1992, Gaussian, Inc.),
 the Gaussian 90(TM) system (copyright 1990, Gaussian, Inc.),
 the Gaussian 88(TM) system (copyright 1988, Gaussian, Inc.),
 the Gaussian 86(TM) system (copyright 1986, Carnegie Mellon
 University), and the Gaussian 82(TM) system (copyright 1983,
 Carnegie Mellon University). Gaussian is a federally registered
 trademark of Gaussian, Inc.
  
 This software contains proprietary and confidential information,
 including trade secrets, belonging to Gaussian, Inc.
  
 This software is provided under written license and may be
 used, copied, transmitted, or stored only in accord with that
 written license.
  
 The following legend is applicable only to US Government
 contracts under FAR:
  
                    RESTRICTED RIGHTS LEGEND
  
 Use, reproduction and disclosure by the US Government is
 subject to restrictions as set forth in subparagraphs (a)
 and (c) of the Commercial Computer Software - Restricted
 Rights clause in FAR 52.227-19.
  
 Gaussian, Inc.
 340 Quinnipiac St., Bldg. 40, Wallingford CT 06492
  
  
 ---------------------------------------------------------------
 Warning -- This program may not be used in any manner that
 competes with the business of Gaussian, Inc. or will provide
 assistance to any competitor of Gaussian, Inc.  The licensee
 of this program is prohibited from giving any competitor of
 Gaussian, Inc. access to this program.  By using this program,
 the user acknowledges that Gaussian, Inc. is engaged in the
 business of creating and licensing software in the field of
 computational chemistry and represents and warrants to the
 licensee that it is not a competitor of Gaussian, Inc. and that
 it will not use this program in any manner prohibited above.
 ---------------------------------------------------------------
  

 Cite this work as:
 Gaussian 03, Revision E.01,
 M. J. Frisch, G. W. Trucks, H. B. Schlegel, G. E. Scuseria, 
 M. A. Robb, J. R. Cheeseman, J. A. Montgomery, Jr., T. Vreven, 
 K. N. Kudin, J. C. Burant, J. M. Millam, S. S. Iyengar, J. Tomasi, 
 V. Barone, B. Mennucci, M. Cossi, G. Scalmani, N. Rega, 
 G. A. Petersson, H. Nakatsuji, M. Hada, M. Ehara, K. Toyota, 
 R. Fukuda, J. Hasegawa, M. Ishida, T. Nakajima, Y. Honda, O. Kitao, 
 H. Nakai, M. Klene, X. Li, J. E. Knox, H. P. Hratchian, J. B. Cross, 
 V. Bakken, C. Adamo, J. Jaramillo, R. Gomperts, R. E. Stratmann, 
 O. Yazyev, A. J. Austin, R. Cammi, C. Pomelli, J. W. Ochterski, 
 P. Y. Ayala, K. Morokuma, G. A. Voth, P. Salvador, J. J. Dannenberg, 
 V. G. Zakrzewski, S. Dapprich, A. D. Daniels, M. C. Strain, 
 O. Farkas, D. K. Malick, A. D. Rabuck, K. Raghavachari, 
 J. B. Foresman, J. V. Ortiz, Q. Cui, A. G. Baboul, S. Clifford, 
 J. Cioslowski, B. B. Stefanov, G. Liu, A. Liashenko, P. Piskorz, 
 I. Komaromi, R. L. Martin, D. J. Fox, T. Keith, M. A. Al-Laham, 
 C. Y. Peng, A. Nanayakkara, M. Challacombe, P. M. W. Gill, 
 B. Johnson, W. Chen, M. W. Wong, C. Gonzalez, and J. A. Pople, 
 Gaussian, Inc., Wallingford CT, 2004.
 
 ******************************************
 Gaussian 03:  EM64T-G03RevE.01 11-Sep-2007
                12-Jun-2015 
 ******************************************
 %nproc=2
 Will use up to    2 processors via shared memory.
 Default route:  MP2=Direct MaxDisk=2000MB
 ----------------------------------------------------
 # b3lyp/6-31+G(d,p) int=ultrafine pop=(ReadRadii,MK)
 ----------------------------------------------------

 Warning!  SCF SP cutoffs with diffuse functions may be unreliable.
 Consider SCF=Tight

 1/38=1/1;
 2/17=6,18=5,40=1/2;
 3/5=1,6=6,7=111,11=2,16=1,25=1,30=1,74=-5,75=5/1,2,3;
 4//1;
 5/5=2,32=1,38=5/2;
 6/7=2,8=2,9=2,10=2,15=8,20=101,28=1/1,2;
 99/5=1,9=1/99;
 -------------------------------------
 Ca3PO4_148.mol2c_plusQ.z51152.zip.xyz
 -------------------------------------
 Symbolic Z-matrix:
 Charge =  1 Multiplicity = 1
 O                    -0.70576  -1.30108   0.92329 
 O                    -0.77219   1.26285   0.92322 
 O                    -0.00193  -0.00009  -1.71212 
 O                     1.48137   0.0384    0.92106 
 P                     0.00189   0.0001    1.71821 
 Ca                    0.92839   1.70965  -0.57115 
 Ca                   -1.94608  -0.05043  -0.56861 
 Ca                    1.01568  -1.65932  -0.57108 
 
                          Input orientation:                          
 ---------------------------------------------------------------------
 Center     Atomic     Atomic              Coordinates (Angstroms)
 Number     Number      Type              X           Y           Z
 ---------------------------------------------------------------------
    1          8             0       -0.705760   -1.301080    0.923290
    2          8             0       -0.772190    1.262850    0.923220
    3          8             0       -0.001930   -0.000090   -1.712120
    4          8             0        1.481370    0.038400    0.921060
    5         15             0        0.001890    0.000100    1.718210
    6         20             0        0.928390    1.709650   -0.571150
    7         20             0       -1.946080   -0.050430   -0.568610
    8         20             0        1.015680   -1.659320   -0.571080
 ---------------------------------------------------------------------
                    Distance matrix (angstroms):
                    1          2          3          4          5
     1  O    0.000000
     2  O    2.564790   0.000000
     3  O    3.022141   3.022141   0.000000
     4  O    2.564712   2.564725   3.022465   0.000000
     5  P    1.680992   1.680996   3.430332   1.681004   0.000000
     6  Ca   3.737418   2.307541   2.256218   2.307716   3.003687
     7  Ca   2.308308   2.308306   2.256074   3.738238   3.004444
     8  Ca   2.307560   3.737444   2.256224   2.307727   3.003713
                    6          7          8
     6  Ca   0.000000
     7  Ca   3.370529   0.000000
     8  Ca   3.370101   3.370542   0.000000
 Stoichiometry    Ca3O4P(1+)
 Framework group  C1[X(Ca3O4P)]
 Deg. of freedom    18
 Full point group                 C1
 Largest Abelian subgroup         C1      NOp   1
 Largest concise Abelian subgroup C1      NOp   1
                         Standard orientation:                         
 ---------------------------------------------------------------------
 Center     Atomic     Atomic              Coordinates (Angstroms)
 Number     Number      Type              X           Y           Z
 ---------------------------------------------------------------------
    1          8             0       -0.716043   -1.295451    0.923290
    2          8             0       -0.762165    1.268924    0.923220
    3          8             0       -0.001931   -0.000076   -1.712120
    4          8             0        1.481627    0.026666    0.921060
    5         15             0        0.001890    0.000084    1.718210
    6         20             0        0.941900    1.702243   -0.571150
    7         20             0       -1.946419   -0.035018   -0.568610
    8         20             0        1.002506   -1.667313   -0.571080
 ---------------------------------------------------------------------
 Rotational constants (GHZ):      1.0154495      1.0152979      0.9038029
 Standard basis: 6-31+G(d,p) (6D, 7F)
 There are   180 symmetry adapted basis functions of A   symmetry.
 Integral buffers will be    131072 words long.
 Raffenetti 2 integral format.
 Two-electron integral symmetry is turned on.
   180 basis functions,   424 primitive gaussians,   180 cartesian basis functions
    53 alpha electrons       53 beta electrons
       nuclear repulsion energy       952.6878363046 Hartrees.
 NAtoms=    8 NActive=    8 NUniq=    8 SFac= 7.50D-01 NAtFMM=   80 NAOKFM=F Big=F
 One-electron integrals computed using PRISM.
 NBasis=   180 RedAO= T  NBF=   180
 NBsUse=   180 1.00D-06 NBFU=   180
 Harris functional with IExCor=  402 diagonalized for initial guess.
 ExpMin= 7.10D-03 ExpMax= 3.53D+04 ExpMxC= 5.30D+03 IAcc=3 IRadAn=         5 AccDes= 0.00D+00
 HarFok:  IExCor= 402 AccDes= 0.00D+00 IRadAn=         5 IDoV=1
 ScaDFX=  1.000000  1.000000  1.000000  1.000000
 Initial guess orbital symmetries:
       Occupied  (A) (A) (A) (A) (A) (A) (A) (A) (A) (A) (A) (A)
                 (A) (A) (A) (A) (A) (A) (A) (A) (A) (A) (A) (A)
                 (A) (A) (A) (A) (A) (A) (A) (A) (A) (A) (A) (A)
                 (A) (A) (A) (A) (A) (A) (A) (A) (A) (A) (A) (A)
                 (A) (A) (A) (A) (A)
       Virtual   (A) (A) (A) (A) (A) (A) (A) (A) (A) (A) (A) (A)
                 (A) (A) (A) (A) (A) (A) (A) (A) (A) (A) (A) (A)
                 (A) (A) (A) (A) (A) (A) (A) (A) (A) (A) (A) (A)
                 (A) (A) (A) (A) (A) (A) (A) (A) (A) (A) (A) (A)
                 (A) (A) (A) (A) (A) (A) (A) (A) (A) (A) (A) (A)
                 (A) (A) (A) (A) (A) (A) (A) (A) (A) (A) (A) (A)
                 (A) (A) (A) (A) (A) (A) (A) (A) (A) (A) (A) (A)
                 (A) (A) (A) (A) (A) (A) (A) (A) (A) (A) (A) (A)
                 (A) (A) (A) (A) (A) (A) (A) (A) (A) (A) (A) (A)
                 (A) (A) (A) (A) (A) (A) (A) (A) (A) (A) (A) (A)
                 (A) (A) (A) (A) (A) (A) (A)
 The electronic state of the initial guess is 1-A.
 Requested convergence on RMS density matrix=1.00D-04 within 128 cycles.
 Requested convergence on MAX density matrix=1.00D-02.
 Requested convergence on             energy=1.00D-02.
 No special actions if energy rises.
 EnCoef did     1 forward-backward iterations
 SCF Done:  E(RB+HF-LYP) =  -2675.07103994     A.U. after    8 cycles
             Convg  =    0.8421D-04             -V/T =  2.0028
             S**2   =   0.0000

 **********************************************************************

            Population analysis using the SCF density.

 **********************************************************************

 Orbital symmetries:
       Occupied  (A) (A) (A) (A) (A) (A) (A) (A) (A) (A) (A) (A)
                 (A) (A) (A) (A) (A) (A) (A) (A) (A) (A) (A) (A)
                 (A) (A) (A) (A) (A) (A) (A) (A) (A) (A) (A) (A)
                 (A) (A) (A) (A) (A) (A) (A) (A) (A) (A) (A) (A)
                 (A) (A) (A) (A) (A)
       Virtual   (A) (A) (A) (A) (A) (A) (A) (A) (A) (A) (A) (A)
                 (A) (A) (A) (A) (A) (A) (A) (A) (A) (A) (A) (A)
                 (A) (A) (A) (A) (A) (A) (A) (A) (A) (A) (A) (A)
                 (A) (A) (A) (A) (A) (A) (A) (A) (A) (A) (A) (A)
                 (A) (A) (A) (A) (A) (A) (A) (A) (A) (A) (A) (A)
                 (A) (A) (A) (A) (A) (A) (A) (A) (A) (A) (A) (A)
                 (A) (A) (A) (A) (A) (A) (A) (A) (A) (A) (A) (A)
                 (A) (A) (A) (A) (A) (A) (A) (A) (A) (A) (A) (A)
                 (A) (A) (A) (A) (A) (A) (A) (A) (A) (A) (A) (A)
                 (A) (A) (A) (A) (A) (A) (A) (A) (A) (A) (A) (A)
                 (A) (A) (A) (A) (A) (A) (A)
 The electronic state is 1-A.
 Alpha  occ. eigenvalues -- -145.49647-145.49638-145.49635 -77.25054 -19.21225
 Alpha  occ. eigenvalues --  -19.21224 -19.21223 -19.15949 -15.56481 -15.56472
 Alpha  occ. eigenvalues --  -15.56470 -12.69679 -12.69670 -12.69670 -12.69657
 Alpha  occ. eigenvalues --  -12.69648 -12.69646 -12.69610 -12.69600 -12.69600
 Alpha  occ. eigenvalues --   -6.70084  -4.86432  -4.86432  -4.85896  -1.93826
 Alpha  occ. eigenvalues --   -1.93744  -1.93739  -1.22379  -1.21699  -1.21696
 Alpha  occ. eigenvalues --   -1.21309  -1.21142  -1.21068  -1.21065  -1.20647
 Alpha  occ. eigenvalues --   -1.20642  -1.06760  -1.00356  -1.00355  -0.90945
 Alpha  occ. eigenvalues --   -0.62641  -0.50527  -0.50527  -0.47961  -0.43358
 Alpha  occ. eigenvalues --   -0.43357  -0.38343  -0.38342  -0.38176  -0.36140
 Alpha  occ. eigenvalues --   -0.36139  -0.34595  -0.30859
 Alpha virt. eigenvalues --   -0.19951  -0.18029  -0.18026  -0.12556  -0.12554
 Alpha virt. eigenvalues --   -0.10895  -0.09479  -0.09477  -0.08339  -0.07773
 Alpha virt. eigenvalues --   -0.06546  -0.06115  -0.06114  -0.04765  -0.04715
 Alpha virt. eigenvalues --   -0.04715  -0.04673  -0.04474  -0.04472  -0.04004
 Alpha virt. eigenvalues --   -0.04003  -0.03232  -0.02944  -0.02942  -0.02359
 Alpha virt. eigenvalues --   -0.02356  -0.00867   0.01027   0.02175   0.02616
 Alpha virt. eigenvalues --    0.02617   0.04573   0.04575   0.05227   0.06003
 Alpha virt. eigenvalues --    0.06004   0.06293   0.06294   0.07289   0.07292
 Alpha virt. eigenvalues --    0.07382   0.07663   0.07664   0.07821   0.08466
 Alpha virt. eigenvalues --    0.10682   0.10687   0.11332   0.11802   0.13655
 Alpha virt. eigenvalues --    0.15678   0.15679   0.19889   0.19891   0.20365
 Alpha virt. eigenvalues --    0.22082   0.22088   0.23483   0.23990   0.25316
 Alpha virt. eigenvalues --    0.25955   0.25963   0.30034   0.31447   0.31450
 Alpha virt. eigenvalues --    0.35744   0.35998   0.36004   0.37861   0.39081
 Alpha virt. eigenvalues --    0.39082   0.39777   0.45825   0.45829   0.53628
 Alpha virt. eigenvalues --    0.53629   0.55848   0.63366   0.63371   0.67681
 Alpha virt. eigenvalues --    0.82892   0.86939   0.86961   0.94101   0.94109
 Alpha virt. eigenvalues --    1.14550   1.16753   1.16753   1.18030   1.20771
 Alpha virt. eigenvalues --    1.21969   1.21976   1.23405   1.23406   1.28212
 Alpha virt. eigenvalues --    1.34155   1.34172   1.36427   1.54461   1.54464
 Alpha virt. eigenvalues --    1.57769   1.68371   1.71621   1.73144   1.73147
 Alpha virt. eigenvalues --    1.77481   1.77482   1.87074   1.87363   1.87365
 Alpha virt. eigenvalues --    1.88067   1.92075   1.92076   1.93328   1.98431
 Alpha virt. eigenvalues --    1.98438   2.03009   2.03015   2.14770   2.38173
 Alpha virt. eigenvalues --    2.55157   2.55161   3.54376   4.05613   4.14279
 Alpha virt. eigenvalues --    4.14280   4.31209
          Condensed to atoms (all electrons):
              1          2          3          4          5          6
     1  O    8.965901   0.058597   0.023949   0.058692  -0.200834   0.006240
     2  O    0.058597   8.965918   0.023955   0.058695  -0.200850   0.059862
     3  O    0.023949   0.023955   8.852918   0.023978  -0.039943   0.122083
     4  O    0.058692   0.058695   0.023978   8.965887  -0.200893   0.059846
     5  P   -0.200834  -0.200850  -0.039943  -0.200893  14.443014   0.033816
     6  Ca   0.006240   0.059862   0.122083   0.059846   0.033816  18.396957
     7  Ca   0.059832   0.059833   0.122163   0.006193   0.033766  -0.047573
     8  Ca   0.059865   0.006240   0.122086   0.059843   0.033818  -0.047736
              7          8
     1  O    0.059832   0.059865
     2  O    0.059833   0.006240
     3  O    0.122163   0.122086
     4  O    0.006193   0.059843
     5  P    0.033766   0.033818
     6  Ca  -0.047573  -0.047736
     7  Ca  18.396559  -0.047570
     8  Ca  -0.047570  18.396945
 Mulliken atomic charges:
              1
     1  O   -1.032241
     2  O   -1.032250
     3  O   -1.251188
     4  O   -1.032241
     5  P    1.098107
     6  Ca   1.416506
     7  Ca   1.416797
     8  Ca   1.416510
 Sum of Mulliken charges=   1.00000
 Atomic charges with hydrogens summed into heavy atoms:
              1
     1  O   -1.032241
     2  O   -1.032250
     3  O   -1.251188
     4  O   -1.032241
     5  P    1.098107
     6  Ca   1.416506
     7  Ca   1.416797
     8  Ca   1.416510
 Sum of Mulliken charges=   1.00000
 Electronic spatial extent (au):  <R**2>=  1510.1904
 Charge=     1.0000 electrons
 Dipole moment (field-independent basis, Debye):
    X=    -0.0120    Y=    -0.0005    Z=    -8.2309  Tot=     8.2309
 Quadrupole moment (field-independent basis, Debye-Ang):
   XX=   -40.0218   YY=   -40.0387   ZZ=   -90.0185
   XY=     0.0002   XZ=    -0.0462   YZ=    -0.0019
 Traceless Quadrupole moment (field-independent basis, Debye-Ang):
   XX=    16.6712   YY=    16.6543   ZZ=   -33.3255
   XY=     0.0002   XZ=    -0.0462   YZ=    -0.0019
 Octapole moment (field-independent basis, Debye-Ang**2):
  XXX=   -58.7000  YYY=     3.1520  ZZZ=    -1.6940  XYY=    58.4581
  XXY=    -3.1625  XXZ=   -46.6330  XZZ=     0.0841  YZZ=     0.0034
  YYZ=   -46.7295  XYZ=     0.0006
 Hexadecapole moment (field-independent basis, Debye-Ang**3):
 XXXX=  -415.9508 YYYY=  -416.0257 ZZZZ=  -721.8379 XXXY=     0.0042
 XXXZ=    15.2402 YYYX=    -0.0026 YYYZ=    -0.8398 ZZZX=    -0.2209
 ZZZY=    -0.0092 XXYY=  -138.7088 XXZZ=  -187.6353 YYZZ=  -187.5815
 XXYZ=     0.8301 YYXZ=   -15.4754 ZZXY=    -0.0001
 N-N= 9.526878363046D+02 E-N=-8.229852195203D+03  KE= 2.667694643138D+03
 Merz-Kollman atomic radii used.
 Read replacement radii for each type of atom:
 Rad(20) =   1.188000000000D+00
 Atom Element Radius
    1     8    1.40
    2     8    1.40
    3     8    1.40
    4     8    1.40
    5    15    1.80
    6    20    1.19
    7    20    1.19
    8    20    1.19

 **********************************************************************

            Electrostatic Properties Using The SCF Density

 **********************************************************************

       Atomic Center    1 is at  -0.716043 -1.295451  0.923290
       Atomic Center    2 is at  -0.762165  1.268924  0.923220
       Atomic Center    3 is at  -0.001931 -0.000076 -1.712120
       Atomic Center    4 is at   1.481627  0.026666  0.921060
       Atomic Center    5 is at   0.001890  0.000084  1.718210
       Atomic Center    6 is at   0.941900  1.702243 -0.571150
       Atomic Center    7 is at  -1.946419 -0.035018 -0.568610
       Atomic Center    8 is at   1.002506 -1.667313 -0.571080
     676 points will be used for fitting atomic charges
 Fitting point charges to eletrostatic potential
 Charges from ESP fit, RMS=   0.00610 RRMS=   0.03740:
 Charge=   1.00000 Dipole=    -0.0267    -0.0068    -8.4156 Tot=     8.4157
              1
     1  O   -0.947754
     2  O   -0.944990
     3  O   -1.635948
     4  O   -0.950956
     5  P    0.522300
     6  Ca   1.651646
     7  Ca   1.651206
     8  Ca   1.654495
 -----------------------------------------------------------------

              Electrostatic Properties (Atomic Units)

 -----------------------------------------------------------------
    Center     Electric         -------- Electric Field --------
               Potential          X             Y             Z
 -----------------------------------------------------------------
    1 Atom    -22.251276
    2 Atom    -22.251278
    3 Atom    -22.291068
    4 Atom    -22.251283
    5 Atom    -53.968030
    6 Atom    -80.043315
    7 Atom    -80.043216
    8 Atom    -80.043312
 -----------------------------------------------------------------
 1\1\GINC-N022\SP\RB3LYP\6-31+G(d,p)\Ca3O4P1(1+)\TIMN\12-Jun-2015\0\\# 
 b3lyp/6-31+G(d,p) int=ultrafine pop=(ReadRadii,MK)\\Ca3PO4_148.mol2c_p
 lusQ.z51152.zip.xyz\\1,1\O,0,-0.70576,-1.30108,0.92329\O,0,-0.77219,1.
 26285,0.92322\O,0,-0.00193,-0.00009,-1.71212\O,0,1.48137,0.0384,0.9210
 6\P,0,0.00189,0.0001,1.71821\Ca,0,0.92839,1.70965,-0.57115\Ca,0,-1.946
 08,-0.05043,-0.56861\Ca,0,1.01568,-1.65932,-0.57108\\Version=EM64T-G03
 RevE.01\State=1-A\HF=-2675.0710399\RMSD=8.421e-05\Thermal=0.\Dipole=-0
 .004717,-0.0002517,-3.2382869\PG=C01 [X(Ca3O4P1)]\\@


 THE BEST WAY TO CONVINCE A FOOL THAT HE IS WRONG 
 IS TO LET HIM HAVE HIS OWN WAY.

                                         JOSH BILLINGS
 Job cpu time:  0 days  0 hours  1 minutes 42.5 seconds.
 File lengths (MBytes):  RWF=     32 Int=      0 D2E=      0 Chk=     11 Scr=      1
 Normal termination of Gaussian 03 at Fri Jun 12 17:37:56 2015.
