 Entering Gaussian System, Link 0=/home/timn/tmp/g03.e01/g03
 Input=Ca3PO4_209.mol2c_plusQc.z51694.zip.xyz.gjf
 Output=Ca3PO4_209.mol2c_plusQc.z51694.zip.xyz.out
 Initial command:
 /home/timn/tmp/g03.e01/l1.exe /home/timn/tmp/g03.e01/Gau-13636.inp -scrdir=/home/timn/tmp/g03.e01/
 Default is to use a total of   2 processors:
                                2 via shared-memory
                                1 via Linda
 Entering Link 1 = /home/timn/tmp/g03.e01/l1.exe PID=     13637.
  
 Copyright (c) 1988,1990,1992,1993,1995,1998,2003,2004,2007, Gaussian, Inc.
                  All Rights Reserved.
  
 This is the Gaussian(R) 03 program.  It is based on the
 the Gaussian(R) 98 system (copyright 1998, Gaussian, Inc.),
 the Gaussian(R) 94 system (copyright 1995, Gaussian, Inc.),
 the Gaussian 92(TM) system (copyright 1992, Gaussian, Inc.),
 the Gaussian 90(TM) system (copyright 1990, Gaussian, Inc.),
 the Gaussian 88(TM) system (copyright 1988, Gaussian, Inc.),
 the Gaussian 86(TM) system (copyright 1986, Carnegie Mellon
 University), and the Gaussian 82(TM) system (copyright 1983,
 Carnegie Mellon University). Gaussian is a federally registered
 trademark of Gaussian, Inc.
  
 This software contains proprietary and confidential information,
 including trade secrets, belonging to Gaussian, Inc.
  
 This software is provided under written license and may be
 used, copied, transmitted, or stored only in accord with that
 written license.
  
 The following legend is applicable only to US Government
 contracts under FAR:
  
                    RESTRICTED RIGHTS LEGEND
  
 Use, reproduction and disclosure by the US Government is
 subject to restrictions as set forth in subparagraphs (a)
 and (c) of the Commercial Computer Software - Restricted
 Rights clause in FAR 52.227-19.
  
 Gaussian, Inc.
 340 Quinnipiac St., Bldg. 40, Wallingford CT 06492
  
  
 ---------------------------------------------------------------
 Warning -- This program may not be used in any manner that
 competes with the business of Gaussian, Inc. or will provide
 assistance to any competitor of Gaussian, Inc.  The licensee
 of this program is prohibited from giving any competitor of
 Gaussian, Inc. access to this program.  By using this program,
 the user acknowledges that Gaussian, Inc. is engaged in the
 business of creating and licensing software in the field of
 computational chemistry and represents and warrants to the
 licensee that it is not a competitor of Gaussian, Inc. and that
 it will not use this program in any manner prohibited above.
 ---------------------------------------------------------------
  

 Cite this work as:
 Gaussian 03, Revision E.01,
 M. J. Frisch, G. W. Trucks, H. B. Schlegel, G. E. Scuseria, 
 M. A. Robb, J. R. Cheeseman, J. A. Montgomery, Jr., T. Vreven, 
 K. N. Kudin, J. C. Burant, J. M. Millam, S. S. Iyengar, J. Tomasi, 
 V. Barone, B. Mennucci, M. Cossi, G. Scalmani, N. Rega, 
 G. A. Petersson, H. Nakatsuji, M. Hada, M. Ehara, K. Toyota, 
 R. Fukuda, J. Hasegawa, M. Ishida, T. Nakajima, Y. Honda, O. Kitao, 
 H. Nakai, M. Klene, X. Li, J. E. Knox, H. P. Hratchian, J. B. Cross, 
 V. Bakken, C. Adamo, J. Jaramillo, R. Gomperts, R. E. Stratmann, 
 O. Yazyev, A. J. Austin, R. Cammi, C. Pomelli, J. W. Ochterski, 
 P. Y. Ayala, K. Morokuma, G. A. Voth, P. Salvador, J. J. Dannenberg, 
 V. G. Zakrzewski, S. Dapprich, A. D. Daniels, M. C. Strain, 
 O. Farkas, D. K. Malick, A. D. Rabuck, K. Raghavachari, 
 J. B. Foresman, J. V. Ortiz, Q. Cui, A. G. Baboul, S. Clifford, 
 J. Cioslowski, B. B. Stefanov, G. Liu, A. Liashenko, P. Piskorz, 
 I. Komaromi, R. L. Martin, D. J. Fox, T. Keith, M. A. Al-Laham, 
 C. Y. Peng, A. Nanayakkara, M. Challacombe, P. M. W. Gill, 
 B. Johnson, W. Chen, M. W. Wong, C. Gonzalez, and J. A. Pople, 
 Gaussian, Inc., Wallingford CT, 2004.
 
 ******************************************
 Gaussian 03:  EM64T-G03RevE.01 11-Sep-2007
                12-Jun-2015 
 ******************************************
 %nproc=2
 Will use up to    2 processors via shared memory.
 Default route:  MP2=Direct MaxDisk=2000MB
 ----------------------------------------------------
 # b3lyp/6-31+G(d,p) int=ultrafine pop=(ReadRadii,MK)
 ----------------------------------------------------

 Warning!  SCF SP cutoffs with diffuse functions may be unreliable.
 Consider SCF=Tight

 1/38=1/1;
 2/17=6,18=5,40=1/2;
 3/5=1,6=6,7=111,11=2,16=1,25=1,30=1,74=-5,75=5/1,2,3;
 4//1;
 5/5=2,32=1,38=5/2;
 6/7=2,8=2,9=2,10=2,15=8,20=101,28=1/1,2;
 99/5=1,9=1/99;
 --------------------------------------
 Ca3PO4_209.mol2c_plusQc.z51694.zip.xyz
 --------------------------------------
 Symbolic Z-matrix:
 Charge =  1 Multiplicity = 1
 O                    -1.55662  -1.02495  -0.00103 
 O                     2.96288  -1.32804  -0.00444 
 O                    -3.36028   0.66579  -0.00231 
 O                     0.88834   0.95805   0.00562 
 P                    -3.11221  -0.85321  -0.00301 
 Ca                    3.13975   0.79418  -0.00294 
 Ca                   -1.18495   1.56011   0.00158 
 Ca                    0.80563  -1.42272   0.00448 
 
                          Input orientation:                          
 ---------------------------------------------------------------------
 Center     Atomic     Atomic              Coordinates (Angstroms)
 Number     Number      Type              X           Y           Z
 ---------------------------------------------------------------------
    1          8             0       -1.556620   -1.024950   -0.001030
    2          8             0        2.962880   -1.328040   -0.004440
    3          8             0       -3.360280    0.665790   -0.002310
    4          8             0        0.888340    0.958050    0.005620
    5         15             0       -3.112210   -0.853210   -0.003010
    6         20             0        3.139750    0.794180   -0.002940
    7         20             0       -1.184950    1.560110    0.001580
    8         20             0        0.805630   -1.422720    0.004480
 ---------------------------------------------------------------------
                    Distance matrix (angstroms):
                    1          2          3          4          5
     1  O    0.000000
     2  O    4.529653   0.000000
     3  O    2.472204   6.630061   0.000000
     4  O    3.148041   3.087074   4.258668   0.000000
     5  P    1.565043   6.093618   1.539123   4.391485   0.000000
     6  Ca   5.036381   2.129578   6.501298   2.257382   6.465361
     7  Ca   2.611643   5.054299   2.351996   2.158940   3.088441
     8  Ca   2.395512   2.159345   4.660121   2.382207   3.959024
                    6          7          8
     6  Ca   0.000000
     7  Ca   4.392004   0.000000
     8  Ca   3.219133   3.586041   0.000000
 Stoichiometry    Ca3O4P(1+)
 Framework group  C1[X(Ca3O4P)]
 Deg. of freedom    18
 Full point group                 C1
 Largest Abelian subgroup         C1      NOp   1
 Largest concise Abelian subgroup C1      NOp   1
                         Standard orientation:                         
 ---------------------------------------------------------------------
 Center     Atomic     Atomic              Coordinates (Angstroms)
 Number     Number      Type              X           Y           Z
 ---------------------------------------------------------------------
    1          8             0       -1.556620   -1.024950   -0.001030
    2          8             0        2.962880   -1.328041   -0.004440
    3          8             0       -3.360280    0.665790   -0.002310
    4          8             0        0.888340    0.958049    0.005620
    5         15             0       -3.112210   -0.853210   -0.003010
    6         20             0        3.139750    0.794179   -0.002940
    7         20             0       -1.184950    1.560110    0.001580
    8         20             0        0.805630   -1.422721    0.004480
 ---------------------------------------------------------------------
 Rotational constants (GHZ):      1.7267006      0.4400827      0.3507013
 Standard basis: 6-31+G(d,p) (6D, 7F)
 There are   180 symmetry adapted basis functions of A   symmetry.
 Integral buffers will be    131072 words long.
 Raffenetti 2 integral format.
 Two-electron integral symmetry is turned on.
   180 basis functions,   424 primitive gaussians,   180 cartesian basis functions
    53 alpha electrons       53 beta electrons
       nuclear repulsion energy       811.4634823740 Hartrees.
 NAtoms=    8 NActive=    8 NUniq=    8 SFac= 7.50D-01 NAtFMM=   80 NAOKFM=F Big=F
 One-electron integrals computed using PRISM.
 NBasis=   180 RedAO= T  NBF=   180
 NBsUse=   180 1.00D-06 NBFU=   180
 Harris functional with IExCor=  402 diagonalized for initial guess.
 ExpMin= 7.10D-03 ExpMax= 3.53D+04 ExpMxC= 5.30D+03 IAcc=3 IRadAn=         5 AccDes= 0.00D+00
 HarFok:  IExCor= 402 AccDes= 0.00D+00 IRadAn=         5 IDoV=1
 ScaDFX=  1.000000  1.000000  1.000000  1.000000
 Initial guess orbital symmetries:
       Occupied  (A) (A) (A) (A) (A) (A) (A) (A) (A) (A) (A) (A)
                 (A) (A) (A) (A) (A) (A) (A) (A) (A) (A) (A) (A)
                 (A) (A) (A) (A) (A) (A) (A) (A) (A) (A) (A) (A)
                 (A) (A) (A) (A) (A) (A) (A) (A) (A) (A) (A) (A)
                 (A) (A) (A) (A) (A)
       Virtual   (A) (A) (A) (A) (A) (A) (A) (A) (A) (A) (A) (A)
                 (A) (A) (A) (A) (A) (A) (A) (A) (A) (A) (A) (A)
                 (A) (A) (A) (A) (A) (A) (A) (A) (A) (A) (A) (A)
                 (A) (A) (A) (A) (A) (A) (A) (A) (A) (A) (A) (A)
                 (A) (A) (A) (A) (A) (A) (A) (A) (A) (A) (A) (A)
                 (A) (A) (A) (A) (A) (A) (A) (A) (A) (A) (A) (A)
                 (A) (A) (A) (A) (A) (A) (A) (A) (A) (A) (A) (A)
                 (A) (A) (A) (A) (A) (A) (A) (A) (A) (A) (A) (A)
                 (A) (A) (A) (A) (A) (A) (A) (A) (A) (A) (A) (A)
                 (A) (A) (A) (A) (A) (A) (A) (A) (A) (A) (A) (A)
                 (A) (A) (A) (A) (A) (A) (A)
 The electronic state of the initial guess is 1-A.
 Requested convergence on RMS density matrix=1.00D-04 within 128 cycles.
 Requested convergence on MAX density matrix=1.00D-02.
 Requested convergence on             energy=1.00D-02.
 No special actions if energy rises.
 EnCoef did     3 forward-backward iterations
 EnCoef did   100 forward-backward iterations
 EnCoef did     4 forward-backward iterations
 EnCoef did     3 forward-backward iterations
 SCF Done:  E(RB+HF-LYP) =  -2675.00690754     A.U. after   10 cycles
             Convg  =    0.5442D-04             -V/T =  2.0027
             S**2   =   0.0000

 **********************************************************************

            Population analysis using the SCF density.

 **********************************************************************

 Orbital symmetries:
       Occupied  (A) (A) (A) (A) (A) (A) (A) (A) (A) (A) (A) (A)
                 (A) (A) (A) (A) (A) (A) (A) (A) (A) (A) (A) (A)
                 (A) (A) (A) (A) (A) (A) (A) (A) (A) (A) (A) (A)
                 (A) (A) (A) (A) (A) (A) (A) (A) (A) (A) (A) (A)
                 (A) (A) (A) (A) (A)
       Virtual   (A) (A) (A) (A) (A) (A) (A) (A) (A) (A) (A) (A)
                 (A) (A) (A) (A) (A) (A) (A) (A) (A) (A) (A) (A)
                 (A) (A) (A) (A) (A) (A) (A) (A) (A) (A) (A) (A)
                 (A) (A) (A) (A) (A) (A) (A) (A) (A) (A) (A) (A)
                 (A) (A) (A) (A) (A) (A) (A) (A) (A) (A) (A) (A)
                 (A) (A) (A) (A) (A) (A) (A) (A) (A) (A) (A) (A)
                 (A) (A) (A) (A) (A) (A) (A) (A) (A) (A) (A) (A)
                 (A) (A) (A) (A) (A) (A) (A) (A) (A) (A) (A) (A)
                 (A) (A) (A) (A) (A) (A) (A) (A) (A) (A) (A) (A)
                 (A) (A) (A) (A) (A) (A) (A) (A) (A) (A) (A) (A)
                 (A) (A) (A) (A) (A) (A) (A)
 The electronic state is 1-A.
 Alpha  occ. eigenvalues -- -145.52323-145.46906-145.45471 -77.31230 -19.29501
 Alpha  occ. eigenvalues --  -19.28799 -19.16942 -19.10397 -15.59227 -15.53806
 Alpha  occ. eigenvalues --  -15.52397 -12.72492 -12.72448 -12.72248 -12.67048
 Alpha  occ. eigenvalues --  -12.66963 -12.66885 -12.65667 -12.65576 -12.65441
 Alpha  occ. eigenvalues --   -6.76845  -4.93279  -4.93047  -4.92631  -1.96467
 Alpha  occ. eigenvalues --   -1.91103  -1.89809  -1.24398  -1.24387  -1.23350
 Alpha  occ. eigenvalues --   -1.18976  -1.18730  -1.18076  -1.17861  -1.17277
 Alpha  occ. eigenvalues --   -1.17047  -1.15047  -1.09396  -0.91688  -0.84372
 Alpha  occ. eigenvalues --   -0.68448  -0.57424  -0.54758  -0.54074  -0.46498
 Alpha  occ. eigenvalues --   -0.45047  -0.42639  -0.37796  -0.36742  -0.35751
 Alpha  occ. eigenvalues --   -0.29931  -0.28483  -0.28165
 Alpha virt. eigenvalues --   -0.21229  -0.20113  -0.17847  -0.15063  -0.12987
 Alpha virt. eigenvalues --   -0.11123  -0.10413  -0.10236  -0.09289  -0.08835
 Alpha virt. eigenvalues --   -0.08417  -0.07230  -0.06842  -0.06416  -0.05451
 Alpha virt. eigenvalues --   -0.05198  -0.04869  -0.04494  -0.04408  -0.04120
 Alpha virt. eigenvalues --   -0.03947  -0.03919  -0.03796  -0.03178  -0.02924
 Alpha virt. eigenvalues --   -0.02909  -0.02804  -0.01939  -0.00580   0.01374
 Alpha virt. eigenvalues --    0.02640   0.03157   0.03251   0.03720   0.04809
 Alpha virt. eigenvalues --    0.05122   0.05813   0.06143   0.06341   0.06503
 Alpha virt. eigenvalues --    0.06690   0.07425   0.07872   0.09134   0.09496
 Alpha virt. eigenvalues --    0.10241   0.10928   0.11073   0.11589   0.12021
 Alpha virt. eigenvalues --    0.14043   0.15088   0.15388   0.16862   0.17978
 Alpha virt. eigenvalues --    0.18857   0.19600   0.21227   0.21550   0.23911
 Alpha virt. eigenvalues --    0.24323   0.26753   0.27289   0.28760   0.28808
 Alpha virt. eigenvalues --    0.30760   0.31778   0.32096   0.34013   0.36418
 Alpha virt. eigenvalues --    0.38799   0.40438   0.42642   0.46040   0.46352
 Alpha virt. eigenvalues --    0.51394   0.54163   0.56321   0.60098   0.61236
 Alpha virt. eigenvalues --    0.63569   0.82588   0.87254   0.94492   1.04817
 Alpha virt. eigenvalues --    1.07408   1.09903   1.10889   1.13128   1.15601
 Alpha virt. eigenvalues --    1.18056   1.18468   1.18776   1.20877   1.24897
 Alpha virt. eigenvalues --    1.26227   1.33168   1.34407   1.40529   1.44287
 Alpha virt. eigenvalues --    1.54789   1.63069   1.63798   1.66225   1.69788
 Alpha virt. eigenvalues --    1.73075   1.77885   1.78787   1.80278   1.82511
 Alpha virt. eigenvalues --    1.86365   1.87129   1.87326   1.88642   1.88735
 Alpha virt. eigenvalues --    1.94816   1.99619   2.01781   2.05590   2.18389
 Alpha virt. eigenvalues --    2.51166   2.67822   3.38941   3.86677   3.88452
 Alpha virt. eigenvalues --    3.94348   4.05843
          Condensed to atoms (all electrons):
              1          2          3          4          5          6
     1  O    8.926471  -0.003695  -0.079366  -0.015407  -0.138518   0.005249
     2  O   -0.003695   8.700573  -0.000002  -0.024969  -0.000321   0.226854
     3  O   -0.079366  -0.000002   8.557202  -0.000549   0.095139   0.001779
     4  O   -0.015407  -0.024969  -0.000549   9.038011  -0.010047   0.093118
     5  P   -0.138518  -0.000321   0.095139  -0.010047  14.404769  -0.012036
     6  Ca   0.005249   0.226854   0.001779   0.093118  -0.012036  18.380153
     7  Ca   0.018555  -0.003419   0.075283   0.195860  -0.020704  -0.012980
     8  Ca   0.029186   0.234196   0.005490   0.044150   0.003645  -0.027952
              7          8
     1  O    0.018555   0.029186
     2  O   -0.003419   0.234196
     3  O    0.075283   0.005490
     4  O    0.195860   0.044150
     5  P   -0.020704   0.003645
     6  Ca  -0.012980  -0.027952
     7  Ca  18.254747  -0.004930
     8  Ca  -0.004930  18.390854
 Mulliken atomic charges:
              1
     1  O   -0.742475
     2  O   -1.129218
     3  O   -0.654977
     4  O   -1.320166
     5  P    0.678072
     6  Ca   1.345814
     7  Ca   1.497588
     8  Ca   1.325361
 Sum of Mulliken charges=   1.00000
 Atomic charges with hydrogens summed into heavy atoms:
              1
     1  O   -0.742475
     2  O   -1.129218
     3  O   -0.654977
     4  O   -1.320166
     5  P    0.678072
     6  Ca   1.345814
     7  Ca   1.497588
     8  Ca   1.325361
 Sum of Mulliken charges=   1.00000
 Electronic spatial extent (au):  <R**2>=  2691.1718
 Charge=     1.0000 electrons
 Dipole moment (field-independent basis, Debye):
    X=    -0.1754    Y=     8.1226    Z=     0.0169  Tot=     8.1245
 Quadrupole moment (field-independent basis, Debye-Ang):
   XX=   -60.0495   YY=   -52.2323   ZZ=   -68.9683
   XY=    23.1606   XZ=    -0.0087   YZ=    -0.1191
 Traceless Quadrupole moment (field-independent basis, Debye-Ang):
   XX=     0.3672   YY=     8.1844   ZZ=    -8.5516
   XY=    23.1606   XZ=    -0.0087   YZ=    -0.1191
 Octapole moment (field-independent basis, Debye-Ang**2):
  XXX=   106.0373  YYY=    40.9167  ZZZ=     0.0490  XYY=   -23.7194
  XXY=   115.5697  XXZ=     0.0697  XZZ=    -0.4747  YZZ=     6.6570
  YYZ=     0.1248  XYZ=    -0.2871
 Hexadecapole moment (field-independent basis, Debye-Ang**3):
 XXXX= -2347.5375 YYYY=  -552.2832 ZZZZ=   -83.9744 XXXY=   514.2429
 XXXZ=    -0.1628 YYYX=    -5.6358 YYYZ=    -0.3979 ZZZX=    -0.0365
 ZZZY=    -0.2428 XXYY=  -553.3976 XXZZ=  -411.5415 YYZZ=  -114.4450
 XXYZ=    -0.5046 YYXZ=     0.0204 ZZXY=     8.4329
 N-N= 8.114634823740D+02 E-N=-7.947019805414D+03  KE= 2.667676029967D+03
 Merz-Kollman atomic radii used.
 Read replacement radii for each type of atom:
 Rad(20) =   1.188000000000D+00
 Atom Element Radius
    1     8    1.40
    2     8    1.40
    3     8    1.40
    4     8    1.40
    5    15    1.80
    6    20    1.19
    7    20    1.19
    8    20    1.19

 **********************************************************************

            Electrostatic Properties Using The SCF Density

 **********************************************************************

       Atomic Center    1 is at  -1.556620 -1.024950 -0.001030
       Atomic Center    2 is at   2.962880 -1.328041 -0.004440
       Atomic Center    3 is at  -3.360280  0.665790 -0.002310
       Atomic Center    4 is at   0.888340  0.958049  0.005620
       Atomic Center    5 is at  -3.112210 -0.853210 -0.003010
       Atomic Center    6 is at   3.139750  0.794179 -0.002940
       Atomic Center    7 is at  -1.184950  1.560110  0.001580
       Atomic Center    8 is at   0.805630 -1.422721  0.004480
     814 points will be used for fitting atomic charges
 Fitting point charges to eletrostatic potential
 Charges from ESP fit, RMS=   0.00584 RRMS=   0.03916:
 Charge=   1.00000 Dipole=     0.2553     8.4183     0.0139 Tot=     8.4222
              1
     1  O   -0.736601
     2  O   -1.483039
     3  O   -0.644228
     4  O   -1.711634
     5  P    0.569254
     6  Ca   1.626846
     7  Ca   1.709285
     8  Ca   1.670117
 -----------------------------------------------------------------

              Electrostatic Properties (Atomic Units)

 -----------------------------------------------------------------
    Center     Electric         -------- Electric Field --------
               Potential          X             Y             Z
 -----------------------------------------------------------------
    1 Atom    -22.168033
    2 Atom    -22.361953
    3 Atom    -22.178880
    4 Atom    -22.290705
    5 Atom    -53.902885
    6 Atom    -80.074012
    7 Atom    -80.017188
    8 Atom    -80.086448
 -----------------------------------------------------------------
 1\1\GINC-N029\SP\RB3LYP\6-31+G(d,p)\Ca3O4P1(1+)\TIMN\12-Jun-2015\0\\# 
 b3lyp/6-31+G(d,p) int=ultrafine pop=(ReadRadii,MK)\\Ca3PO4_209.mol2c_p
 lusQc.z51694.zip.xyz\\1,1\O,0,-1.55662,-1.02495,-0.00103\O,0,2.96288,-
 1.32804,-0.00444\O,0,-3.36028,0.66579,-0.00231\O,0,0.88834,0.95805,0.0
 0562\P,0,-3.11221,-0.85321,-0.00301\Ca,0,3.13975,0.79418,-0.00294\Ca,0
 ,-1.18495,1.56011,0.00158\Ca,0,0.80563,-1.42272,0.00448\\Version=EM64T
 -G03RevE.01\State=1-A\HF=-2675.0069075\RMSD=5.442e-05\Thermal=0.\Dipol
 e=-0.0689909,3.1956753,0.0066675\PG=C01 [X(Ca3O4P1)]\\@


 THE FIRST MORNING OF CREATION WROTE WHAT THE LAST DAWN OF
 RECKONING SHALL READ. -- OMAR KHAYYAM
 Job cpu time:  0 days  0 hours  1 minutes 45.5 seconds.
 File lengths (MBytes):  RWF=     32 Int=      0 D2E=      0 Chk=     11 Scr=      1
 Normal termination of Gaussian 03 at Fri Jun 12 17:41:50 2015.
