 Entering Gaussian System, Link 0=/home/timn/tmp/g03.e01/g03
 Input=Ca3PO4_96.mol2cc_plusQ.z51514.zip.xyz.gjf
 Output=Ca3PO4_96.mol2cc_plusQ.z51514.zip.xyz.out
 Initial command:
 /home/timn/tmp/g03.e01/l1.exe /home/timn/tmp/g03.e01/Gau-19499.inp -scrdir=/home/timn/tmp/g03.e01/
 Default is to use a total of   2 processors:
                                2 via shared-memory
                                1 via Linda
 Entering Link 1 = /home/timn/tmp/g03.e01/l1.exe PID=     19500.
  
 Copyright (c) 1988,1990,1992,1993,1995,1998,2003,2004,2007, Gaussian, Inc.
                  All Rights Reserved.
  
 This is the Gaussian(R) 03 program.  It is based on the
 the Gaussian(R) 98 system (copyright 1998, Gaussian, Inc.),
 the Gaussian(R) 94 system (copyright 1995, Gaussian, Inc.),
 the Gaussian 92(TM) system (copyright 1992, Gaussian, Inc.),
 the Gaussian 90(TM) system (copyright 1990, Gaussian, Inc.),
 the Gaussian 88(TM) system (copyright 1988, Gaussian, Inc.),
 the Gaussian 86(TM) system (copyright 1986, Carnegie Mellon
 University), and the Gaussian 82(TM) system (copyright 1983,
 Carnegie Mellon University). Gaussian is a federally registered
 trademark of Gaussian, Inc.
  
 This software contains proprietary and confidential information,
 including trade secrets, belonging to Gaussian, Inc.
  
 This software is provided under written license and may be
 used, copied, transmitted, or stored only in accord with that
 written license.
  
 The following legend is applicable only to US Government
 contracts under FAR:
  
                    RESTRICTED RIGHTS LEGEND
  
 Use, reproduction and disclosure by the US Government is
 subject to restrictions as set forth in subparagraphs (a)
 and (c) of the Commercial Computer Software - Restricted
 Rights clause in FAR 52.227-19.
  
 Gaussian, Inc.
 340 Quinnipiac St., Bldg. 40, Wallingford CT 06492
  
  
 ---------------------------------------------------------------
 Warning -- This program may not be used in any manner that
 competes with the business of Gaussian, Inc. or will provide
 assistance to any competitor of Gaussian, Inc.  The licensee
 of this program is prohibited from giving any competitor of
 Gaussian, Inc. access to this program.  By using this program,
 the user acknowledges that Gaussian, Inc. is engaged in the
 business of creating and licensing software in the field of
 computational chemistry and represents and warrants to the
 licensee that it is not a competitor of Gaussian, Inc. and that
 it will not use this program in any manner prohibited above.
 ---------------------------------------------------------------
  

 Cite this work as:
 Gaussian 03, Revision E.01,
 M. J. Frisch, G. W. Trucks, H. B. Schlegel, G. E. Scuseria, 
 M. A. Robb, J. R. Cheeseman, J. A. Montgomery, Jr., T. Vreven, 
 K. N. Kudin, J. C. Burant, J. M. Millam, S. S. Iyengar, J. Tomasi, 
 V. Barone, B. Mennucci, M. Cossi, G. Scalmani, N. Rega, 
 G. A. Petersson, H. Nakatsuji, M. Hada, M. Ehara, K. Toyota, 
 R. Fukuda, J. Hasegawa, M. Ishida, T. Nakajima, Y. Honda, O. Kitao, 
 H. Nakai, M. Klene, X. Li, J. E. Knox, H. P. Hratchian, J. B. Cross, 
 V. Bakken, C. Adamo, J. Jaramillo, R. Gomperts, R. E. Stratmann, 
 O. Yazyev, A. J. Austin, R. Cammi, C. Pomelli, J. W. Ochterski, 
 P. Y. Ayala, K. Morokuma, G. A. Voth, P. Salvador, J. J. Dannenberg, 
 V. G. Zakrzewski, S. Dapprich, A. D. Daniels, M. C. Strain, 
 O. Farkas, D. K. Malick, A. D. Rabuck, K. Raghavachari, 
 J. B. Foresman, J. V. Ortiz, Q. Cui, A. G. Baboul, S. Clifford, 
 J. Cioslowski, B. B. Stefanov, G. Liu, A. Liashenko, P. Piskorz, 
 I. Komaromi, R. L. Martin, D. J. Fox, T. Keith, M. A. Al-Laham, 
 C. Y. Peng, A. Nanayakkara, M. Challacombe, P. M. W. Gill, 
 B. Johnson, W. Chen, M. W. Wong, C. Gonzalez, and J. A. Pople, 
 Gaussian, Inc., Wallingford CT, 2004.
 
 ******************************************
 Gaussian 03:  EM64T-G03RevE.01 11-Sep-2007
                12-Jun-2015 
 ******************************************
 %nproc=2
 Will use up to    2 processors via shared memory.
 Default route:  MP2=Direct MaxDisk=2000MB
 ----------------------------------------------------
 # b3lyp/6-31+G(d,p) int=ultrafine pop=(ReadRadii,MK)
 ----------------------------------------------------

 Warning!  SCF SP cutoffs with diffuse functions may be unreliable.
 Consider SCF=Tight

 1/38=1/1;
 2/17=6,18=5,40=1/2;
 3/5=1,6=6,7=111,11=2,16=1,25=1,30=1,74=-5,75=5/1,2,3;
 4//1;
 5/5=2,32=1,38=5/2;
 6/7=2,8=2,9=2,10=2,15=8,20=101,28=1/1,2;
 99/5=1,9=1/99;
 -------------------------------------
 Ca3PO4_96.mol2cc_plusQ.z51514.zip.xyz
 -------------------------------------
 Symbolic Z-matrix:
 Charge =  1 Multiplicity = 1
 O                    -2.93237   0.       -0.51937 
 O                    -0.81818   1.27535   0.51466 
 O                    -0.81817  -1.27537   0.51463 
 O                     1.8146    0.00001   0.06376 
 P                    -1.44712   0.       -0.35695 
 Ca                    0.85675   1.75592  -0.94463 
 Ca                    0.85676  -1.75589  -0.94466 
 Ca                    0.47347  -0.00002   1.92753 
 
                          Input orientation:                          
 ---------------------------------------------------------------------
 Center     Atomic     Atomic              Coordinates (Angstroms)
 Number     Number      Type              X           Y           Z
 ---------------------------------------------------------------------
    1          8             0       -2.932370    0.000000   -0.519370
    2          8             0       -0.818180    1.275350    0.514660
    3          8             0       -0.818170   -1.275370    0.514630
    4          8             0        1.814600    0.000010    0.063760
    5         15             0       -1.447120    0.000000   -0.356950
    6         20             0        0.856750    1.755920   -0.944630
    7         20             0        0.856760   -1.755890   -0.944660
    8         20             0        0.473470   -0.000020    1.927530
 ---------------------------------------------------------------------
                    Distance matrix (angstroms):
                    1          2          3          4          5
     1  O    0.000000
     2  O    2.676852   0.000000
     3  O    2.676858   2.550720   0.000000
     4  O    4.782652   2.959955   2.959959   0.000000
     5  P    1.494104   1.667869   1.667872   3.288741   0.000000
     6  Ca   4.197801   2.272854   3.758127   2.239988   2.955747
     7  Ca   4.197800   3.758119   2.272843   2.239990   2.955743
     8  Ca   4.193694   2.300246   2.300247   2.296142   2.984546
                    6          7          8
     6  Ca   0.000000
     7  Ca   3.511810   0.000000
     8  Ca   3.388146   3.388136   0.000000
 Stoichiometry    Ca3O4P(1+)
 Framework group  C1[X(Ca3O4P)]
 Deg. of freedom    18
 Full point group                 C1
 Largest Abelian subgroup         C1      NOp   1
 Largest concise Abelian subgroup C1      NOp   1
                         Standard orientation:                         
 ---------------------------------------------------------------------
 Center     Atomic     Atomic              Coordinates (Angstroms)
 Number     Number      Type              X           Y           Z
 ---------------------------------------------------------------------
    1          8             0       -2.932369    0.000019   -0.519370
    2          8             0       -0.818170    1.275354    0.514660
    3          8             0       -0.818177   -1.275366    0.514630
    4          8             0        1.814601   -0.000003    0.063760
    5         15             0       -1.447119    0.000009   -0.356950
    6         20             0        0.856763    1.755913   -0.944630
    7         20             0        0.856750   -1.755897   -0.944660
    8         20             0        0.473471   -0.000024    1.927530
 ---------------------------------------------------------------------
 Rotational constants (GHZ):      0.9445427      0.8703012      0.7865092
 Standard basis: 6-31+G(d,p) (6D, 7F)
 There are   180 symmetry adapted basis functions of A   symmetry.
 Integral buffers will be    131072 words long.
 Raffenetti 2 integral format.
 Two-electron integral symmetry is turned on.
   180 basis functions,   424 primitive gaussians,   180 cartesian basis functions
    53 alpha electrons       53 beta electrons
       nuclear repulsion energy       918.5166130123 Hartrees.
 NAtoms=    8 NActive=    8 NUniq=    8 SFac= 7.50D-01 NAtFMM=   80 NAOKFM=F Big=F
 One-electron integrals computed using PRISM.
 NBasis=   180 RedAO= T  NBF=   180
 NBsUse=   180 1.00D-06 NBFU=   180
 Harris functional with IExCor=  402 diagonalized for initial guess.
 ExpMin= 7.10D-03 ExpMax= 3.53D+04 ExpMxC= 5.30D+03 IAcc=3 IRadAn=         5 AccDes= 0.00D+00
 HarFok:  IExCor= 402 AccDes= 0.00D+00 IRadAn=         5 IDoV=1
 ScaDFX=  1.000000  1.000000  1.000000  1.000000
 Initial guess orbital symmetries:
       Occupied  (A) (A) (A) (A) (A) (A) (A) (A) (A) (A) (A) (A)
                 (A) (A) (A) (A) (A) (A) (A) (A) (A) (A) (A) (A)
                 (A) (A) (A) (A) (A) (A) (A) (A) (A) (A) (A) (A)
                 (A) (A) (A) (A) (A) (A) (A) (A) (A) (A) (A) (A)
                 (A) (A) (A) (A) (A)
       Virtual   (A) (A) (A) (A) (A) (A) (A) (A) (A) (A) (A) (A)
                 (A) (A) (A) (A) (A) (A) (A) (A) (A) (A) (A) (A)
                 (A) (A) (A) (A) (A) (A) (A) (A) (A) (A) (A) (A)
                 (A) (A) (A) (A) (A) (A) (A) (A) (A) (A) (A) (A)
                 (A) (A) (A) (A) (A) (A) (A) (A) (A) (A) (A) (A)
                 (A) (A) (A) (A) (A) (A) (A) (A) (A) (A) (A) (A)
                 (A) (A) (A) (A) (A) (A) (A) (A) (A) (A) (A) (A)
                 (A) (A) (A) (A) (A) (A) (A) (A) (A) (A) (A) (A)
                 (A) (A) (A) (A) (A) (A) (A) (A) (A) (A) (A) (A)
                 (A) (A) (A) (A) (A) (A) (A) (A) (A) (A) (A) (A)
                 (A) (A) (A) (A) (A) (A) (A)
 The electronic state of the initial guess is 1-A.
 Requested convergence on RMS density matrix=1.00D-04 within 128 cycles.
 Requested convergence on MAX density matrix=1.00D-02.
 Requested convergence on             energy=1.00D-02.
 No special actions if energy rises.
 EnCoef did     4 forward-backward iterations
 EnCoef did     4 forward-backward iterations
 SCF Done:  E(RB+HF-LYP) =  -2674.98830438     A.U. after   11 cycles
             Convg  =    0.8886D-04             -V/T =  2.0028
             S**2   =   0.0000

 **********************************************************************

            Population analysis using the SCF density.

 **********************************************************************

 Orbital symmetries:
       Occupied  (A) (A) (A) (A) (A) (A) (A) (A) (A) (A) (A) (A)
                 (A) (A) (A) (A) (A) (A) (A) (A) (A) (A) (A) (A)
                 (A) (A) (A) (A) (A) (A) (A) (A) (A) (A) (A) (A)
                 (A) (A) (A) (A) (A) (A) (A) (A) (A) (A) (A) (A)
                 (A) (A) (A) (A) (A)
       Virtual   (A) (A) (A) (A) (A) (A) (A) (A) (A) (A) (A) (A)
                 (A) (A) (A) (A) (A) (A) (A) (A) (A) (A) (A) (A)
                 (A) (A) (A) (A) (A) (A) (A) (A) (A) (A) (A) (A)
                 (A) (A) (A) (A) (A) (A) (A) (A) (A) (A) (A) (A)
                 (A) (A) (A) (A) (A) (A) (A) (A) (A) (A) (A) (A)
                 (A) (A) (A) (A) (A) (A) (A) (A) (A) (A) (A) (A)
                 (A) (A) (A) (A) (A) (A) (A) (A) (A) (A) (A) (A)
                 (A) (A) (A) (A) (A) (A) (A) (A) (A) (A) (A) (A)
                 (A) (A) (A) (A) (A) (A) (A) (A) (A) (A) (A) (A)
                 (A) (A) (A) (A) (A) (A) (A) (A) (A) (A) (A) (A)
                 (A) (A) (A) (A) (A) (A) (A)
 The electronic state is 1-A.
 Alpha  occ. eigenvalues -- -145.52382-145.52381-145.50968 -77.26185 -19.22450
 Alpha  occ. eigenvalues --  -19.22450 -19.18533 -19.18178 -15.59234 -15.59234
 Alpha  occ. eigenvalues --  -15.57803 -12.72467 -12.72466 -12.72387 -12.72387
 Alpha  occ. eigenvalues --  -12.72353 -12.72353 -12.71001 -12.70970 -12.70944
 Alpha  occ. eigenvalues --   -6.71194  -4.87598  -4.87496  -4.87250  -1.96438
 Alpha  occ. eigenvalues --   -1.96403  -1.95063  -1.24371  -1.24184  -1.24077
 Alpha  occ. eigenvalues --   -1.23889  -1.23677  -1.23244  -1.22633  -1.22632
 Alpha  occ. eigenvalues --   -1.22130  -1.07843  -1.01762  -1.01204  -0.93035
 Alpha  occ. eigenvalues --   -0.61877  -0.51472  -0.49919  -0.48090  -0.43557
 Alpha  occ. eigenvalues --   -0.42348  -0.40117  -0.38571  -0.38447  -0.37929
 Alpha  occ. eigenvalues --   -0.35589  -0.35456  -0.29884
 Alpha virt. eigenvalues --   -0.21312  -0.20244  -0.19529  -0.14881  -0.13836
 Alpha virt. eigenvalues --   -0.12188  -0.11021  -0.10734  -0.09733  -0.09393
 Alpha virt. eigenvalues --   -0.07259  -0.07244  -0.06944  -0.05301  -0.05096
 Alpha virt. eigenvalues --   -0.05027  -0.04908  -0.04553  -0.04152  -0.04033
 Alpha virt. eigenvalues --   -0.03947  -0.03459  -0.03313  -0.03258  -0.02560
 Alpha virt. eigenvalues --   -0.01664  -0.01612  -0.00880   0.01498   0.01692
 Alpha virt. eigenvalues --    0.02268   0.02693   0.03185   0.03990   0.04254
 Alpha virt. eigenvalues --    0.04550   0.04881   0.05631   0.05727   0.06218
 Alpha virt. eigenvalues --    0.06317   0.06809   0.07641   0.07733   0.08761
 Alpha virt. eigenvalues --    0.09248   0.09494   0.10177   0.10759   0.13847
 Alpha virt. eigenvalues --    0.13904   0.15107   0.17896   0.19205   0.20006
 Alpha virt. eigenvalues --    0.20812   0.22083   0.22987   0.23337   0.24049
 Alpha virt. eigenvalues --    0.24914   0.26740   0.27474   0.29612   0.30714
 Alpha virt. eigenvalues --    0.30978   0.32291   0.34997   0.35117   0.36448
 Alpha virt. eigenvalues --    0.38601   0.40301   0.44788   0.45186   0.49152
 Alpha virt. eigenvalues --    0.50768   0.58797   0.61824   0.64258   0.65564
 Alpha virt. eigenvalues --    0.73414   0.82374   0.90902   0.91801   1.02303
 Alpha virt. eigenvalues --    1.07859   1.15907   1.17567   1.17916   1.19187
 Alpha virt. eigenvalues --    1.20361   1.20733   1.20909   1.24255   1.24659
 Alpha virt. eigenvalues --    1.28808   1.28907   1.30879   1.46547   1.52668
 Alpha virt. eigenvalues --    1.53159   1.64472   1.71256   1.72936   1.75904
 Alpha virt. eigenvalues --    1.76159   1.79175   1.80264   1.83039   1.84284
 Alpha virt. eigenvalues --    1.85102   1.89346   1.92178   1.94223   1.95077
 Alpha virt. eigenvalues --    1.99083   2.00367   2.14448   2.15240   2.40796
 Alpha virt. eigenvalues --    2.55152   2.84759   3.49237   3.98706   4.07649
 Alpha virt. eigenvalues --    4.13054   4.13689
          Condensed to atoms (all electrons):
              1          2          3          4          5          6
     1  O    8.628603   0.061336   0.061335   0.014672  -0.122561  -0.005528
     2  O    0.061336   9.649312   0.429619   0.169931  -1.643654   0.016169
     3  O    0.061335   0.429619   9.649308   0.169930  -1.643648  -0.034543
     4  O    0.014672   0.169931   0.169930   9.018230  -0.496906   0.087724
     5  P   -0.122561  -1.643654  -1.643648  -0.496906  18.389553   0.227201
     6  Ca  -0.005528   0.016169  -0.034543   0.087724   0.227201  18.379273
     7  Ca  -0.005527  -0.034543   0.016171   0.087724   0.227197   0.003246
     8  Ca   0.012309   0.027751   0.027751   0.086224   0.091867  -0.034274
              7          8
     1  O   -0.005527   0.012309
     2  O   -0.034543   0.027751
     3  O    0.016171   0.027751
     4  O    0.087724   0.086224
     5  P    0.227197   0.091867
     6  Ca   0.003246  -0.034274
     7  Ca  18.379275  -0.034275
     8  Ca  -0.034275  18.381046
 Mulliken atomic charges:
              1
     1  O   -0.644639
     2  O   -0.675922
     3  O   -0.675924
     4  O   -1.137530
     5  P   -0.029050
     6  Ca   1.360732
     7  Ca   1.360732
     8  Ca   1.441601
 Sum of Mulliken charges=   1.00000
 Atomic charges with hydrogens summed into heavy atoms:
              1
     1  O   -0.644639
     2  O   -0.675922
     3  O   -0.675924
     4  O   -1.137530
     5  P   -0.029050
     6  Ca   1.360732
     7  Ca   1.360732
     8  Ca   1.441601
 Sum of Mulliken charges=   1.00000
 Electronic spatial extent (au):  <R**2>=  1699.4072
 Charge=     1.0000 electrons
 Dipole moment (field-independent basis, Debye):
    X=    12.6891    Y=     0.0000    Z=     0.0592  Tot=    12.6893
 Quadrupole moment (field-independent basis, Debye-Ang):
   XX=  -101.1131   YY=   -38.5071   ZZ=   -38.5239
   XY=     0.0003   XZ=    -6.5256   YZ=    -0.0001
 Traceless Quadrupole moment (field-independent basis, Debye-Ang):
   XX=   -41.7318   YY=    20.8743   ZZ=    20.8575
   XY=     0.0003   XZ=    -6.5256   YZ=    -0.0001
 Octapole moment (field-independent basis, Debye-Ang**2):
  XXX=    48.0852  YYY=     0.0014  ZZZ=    62.7362  XYY=    61.4393
  XXY=     0.0002  XXZ=     2.1120  XZZ=    38.9237  YZZ=    -0.0018
  YYZ=   -51.9132  XYZ=    -0.0001
 Hexadecapole moment (field-independent basis, Debye-Ang**3):
 XXXX= -1132.3997 YYYY=  -443.4264 ZZZZ=  -360.9497 XXXY=     0.0022
 XXXZ=   -53.9510 YYYX=     0.0018 YYYZ=     0.0003 ZZZX=     3.1311
 ZZZY=    -0.0003 XXYY=  -215.5408 XXZZ=  -219.5147 YYZZ=  -136.8789
 XXYZ=     0.0001 YYXZ=   -38.1259 ZZXY=    -0.0004
 N-N= 9.185166130123D+02 E-N=-8.159952416810D+03  KE= 2.667638015857D+03
 Merz-Kollman atomic radii used.
 Read replacement radii for each type of atom:
 Rad(20) =   1.188000000000D+00
 Atom Element Radius
    1     8    1.40
    2     8    1.40
    3     8    1.40
    4     8    1.40
    5    15    1.80
    6    20    1.19
    7    20    1.19
    8    20    1.19

 **********************************************************************

            Electrostatic Properties Using The SCF Density

 **********************************************************************

       Atomic Center    1 is at  -2.932369  0.000019 -0.519370
       Atomic Center    2 is at  -0.818170  1.275354  0.514660
       Atomic Center    3 is at  -0.818177 -1.275366  0.514630
       Atomic Center    4 is at   1.814601 -0.000003  0.063760
       Atomic Center    5 is at  -1.447119  0.000009 -0.356950
       Atomic Center    6 is at   0.856763  1.755913 -0.944630
       Atomic Center    7 is at   0.856750 -1.755897 -0.944660
       Atomic Center    8 is at   0.473471 -0.000024  1.927530
     693 points will be used for fitting atomic charges
 Fitting point charges to eletrostatic potential
 Charges from ESP fit, RMS=   0.01231 RRMS=   0.07217:
 Charge=   1.00000 Dipole=    12.7255     0.0000    -0.2066 Tot=    12.7271
              1
     1  O   -0.105630
     2  O   -0.533957
     3  O   -0.533959
     4  O   -1.565944
     5  P   -0.740807
     6  Ca   1.453387
     7  Ca   1.453386
     8  Ca   1.573524
 -----------------------------------------------------------------

              Electrostatic Properties (Atomic Units)

 -----------------------------------------------------------------
    Center     Electric         -------- Electric Field --------
               Potential          X             Y             Z
 -----------------------------------------------------------------
    1 Atom    -22.283986
    2 Atom    -22.240012
    3 Atom    -22.240011
    4 Atom    -22.282683
    5 Atom    -53.947734
    6 Atom    -80.017467
    7 Atom    -80.017468
    8 Atom    -80.031548
 -----------------------------------------------------------------
 1\1\GINC-N022\SP\RB3LYP\6-31+G(d,p)\Ca3O4P1(1+)\TIMN\12-Jun-2015\0\\# 
 b3lyp/6-31+G(d,p) int=ultrafine pop=(ReadRadii,MK)\\Ca3PO4_96.mol2cc_p
 lusQ.z51514.zip.xyz\\1,1\O,0,-2.93237,0.,-0.51937\O,0,-0.81818,1.27535
 ,0.51466\O,0,-0.81817,-1.27537,0.51463\O,0,1.8146,0.00001,0.06376\P,0,
 -1.44712,0.,-0.35695\Ca,0,0.85675,1.75592,-0.94463\Ca,0,0.85676,-1.755
 89,-0.94466\Ca,0,0.47347,-0.00002,1.92753\\Version=EM64T-G03RevE.01\St
 ate=1-A\HF=-2674.9883044\RMSD=8.886e-05\Thermal=0.\Dipole=4.9922868,0.
 0000209,0.0232743\PG=C01 [X(Ca3O4P1)]\\@


 BUT 'GLORY' DOESN'T MEAN 'A NICE KNOCK DOWN ARGUMENT', ALICE OBJECTED.
 WHEN I USE A WORD, HUMPTY DUMPTY SAID, IN A RATHER SCORNFUL TONE,
 IT MEANS JUST WHAT I CHOOSE IT TO MEAN....
 NEITHER MORE NOR LESS....
 THE QUESTION IS, SAID ALICE,
 WHETHER YOU CAN MAKE WORDS MEAN SO MANY DIFFERENT THINGS...
 THE QUESTION IS, SAID HUMPTY DUMPTY,
 WHICH IS TO BE MASTER....
 THAT IS ALL.....

 ALICE THROUGH THE LOOKING GLASS
 Job cpu time:  0 days  0 hours  2 minutes 12.8 seconds.
 File lengths (MBytes):  RWF=     32 Int=      0 D2E=      0 Chk=     11 Scr=      1
 Normal termination of Gaussian 03 at Fri Jun 12 17:46:50 2015.
