 Entering Gaussian System, Link 0=/home/timn/tmp/g03.e01/g03
 Input=Ca3PO4_58.mol2cc_plusQ.z51472.zip.xyz.gjf
 Output=Ca3PO4_58.mol2cc_plusQ.z51472.zip.xyz.out
 Initial command:
 /home/timn/tmp/g03.e01/l1.exe /home/timn/tmp/g03.e01/Gau-12052.inp -scrdir=/home/timn/tmp/g03.e01/
 Default is to use a total of   2 processors:
                                2 via shared-memory
                                1 via Linda
 Entering Link 1 = /home/timn/tmp/g03.e01/l1.exe PID=     12053.
  
 Copyright (c) 1988,1990,1992,1993,1995,1998,2003,2004,2007, Gaussian, Inc.
                  All Rights Reserved.
  
 This is the Gaussian(R) 03 program.  It is based on the
 the Gaussian(R) 98 system (copyright 1998, Gaussian, Inc.),
 the Gaussian(R) 94 system (copyright 1995, Gaussian, Inc.),
 the Gaussian 92(TM) system (copyright 1992, Gaussian, Inc.),
 the Gaussian 90(TM) system (copyright 1990, Gaussian, Inc.),
 the Gaussian 88(TM) system (copyright 1988, Gaussian, Inc.),
 the Gaussian 86(TM) system (copyright 1986, Carnegie Mellon
 University), and the Gaussian 82(TM) system (copyright 1983,
 Carnegie Mellon University). Gaussian is a federally registered
 trademark of Gaussian, Inc.
  
 This software contains proprietary and confidential information,
 including trade secrets, belonging to Gaussian, Inc.
  
 This software is provided under written license and may be
 used, copied, transmitted, or stored only in accord with that
 written license.
  
 The following legend is applicable only to US Government
 contracts under FAR:
  
                    RESTRICTED RIGHTS LEGEND
  
 Use, reproduction and disclosure by the US Government is
 subject to restrictions as set forth in subparagraphs (a)
 and (c) of the Commercial Computer Software - Restricted
 Rights clause in FAR 52.227-19.
  
 Gaussian, Inc.
 340 Quinnipiac St., Bldg. 40, Wallingford CT 06492
  
  
 ---------------------------------------------------------------
 Warning -- This program may not be used in any manner that
 competes with the business of Gaussian, Inc. or will provide
 assistance to any competitor of Gaussian, Inc.  The licensee
 of this program is prohibited from giving any competitor of
 Gaussian, Inc. access to this program.  By using this program,
 the user acknowledges that Gaussian, Inc. is engaged in the
 business of creating and licensing software in the field of
 computational chemistry and represents and warrants to the
 licensee that it is not a competitor of Gaussian, Inc. and that
 it will not use this program in any manner prohibited above.
 ---------------------------------------------------------------
  

 Cite this work as:
 Gaussian 03, Revision E.01,
 M. J. Frisch, G. W. Trucks, H. B. Schlegel, G. E. Scuseria, 
 M. A. Robb, J. R. Cheeseman, J. A. Montgomery, Jr., T. Vreven, 
 K. N. Kudin, J. C. Burant, J. M. Millam, S. S. Iyengar, J. Tomasi, 
 V. Barone, B. Mennucci, M. Cossi, G. Scalmani, N. Rega, 
 G. A. Petersson, H. Nakatsuji, M. Hada, M. Ehara, K. Toyota, 
 R. Fukuda, J. Hasegawa, M. Ishida, T. Nakajima, Y. Honda, O. Kitao, 
 H. Nakai, M. Klene, X. Li, J. E. Knox, H. P. Hratchian, J. B. Cross, 
 V. Bakken, C. Adamo, J. Jaramillo, R. Gomperts, R. E. Stratmann, 
 O. Yazyev, A. J. Austin, R. Cammi, C. Pomelli, J. W. Ochterski, 
 P. Y. Ayala, K. Morokuma, G. A. Voth, P. Salvador, J. J. Dannenberg, 
 V. G. Zakrzewski, S. Dapprich, A. D. Daniels, M. C. Strain, 
 O. Farkas, D. K. Malick, A. D. Rabuck, K. Raghavachari, 
 J. B. Foresman, J. V. Ortiz, Q. Cui, A. G. Baboul, S. Clifford, 
 J. Cioslowski, B. B. Stefanov, G. Liu, A. Liashenko, P. Piskorz, 
 I. Komaromi, R. L. Martin, D. J. Fox, T. Keith, M. A. Al-Laham, 
 C. Y. Peng, A. Nanayakkara, M. Challacombe, P. M. W. Gill, 
 B. Johnson, W. Chen, M. W. Wong, C. Gonzalez, and J. A. Pople, 
 Gaussian, Inc., Wallingford CT, 2004.
 
 ******************************************
 Gaussian 03:  EM64T-G03RevE.01 11-Sep-2007
                12-Jun-2015 
 ******************************************
 %nproc=2
 Will use up to    2 processors via shared memory.
 Default route:  MP2=Direct MaxDisk=2000MB
 ----------------------------------------------------
 # b3lyp/6-31+G(d,p) int=ultrafine pop=(ReadRadii,MK)
 ----------------------------------------------------

 Warning!  SCF SP cutoffs with diffuse functions may be unreliable.
 Consider SCF=Tight

 1/38=1/1;
 2/17=6,18=5,40=1/2;
 3/5=1,6=6,7=111,11=2,16=1,25=1,30=1,74=-5,75=5/1,2,3;
 4//1;
 5/5=2,32=1,38=5/2;
 6/7=2,8=2,9=2,10=2,15=8,20=101,28=1/1,2;
 99/5=1,9=1/99;
 -------------------------------------
 Ca3PO4_58.mol2cc_plusQ.z51472.zip.xyz
 -------------------------------------
 Symbolic Z-matrix:
 Charge =  1 Multiplicity = 1
 O                    -1.5374    0.59487  -0.43951 
 O                     3.62758   0.2895   -0.51056 
 O                     0.14203  -0.63058   1.03293 
 O                     2.29619   0.93045  -0.29537 
 P                    -0.9391   -0.95875  -0.12935 
 Ca                    2.18486  -1.28419   0.02591 
 Ca                   -3.69842  -0.15486  -0.11498 
 Ca                    0.40651   1.68441   0.27109 
 
                          Input orientation:                          
 ---------------------------------------------------------------------
 Center     Atomic     Atomic              Coordinates (Angstroms)
 Number     Number      Type              X           Y           Z
 ---------------------------------------------------------------------
    1          8             0       -1.537400    0.594870   -0.439510
    2          8             0        3.627580    0.289500   -0.510560
    3          8             0        0.142030   -0.630580    1.032930
    4          8             0        2.296190    0.930450   -0.295370
    5         15             0       -0.939100   -0.958750   -0.129350
    6         20             0        2.184860   -1.284190    0.025910
    7         20             0       -3.698420   -0.154860   -0.114980
    8         20             0        0.406510    1.684410    0.271090
 ---------------------------------------------------------------------
                    Distance matrix (angstroms):
                    1          2          3          4          5
     1  O    0.000000
     2  O    5.174487   0.000000
     3  O    2.547605   3.921475   0.000000
     4  O    3.850948   1.493226   2.973483   0.000000
     5  P    1.693487   4.749528   1.620936   3.750165   0.000000
     6  Ca   4.195557   2.201304   2.369483   2.240590   3.144701
     7  Ca   2.310286   7.350117   4.036467   6.094734   2.874072
     8  Ca   2.338982   3.596115   2.451434   2.111924   2.992877
                    6          7          8
     6  Ca   0.000000
     7  Ca   5.992347   0.000000
     8  Ca   3.469183   4.514689   0.000000
 Stoichiometry    Ca3O4P(1+)
 Framework group  C1[X(Ca3O4P)]
 Deg. of freedom    18
 Full point group                 C1
 Largest Abelian subgroup         C1      NOp   1
 Largest concise Abelian subgroup C1      NOp   1
                         Standard orientation:                         
 ---------------------------------------------------------------------
 Center     Atomic     Atomic              Coordinates (Angstroms)
 Number     Number      Type              X           Y           Z
 ---------------------------------------------------------------------
    1          8             0       -1.537398    0.594870   -0.439511
    2          8             0        3.627583    0.289503   -0.510561
    3          8             0        0.142033   -0.630579    1.032929
    4          8             0        2.296192    0.930453   -0.295371
    5         15             0       -0.939097   -0.958749   -0.129351
    6         20             0        2.184864   -1.284187    0.025909
    7         20             0       -3.698417   -0.154861   -0.114981
    8         20             0        0.406512    1.684411    0.271089
 ---------------------------------------------------------------------
 Rotational constants (GHZ):      1.9024222      0.4456692      0.3771014
 Standard basis: 6-31+G(d,p) (6D, 7F)
 There are   180 symmetry adapted basis functions of A   symmetry.
 Integral buffers will be    131072 words long.
 Raffenetti 2 integral format.
 Two-electron integral symmetry is turned on.
   180 basis functions,   424 primitive gaussians,   180 cartesian basis functions
    53 alpha electrons       53 beta electrons
       nuclear repulsion energy       829.8743496125 Hartrees.
 NAtoms=    8 NActive=    8 NUniq=    8 SFac= 7.50D-01 NAtFMM=   80 NAOKFM=F Big=F
 One-electron integrals computed using PRISM.
 NBasis=   180 RedAO= T  NBF=   180
 NBsUse=   180 1.00D-06 NBFU=   180
 Harris functional with IExCor=  402 diagonalized for initial guess.
 ExpMin= 7.10D-03 ExpMax= 3.53D+04 ExpMxC= 5.30D+03 IAcc=3 IRadAn=         5 AccDes= 0.00D+00
 HarFok:  IExCor= 402 AccDes= 0.00D+00 IRadAn=         5 IDoV=1
 ScaDFX=  1.000000  1.000000  1.000000  1.000000
 Initial guess orbital symmetries:
       Occupied  (A) (A) (A) (A) (A) (A) (A) (A) (A) (A) (A) (A)
                 (A) (A) (A) (A) (A) (A) (A) (A) (A) (A) (A) (A)
                 (A) (A) (A) (A) (A) (A) (A) (A) (A) (A) (A) (A)
                 (A) (A) (A) (A) (A) (A) (A) (A) (A) (A) (A) (A)
                 (A) (A) (A) (A) (A)
       Virtual   (A) (A) (A) (A) (A) (A) (A) (A) (A) (A) (A) (A)
                 (A) (A) (A) (A) (A) (A) (A) (A) (A) (A) (A) (A)
                 (A) (A) (A) (A) (A) (A) (A) (A) (A) (A) (A) (A)
                 (A) (A) (A) (A) (A) (A) (A) (A) (A) (A) (A) (A)
                 (A) (A) (A) (A) (A) (A) (A) (A) (A) (A) (A) (A)
                 (A) (A) (A) (A) (A) (A) (A) (A) (A) (A) (A) (A)
                 (A) (A) (A) (A) (A) (A) (A) (A) (A) (A) (A) (A)
                 (A) (A) (A) (A) (A) (A) (A) (A) (A) (A) (A) (A)
                 (A) (A) (A) (A) (A) (A) (A) (A) (A) (A) (A) (A)
                 (A) (A) (A) (A) (A) (A) (A) (A) (A) (A) (A) (A)
                 (A) (A) (A) (A) (A) (A) (A)
 The electronic state of the initial guess is 1-A.
 Requested convergence on RMS density matrix=1.00D-04 within 128 cycles.
 Requested convergence on MAX density matrix=1.00D-02.
 Requested convergence on             energy=1.00D-02.
 No special actions if energy rises.
 EnCoef did     3 forward-backward iterations
 EnCoef did     1 forward-backward iterations
 EnCoef did     7 forward-backward iterations
 EnCoef did     3 forward-backward iterations
 SCF Done:  E(RB+HF-LYP) =  -2674.83341068     A.U. after   10 cycles
             Convg  =    0.4999D-04             -V/T =  2.0027
             S**2   =   0.0000

 **********************************************************************

            Population analysis using the SCF density.

 **********************************************************************

 Orbital symmetries:
       Occupied  (A) (A) (A) (A) (A) (A) (A) (A) (A) (A) (A) (A)
                 (A) (A) (A) (A) (A) (A) (A) (A) (A) (A) (A) (A)
                 (A) (A) (A) (A) (A) (A) (A) (A) (A) (A) (A) (A)
                 (A) (A) (A) (A) (A) (A) (A) (A) (A) (A) (A) (A)
                 (A) (A) (A) (A) (A)
       Virtual   (A) (A) (A) (A) (A) (A) (A) (A) (A) (A) (A) (A)
                 (A) (A) (A) (A) (A) (A) (A) (A) (A) (A) (A) (A)
                 (A) (A) (A) (A) (A) (A) (A) (A) (A) (A) (A) (A)
                 (A) (A) (A) (A) (A) (A) (A) (A) (A) (A) (A) (A)
                 (A) (A) (A) (A) (A) (A) (A) (A) (A) (A) (A) (A)
                 (A) (A) (A) (A) (A) (A) (A) (A) (A) (A) (A) (A)
                 (A) (A) (A) (A) (A) (A) (A) (A) (A) (A) (A) (A)
                 (A) (A) (A) (A) (A) (A) (A) (A) (A) (A) (A) (A)
                 (A) (A) (A) (A) (A) (A) (A) (A) (A) (A) (A) (A)
                 (A) (A) (A) (A) (A) (A) (A) (A) (A) (A) (A) (A)
                 (A) (A) (A) (A) (A) (A) (A)
 The electronic state is 1-A.
 Alpha  occ. eigenvalues -- -145.54504-145.51420-145.49382 -77.25443 -19.25216
 Alpha  occ. eigenvalues --  -19.25039 -19.21034 -19.18730 -15.61442 -15.58183
 Alpha  occ. eigenvalues --  -15.56246 -12.74650 -12.74619 -12.74534 -12.71425
 Alpha  occ. eigenvalues --  -12.71394 -12.71275 -12.69504 -12.69427 -12.69326
 Alpha  occ. eigenvalues --   -6.71252  -4.87665  -4.87343  -4.87157  -1.98443
 Alpha  occ. eigenvalues --   -1.95309  -1.93434  -1.25992  -1.25717  -1.25679
 Alpha  occ. eigenvalues --   -1.23361  -1.22890  -1.22688  -1.21251  -1.21184
 Alpha  occ. eigenvalues --   -1.20666  -1.09018  -1.04635  -1.04166  -0.82421
 Alpha  occ. eigenvalues --   -0.65702  -0.52541  -0.51317  -0.50223  -0.45748
 Alpha  occ. eigenvalues --   -0.44129  -0.42211  -0.41588  -0.41241  -0.40256
 Alpha  occ. eigenvalues --   -0.28606  -0.27540  -0.26567
 Alpha virt. eigenvalues --   -0.22548  -0.18818  -0.17610  -0.14786  -0.13959
 Alpha virt. eigenvalues --   -0.12242  -0.10941  -0.10246  -0.10031  -0.09226
 Alpha virt. eigenvalues --   -0.07980  -0.07549  -0.06908  -0.05918  -0.05611
 Alpha virt. eigenvalues --   -0.05519  -0.05216  -0.05132  -0.04492  -0.04157
 Alpha virt. eigenvalues --   -0.03950  -0.03849  -0.03532  -0.03132  -0.02966
 Alpha virt. eigenvalues --   -0.02624  -0.01294  -0.01169  -0.00465   0.00062
 Alpha virt. eigenvalues --    0.00736   0.02252   0.02609   0.03263   0.03298
 Alpha virt. eigenvalues --    0.03712   0.04375   0.04447   0.04976   0.05677
 Alpha virt. eigenvalues --    0.06017   0.06689   0.07161   0.07591   0.07774
 Alpha virt. eigenvalues --    0.08184   0.08979   0.09498   0.10829   0.12262
 Alpha virt. eigenvalues --    0.13044   0.14103   0.15215   0.17227   0.17591
 Alpha virt. eigenvalues --    0.18015   0.19541   0.19794   0.21242   0.22669
 Alpha virt. eigenvalues --    0.23700   0.24622   0.25114   0.25549   0.27078
 Alpha virt. eigenvalues --    0.29222   0.30064   0.31980   0.35847   0.36724
 Alpha virt. eigenvalues --    0.38248   0.38959   0.40628   0.43156   0.44101
 Alpha virt. eigenvalues --    0.46326   0.54899   0.56517   0.59290   0.65264
 Alpha virt. eigenvalues --    0.66437   0.69414   0.81243   0.85111   0.91939
 Alpha virt. eigenvalues --    1.06444   1.09972   1.12297   1.13593   1.16764
 Alpha virt. eigenvalues --    1.17964   1.18797   1.19721   1.22154   1.23266
 Alpha virt. eigenvalues --    1.25231   1.31137   1.36806   1.46831   1.49258
 Alpha virt. eigenvalues --    1.51171   1.55616   1.62497   1.65033   1.71240
 Alpha virt. eigenvalues --    1.73915   1.76132   1.77964   1.78728   1.82890
 Alpha virt. eigenvalues --    1.83602   1.86994   1.90061   1.90688   1.93935
 Alpha virt. eigenvalues --    1.95011   1.96336   2.30532   2.31016   2.35290
 Alpha virt. eigenvalues --    2.55650   3.12507   3.44150   3.88652   3.93460
 Alpha virt. eigenvalues --    4.04899   4.18546
          Condensed to atoms (all electrons):
              1          2          3          4          5          6
     1  O    9.242479  -0.000194  -0.008071   0.000174  -0.403744   0.005781
     2  O   -0.000194   8.481587  -0.001447  -0.041083   0.002140   0.182773
     3  O   -0.008071  -0.001447   8.850199   0.028153  -0.233166   0.083564
     4  O    0.000174  -0.041083   0.028153   8.425456  -0.015290   0.057477
     5  P   -0.403744   0.002140  -0.233166  -0.015290  15.447716  -0.017029
     6  Ca   0.005781   0.182773   0.083564   0.057477  -0.017029  18.278959
     7  Ca  -0.130338   0.000785  -0.000910   0.003649   0.299484   0.019361
     8  Ca   0.037272  -0.024314   0.046835   0.156919   0.031515  -0.022793
              7          8
     1  O   -0.130338   0.037272
     2  O    0.000785  -0.024314
     3  O   -0.000910   0.046835
     4  O    0.003649   0.156919
     5  P    0.299484   0.031515
     6  Ca   0.019361  -0.022793
     7  Ca  18.889265  -0.011977
     8  Ca  -0.011977  18.293284
 Mulliken atomic charges:
              1
     1  O   -0.743360
     2  O   -0.600248
     3  O   -0.765157
     4  O   -0.615456
     5  P   -0.111626
     6  Ca   1.411908
     7  Ca   0.930682
     8  Ca   1.493258
 Sum of Mulliken charges=   1.00000
 Atomic charges with hydrogens summed into heavy atoms:
              1
     1  O   -0.743360
     2  O   -0.600248
     3  O   -0.765157
     4  O   -0.615456
     5  P   -0.111626
     6  Ca   1.411908
     7  Ca   0.930682
     8  Ca   1.493258
 Sum of Mulliken charges=   1.00000
 Electronic spatial extent (au):  <R**2>=  2576.0224
 Charge=     1.0000 electrons
 Dipole moment (field-independent basis, Debye):
    X=    -9.9547    Y=    -0.0611    Z=     2.6137  Tot=    10.2923
 Quadrupole moment (field-independent basis, Debye-Ang):
   XX=   -50.4813   YY=   -46.9343   ZZ=   -79.3248
   XY=   -23.9987   XZ=     9.6590   YZ=     7.3571
 Traceless Quadrupole moment (field-independent basis, Debye-Ang):
   XX=     8.4321   YY=    11.9792   ZZ=   -20.4113
   XY=   -23.9987   XZ=     9.6590   YZ=     7.3571
 Octapole moment (field-independent basis, Debye-Ang**2):
  XXX=  -238.5915  YYY=    38.4374  ZZZ=     4.6916  XYY=    50.7804
  XXY=   -69.9493  XXZ=    16.6240  XZZ=     8.4376  YZZ=     8.6280
  YYZ=    12.4614  XYZ=    -0.3001
 Hexadecapole moment (field-independent basis, Debye-Ang**3):
 XXXX= -2326.5765 YYYY=  -409.3503 ZZZZ=  -184.5920 XXXY=  -224.6713
 XXXZ=   134.7433 YYYX=  -100.3789 YYYZ=    19.8885 ZZZX=    20.0689
 ZZZY=    13.5373 XXYY=  -473.2541 XXZZ=  -466.8114 YYZZ=  -113.4946
 XXYZ=    19.0590 YYXZ=    10.4025 ZZXY=   -20.2728
 N-N= 8.298743496125D+02 E-N=-7.982099238706D+03  KE= 2.667552117234D+03
 Merz-Kollman atomic radii used.
 Read replacement radii for each type of atom:
 Rad(20) =   1.188000000000D+00
 Atom Element Radius
    1     8    1.40
    2     8    1.40
    3     8    1.40
    4     8    1.40
    5    15    1.80
    6    20    1.19
    7    20    1.19
    8    20    1.19

 **********************************************************************

            Electrostatic Properties Using The SCF Density

 **********************************************************************

       Atomic Center    1 is at  -1.537398  0.594870 -0.439511
       Atomic Center    2 is at   3.627583  0.289503 -0.510561
       Atomic Center    3 is at   0.142033 -0.630579  1.032929
       Atomic Center    4 is at   2.296192  0.930453 -0.295371
       Atomic Center    5 is at  -0.939097 -0.958749 -0.129351
       Atomic Center    6 is at   2.184864 -1.284187  0.025909
       Atomic Center    7 is at  -3.698417 -0.154861 -0.114981
       Atomic Center    8 is at   0.406512  1.684411  0.271089
     799 points will be used for fitting atomic charges
 Fitting point charges to eletrostatic potential
 Charges from ESP fit, RMS=   0.01247 RRMS=   0.07810:
 Charge=   1.00000 Dipole=   -12.6216    -0.2199     2.8805 Tot=    12.9480
              1
     1  O   -0.621904
     2  O   -0.689626
     3  O   -0.643251
     4  O   -0.783158
     5  P   -0.455830
     6  Ca   1.609464
     7  Ca   1.020144
     8  Ca   1.564162
 -----------------------------------------------------------------

              Electrostatic Properties (Atomic Units)

 -----------------------------------------------------------------
    Center     Electric         -------- Electric Field --------
               Potential          X             Y             Z
 -----------------------------------------------------------------
    1 Atom    -22.209684
    2 Atom    -22.278397
    3 Atom    -22.209201
    4 Atom    -22.249670
    5 Atom    -53.957739
    6 Atom    -80.045118
    7 Atom    -80.001057
    8 Atom    -80.024265
 -----------------------------------------------------------------
 1\1\GINC-N033\SP\RB3LYP\6-31+G(d,p)\Ca3O4P1(1+)\TIMN\12-Jun-2015\0\\# 
 b3lyp/6-31+G(d,p) int=ultrafine pop=(ReadRadii,MK)\\Ca3PO4_58.mol2cc_p
 lusQ.z51472.zip.xyz\\1,1\O,0,-1.5374,0.59487,-0.43951\O,0,3.62758,0.28
 95,-0.51056\O,0,0.14203,-0.63058,1.03293\O,0,2.29619,0.93045,-0.29537\
 P,0,-0.9391,-0.95875,-0.12935\Ca,0,2.18486,-1.28419,0.02591\Ca,0,-3.69
 842,-0.15486,-0.11498\Ca,0,0.40651,1.68441,0.27109\\Version=EM64T-G03R
 evE.01\State=1-A\HF=-2674.8334107\RMSD=4.999e-05\Thermal=0.\Dipole=-3.
 9164887,-0.0240302,1.0283078\PG=C01 [X(Ca3O4P1)]\\@


 BULLDOZER: SOMEONE WHO SLEEPS THROUGH SPEECHES.
 Job cpu time:  0 days  0 hours  1 minutes 49.0 seconds.
 File lengths (MBytes):  RWF=     32 Int=      0 D2E=      0 Chk=     11 Scr=      1
 Normal termination of Gaussian 03 at Fri Jun 12 17:44:25 2015.
