 Entering Gaussian System, Link 0=/home/timn/tmp/g03.e01/g03
 Input=Ca3PO4_208.mol2c_plusQ.z51418.zip.xyz.gjf
 Output=Ca3PO4_208.mol2c_plusQ.z51418.zip.xyz.out
 Initial command:
 /home/timn/tmp/g03.e01/l1.exe /home/timn/tmp/g03.e01/Gau-13822.inp -scrdir=/home/timn/tmp/g03.e01/
 Default is to use a total of   2 processors:
                                2 via shared-memory
                                1 via Linda
 Entering Link 1 = /home/timn/tmp/g03.e01/l1.exe PID=     13823.
  
 Copyright (c) 1988,1990,1992,1993,1995,1998,2003,2004,2007, Gaussian, Inc.
                  All Rights Reserved.
  
 This is the Gaussian(R) 03 program.  It is based on the
 the Gaussian(R) 98 system (copyright 1998, Gaussian, Inc.),
 the Gaussian(R) 94 system (copyright 1995, Gaussian, Inc.),
 the Gaussian 92(TM) system (copyright 1992, Gaussian, Inc.),
 the Gaussian 90(TM) system (copyright 1990, Gaussian, Inc.),
 the Gaussian 88(TM) system (copyright 1988, Gaussian, Inc.),
 the Gaussian 86(TM) system (copyright 1986, Carnegie Mellon
 University), and the Gaussian 82(TM) system (copyright 1983,
 Carnegie Mellon University). Gaussian is a federally registered
 trademark of Gaussian, Inc.
  
 This software contains proprietary and confidential information,
 including trade secrets, belonging to Gaussian, Inc.
  
 This software is provided under written license and may be
 used, copied, transmitted, or stored only in accord with that
 written license.
  
 The following legend is applicable only to US Government
 contracts under FAR:
  
                    RESTRICTED RIGHTS LEGEND
  
 Use, reproduction and disclosure by the US Government is
 subject to restrictions as set forth in subparagraphs (a)
 and (c) of the Commercial Computer Software - Restricted
 Rights clause in FAR 52.227-19.
  
 Gaussian, Inc.
 340 Quinnipiac St., Bldg. 40, Wallingford CT 06492
  
  
 ---------------------------------------------------------------
 Warning -- This program may not be used in any manner that
 competes with the business of Gaussian, Inc. or will provide
 assistance to any competitor of Gaussian, Inc.  The licensee
 of this program is prohibited from giving any competitor of
 Gaussian, Inc. access to this program.  By using this program,
 the user acknowledges that Gaussian, Inc. is engaged in the
 business of creating and licensing software in the field of
 computational chemistry and represents and warrants to the
 licensee that it is not a competitor of Gaussian, Inc. and that
 it will not use this program in any manner prohibited above.
 ---------------------------------------------------------------
  

 Cite this work as:
 Gaussian 03, Revision E.01,
 M. J. Frisch, G. W. Trucks, H. B. Schlegel, G. E. Scuseria, 
 M. A. Robb, J. R. Cheeseman, J. A. Montgomery, Jr., T. Vreven, 
 K. N. Kudin, J. C. Burant, J. M. Millam, S. S. Iyengar, J. Tomasi, 
 V. Barone, B. Mennucci, M. Cossi, G. Scalmani, N. Rega, 
 G. A. Petersson, H. Nakatsuji, M. Hada, M. Ehara, K. Toyota, 
 R. Fukuda, J. Hasegawa, M. Ishida, T. Nakajima, Y. Honda, O. Kitao, 
 H. Nakai, M. Klene, X. Li, J. E. Knox, H. P. Hratchian, J. B. Cross, 
 V. Bakken, C. Adamo, J. Jaramillo, R. Gomperts, R. E. Stratmann, 
 O. Yazyev, A. J. Austin, R. Cammi, C. Pomelli, J. W. Ochterski, 
 P. Y. Ayala, K. Morokuma, G. A. Voth, P. Salvador, J. J. Dannenberg, 
 V. G. Zakrzewski, S. Dapprich, A. D. Daniels, M. C. Strain, 
 O. Farkas, D. K. Malick, A. D. Rabuck, K. Raghavachari, 
 J. B. Foresman, J. V. Ortiz, Q. Cui, A. G. Baboul, S. Clifford, 
 J. Cioslowski, B. B. Stefanov, G. Liu, A. Liashenko, P. Piskorz, 
 I. Komaromi, R. L. Martin, D. J. Fox, T. Keith, M. A. Al-Laham, 
 C. Y. Peng, A. Nanayakkara, M. Challacombe, P. M. W. Gill, 
 B. Johnson, W. Chen, M. W. Wong, C. Gonzalez, and J. A. Pople, 
 Gaussian, Inc., Wallingford CT, 2004.
 
 ******************************************
 Gaussian 03:  EM64T-G03RevE.01 11-Sep-2007
                12-Jun-2015 
 ******************************************
 %nproc=2
 Will use up to    2 processors via shared memory.
 Default route:  MP2=Direct MaxDisk=2000MB
 ----------------------------------------------------
 # b3lyp/6-31+G(d,p) int=ultrafine pop=(ReadRadii,MK)
 ----------------------------------------------------

 Warning!  SCF SP cutoffs with diffuse functions may be unreliable.
 Consider SCF=Tight

 1/38=1/1;
 2/17=6,18=5,40=1/2;
 3/5=1,6=6,7=111,11=2,16=1,25=1,30=1,74=-5,75=5/1,2,3;
 4//1;
 5/5=2,32=1,38=5/2;
 6/7=2,8=2,9=2,10=2,15=8,20=101,28=1/1,2;
 99/5=1,9=1/99;
 -------------------------------------
 Ca3PO4_208.mol2c_plusQ.z51418.zip.xyz
 -------------------------------------
 Symbolic Z-matrix:
 Charge =  1 Multiplicity = 1
 O                    -1.07493  -0.31315  -1.54914 
 O                    -2.08974  -0.00657  -0.51305 
 O                    -0.23059  -1.42189  -1.06832 
 O                     1.30065   1.24456  -0.12158 
 P                     1.07045   0.65586   1.57598 
 Ca                   -1.14286  -1.40097   1.0913 
 Ca                   -0.80247   1.88315  -0.27938 
 Ca                    1.98033  -0.77525  -0.69306 
 
                          Input orientation:                          
 ---------------------------------------------------------------------
 Center     Atomic     Atomic              Coordinates (Angstroms)
 Number     Number      Type              X           Y           Z
 ---------------------------------------------------------------------
    1          8             0       -1.074930   -0.313150   -1.549140
    2          8             0       -2.089740   -0.006570   -0.513050
    3          8             0       -0.230590   -1.421890   -1.068320
    4          8             0        1.300650    1.244560   -0.121580
    5         15             0        1.070450    0.655860    1.575980
    6         20             0       -1.142860   -1.400970    1.091300
    7         20             0       -0.802470    1.883150   -0.279380
    8         20             0        1.980330   -0.775250   -0.693060
 ---------------------------------------------------------------------
                    Distance matrix (angstroms):
                    1          2          3          4          5
     1  O    0.000000
     2  O    1.482334   0.000000
     3  O    1.474246   2.401644   0.000000
     4  O    3.179272   3.635013   3.217292   0.000000
     5  P    3.912545   3.845733   3.605839   1.811428   0.000000
     6  Ca   2.856552   2.326988   2.344490   3.800085   3.060099
     7  Ca   2.551521   2.298414   3.445688   2.203591   2.907994
     8  Ca   3.206403   4.145931   2.333909   2.206397   2.832755
                    6          7          8
     6  Ca   0.000000
     7  Ca   3.574923   0.000000
     8  Ca   3.650997   3.870684   0.000000
 Stoichiometry    Ca3O4P(1+)
 Framework group  C1[X(Ca3O4P)]
 Deg. of freedom    18
 Full point group                 C1
 Largest Abelian subgroup         C1      NOp   1
 Largest concise Abelian subgroup C1      NOp   1
                         Standard orientation:                         
 ---------------------------------------------------------------------
 Center     Atomic     Atomic              Coordinates (Angstroms)
 Number     Number      Type              X           Y           Z
 ---------------------------------------------------------------------
    1          8             0       -1.074933   -0.313138   -1.549142
    2          8             0       -2.089739   -0.006545   -0.513052
    3          8             0       -0.230606   -1.421888   -1.068322
    4          8             0        1.300666    1.244543   -0.121582
    5         15             0        1.070459    0.655846    1.575978
    6         20             0       -1.142876   -1.400957    1.091298
    7         20             0       -0.802446    1.883159   -0.279382
    8         20             0        1.980322   -0.775275   -0.693062
 ---------------------------------------------------------------------
 Rotational constants (GHZ):      0.9643469      0.8503912      0.7193186
 Standard basis: 6-31+G(d,p) (6D, 7F)
 There are   180 symmetry adapted basis functions of A   symmetry.
 Integral buffers will be    131072 words long.
 Raffenetti 2 integral format.
 Two-electron integral symmetry is turned on.
   180 basis functions,   424 primitive gaussians,   180 cartesian basis functions
    53 alpha electrons       53 beta electrons
       nuclear repulsion energy       889.1267385853 Hartrees.
 NAtoms=    8 NActive=    8 NUniq=    8 SFac= 7.50D-01 NAtFMM=   80 NAOKFM=F Big=F
 One-electron integrals computed using PRISM.
 NBasis=   180 RedAO= T  NBF=   180
 NBsUse=   180 1.00D-06 NBFU=   180
 Harris functional with IExCor=  402 diagonalized for initial guess.
 ExpMin= 7.10D-03 ExpMax= 3.53D+04 ExpMxC= 5.30D+03 IAcc=3 IRadAn=         5 AccDes= 0.00D+00
 HarFok:  IExCor= 402 AccDes= 0.00D+00 IRadAn=         5 IDoV=1
 ScaDFX=  1.000000  1.000000  1.000000  1.000000
 Initial guess orbital symmetries:
       Occupied  (A) (A) (A) (A) (A) (A) (A) (A) (A) (A) (A) (A)
                 (A) (A) (A) (A) (A) (A) (A) (A) (A) (A) (A) (A)
                 (A) (A) (A) (A) (A) (A) (A) (A) (A) (A) (A) (A)
                 (A) (A) (A) (A) (A) (A) (A) (A) (A) (A) (A) (A)
                 (A) (A) (A) (A) (A)
       Virtual   (A) (A) (A) (A) (A) (A) (A) (A) (A) (A) (A) (A)
                 (A) (A) (A) (A) (A) (A) (A) (A) (A) (A) (A) (A)
                 (A) (A) (A) (A) (A) (A) (A) (A) (A) (A) (A) (A)
                 (A) (A) (A) (A) (A) (A) (A) (A) (A) (A) (A) (A)
                 (A) (A) (A) (A) (A) (A) (A) (A) (A) (A) (A) (A)
                 (A) (A) (A) (A) (A) (A) (A) (A) (A) (A) (A) (A)
                 (A) (A) (A) (A) (A) (A) (A) (A) (A) (A) (A) (A)
                 (A) (A) (A) (A) (A) (A) (A) (A) (A) (A) (A) (A)
                 (A) (A) (A) (A) (A) (A) (A) (A) (A) (A) (A) (A)
                 (A) (A) (A) (A) (A) (A) (A) (A) (A) (A) (A) (A)
                 (A) (A) (A) (A) (A) (A) (A)
 The electronic state of the initial guess is 1-A.
 Requested convergence on RMS density matrix=1.00D-04 within 128 cycles.
 Requested convergence on MAX density matrix=1.00D-02.
 Requested convergence on             energy=1.00D-02.
 No special actions if energy rises.
 EnCoef did     4 forward-backward iterations
 EnCoef did     4 forward-backward iterations
 SCF Done:  E(RB+HF-LYP) =  -2674.74522865     A.U. after    9 cycles
             Convg  =    0.5298D-04             -V/T =  2.0027
             S**2   =   0.0000

 **********************************************************************

            Population analysis using the SCF density.

 **********************************************************************

 Orbital symmetries:
       Occupied  (A) (A) (A) (A) (A) (A) (A) (A) (A) (A) (A) (A)
                 (A) (A) (A) (A) (A) (A) (A) (A) (A) (A) (A) (A)
                 (A) (A) (A) (A) (A) (A) (A) (A) (A) (A) (A) (A)
                 (A) (A) (A) (A) (A) (A) (A) (A) (A) (A) (A) (A)
                 (A) (A) (A) (A) (A)
       Virtual   (A) (A) (A) (A) (A) (A) (A) (A) (A) (A) (A) (A)
                 (A) (A) (A) (A) (A) (A) (A) (A) (A) (A) (A) (A)
                 (A) (A) (A) (A) (A) (A) (A) (A) (A) (A) (A) (A)
                 (A) (A) (A) (A) (A) (A) (A) (A) (A) (A) (A) (A)
                 (A) (A) (A) (A) (A) (A) (A) (A) (A) (A) (A) (A)
                 (A) (A) (A) (A) (A) (A) (A) (A) (A) (A) (A) (A)
                 (A) (A) (A) (A) (A) (A) (A) (A) (A) (A) (A) (A)
                 (A) (A) (A) (A) (A) (A) (A) (A) (A) (A) (A) (A)
                 (A) (A) (A) (A) (A) (A) (A) (A) (A) (A) (A) (A)
                 (A) (A) (A) (A) (A) (A) (A) (A) (A) (A) (A) (A)
                 (A) (A) (A) (A) (A) (A) (A)
 The electronic state is 1-A.
 Alpha  occ. eigenvalues -- -145.52282-145.51803-145.50800 -77.15438 -19.36561
 Alpha  occ. eigenvalues --  -19.27763 -19.27501 -19.20711 -15.59132 -15.58633
 Alpha  occ. eigenvalues --  -15.57714 -12.72349 -12.72299 -12.72267 -12.71860
 Alpha  occ. eigenvalues --  -12.71838 -12.71731 -12.70904 -12.70895 -12.70825
 Alpha  occ. eigenvalues --   -6.61993  -4.78484  -4.77922  -4.77803  -1.96275
 Alpha  occ. eigenvalues --   -1.95777  -1.94940  -1.25209  -1.23853  -1.23813
 Alpha  occ. eigenvalues --   -1.23573  -1.23370  -1.23047  -1.22600  -1.22447
 Alpha  occ. eigenvalues --   -1.22118  -1.19858  -1.03843  -0.99579  -0.87973
 Alpha  occ. eigenvalues --   -0.61285  -0.58808  -0.56131  -0.54168  -0.43920
 Alpha  occ. eigenvalues --   -0.43144  -0.42280  -0.41890  -0.41160  -0.40589
 Alpha  occ. eigenvalues --   -0.34729  -0.28066  -0.26905
 Alpha virt. eigenvalues --   -0.20683  -0.19000  -0.18779  -0.14953  -0.13867
 Alpha virt. eigenvalues --   -0.12276  -0.11097  -0.10284  -0.09811  -0.09299
 Alpha virt. eigenvalues --   -0.09012  -0.07346  -0.07015  -0.06662  -0.05935
 Alpha virt. eigenvalues --   -0.05801  -0.04912  -0.04751  -0.04502  -0.04199
 Alpha virt. eigenvalues --   -0.04124  -0.03947  -0.03926  -0.03446  -0.03316
 Alpha virt. eigenvalues --   -0.03275  -0.03007  -0.01281   0.00626   0.00865
 Alpha virt. eigenvalues --    0.01256   0.01472   0.02202   0.03007   0.03926
 Alpha virt. eigenvalues --    0.04170   0.04804   0.05097   0.05278   0.05965
 Alpha virt. eigenvalues --    0.06067   0.06586   0.06994   0.07045   0.07638
 Alpha virt. eigenvalues --    0.08532   0.09162   0.09476   0.09952   0.10882
 Alpha virt. eigenvalues --    0.11580   0.12588   0.14222   0.15598   0.16208
 Alpha virt. eigenvalues --    0.19184   0.19953   0.20536   0.22692   0.23186
 Alpha virt. eigenvalues --    0.24405   0.25043   0.26019   0.27345   0.27765
 Alpha virt. eigenvalues --    0.29724   0.30943   0.33312   0.35314   0.36853
 Alpha virt. eigenvalues --    0.38964   0.41245   0.42173   0.42942   0.45157
 Alpha virt. eigenvalues --    0.50931   0.52325   0.57516   0.63538   0.68397
 Alpha virt. eigenvalues --    0.69448   0.71627   0.81207   0.82387   0.89126
 Alpha virt. eigenvalues --    0.97917   1.05243   1.06431   1.10596   1.12968
 Alpha virt. eigenvalues --    1.15188   1.16642   1.18575   1.19887   1.20301
 Alpha virt. eigenvalues --    1.21909   1.24902   1.25896   1.40045   1.45161
 Alpha virt. eigenvalues --    1.50973   1.55150   1.59200   1.65632   1.69177
 Alpha virt. eigenvalues --    1.73891   1.76477   1.79221   1.81219   1.81510
 Alpha virt. eigenvalues --    1.83727   1.86063   1.87986   1.90467   1.90874
 Alpha virt. eigenvalues --    1.94318   2.23362   2.24264   2.25190   2.47211
 Alpha virt. eigenvalues --    3.05837   3.06921   3.44810   3.94577   4.13004
 Alpha virt. eigenvalues --    4.16206   4.37782
          Condensed to atoms (all electrons):
              1          2          3          4          5          6
     1  O    8.095348  -0.037832  -0.133593  -0.041247   0.054322  -0.011713
     2  O   -0.037832   8.570199   0.052408   0.033826  -0.062845   0.030847
     3  O   -0.133593   0.052408   8.678084   0.074003  -0.100603   0.029743
     4  O   -0.041247   0.033826   0.074003   9.050727  -0.371897  -0.079187
     5  P    0.054322  -0.062845  -0.100603  -0.371897  15.490669   0.135637
     6  Ca  -0.011713   0.030847   0.029743  -0.079187   0.135637  18.866285
     7  Ca   0.028924   0.095011  -0.021993   0.072340   0.162192   0.016717
     8  Ca   0.014741  -0.028798   0.062101   0.020144   0.215229   0.038833
              7          8
     1  O    0.028924   0.014741
     2  O    0.095011  -0.028798
     3  O   -0.021993   0.062101
     4  O    0.072340   0.020144
     5  P    0.162192   0.215229
     6  Ca   0.016717   0.038833
     7  Ca  18.385500  -0.062049
     8  Ca  -0.062049  18.492665
 Mulliken atomic charges:
              1
     1  O    0.031049
     2  O   -0.652815
     3  O   -0.640149
     4  O   -0.758709
     5  P   -0.522704
     6  Ca   0.972838
     7  Ca   1.323357
     8  Ca   1.247134
 Sum of Mulliken charges=   1.00000
 Atomic charges with hydrogens summed into heavy atoms:
              1
     1  O    0.031049
     2  O   -0.652815
     3  O   -0.640149
     4  O   -0.758709
     5  P   -0.522704
     6  Ca   0.972838
     7  Ca   1.323357
     8  Ca   1.247134
 Sum of Mulliken charges=   1.00000
 Electronic spatial extent (au):  <R**2>=  1754.7513
 Charge=     1.0000 electrons
 Dipole moment (field-independent basis, Debye):
    X=     0.2176    Y=    -0.9424    Z=    -2.0147  Tot=     2.2349
 Quadrupole moment (field-independent basis, Debye-Ang):
   XX=   -57.1873   YY=   -46.1495   ZZ=   -78.3208
   XY=   -18.3406   XZ=   -25.3367   YZ=   -15.2959
 Traceless Quadrupole moment (field-independent basis, Debye-Ang):
   XX=     3.3652   YY=    14.4030   ZZ=   -17.7683
   XY=   -18.3406   XZ=   -25.3367   YZ=   -15.2959
 Octapole moment (field-independent basis, Debye-Ang**2):
  XXX=    45.3591  YYY=    37.3821  ZZZ=   -38.5128  XYY=   -43.9295
  XXY=   -34.5298  XXZ=   -27.2145  XZZ=    -8.0525  YZZ=   -11.5743
  YYZ=    -9.1865  XYZ=    27.3359
 Hexadecapole moment (field-independent basis, Debye-Ang**3):
 XXXX=  -798.1010 YYYY=  -562.5364 ZZZZ=  -618.8520 XXXY=   -86.0221
 XXXZ=  -148.8694 YYYX=   -82.4316 YYYZ=   -76.9914 ZZZX=   -85.5549
 ZZZY=   -57.8107 XXYY=  -210.8226 XXZZ=  -236.1342 YYZZ=  -215.9477
 XXYZ=    -5.8101 YYXZ=   -36.7132 ZZXY=   -10.8795
 N-N= 8.891267385853D+02 E-N=-8.100568072763D+03  KE= 2.667605180304D+03
 Merz-Kollman atomic radii used.
 Read replacement radii for each type of atom:
 Rad(20) =   1.188000000000D+00
 Atom Element Radius
    1     8    1.40
    2     8    1.40
    3     8    1.40
    4     8    1.40
    5    15    1.80
    6    20    1.19
    7    20    1.19
    8    20    1.19

 **********************************************************************

            Electrostatic Properties Using The SCF Density

 **********************************************************************

       Atomic Center    1 is at  -1.074933 -0.313138 -1.549142
       Atomic Center    2 is at  -2.089739 -0.006545 -0.513052
       Atomic Center    3 is at  -0.230606 -1.421888 -1.068322
       Atomic Center    4 is at   1.300666  1.244543 -0.121582
       Atomic Center    5 is at   1.070459  0.655846  1.575978
       Atomic Center    6 is at  -1.142876 -1.400957  1.091298
       Atomic Center    7 is at  -0.802446  1.883159 -0.279382
       Atomic Center    8 is at   1.980322 -0.775275 -0.693062
     743 points will be used for fitting atomic charges
 Fitting point charges to eletrostatic potential
 Charges from ESP fit, RMS=   0.01445 RRMS=   0.09092:
 Charge=   1.00000 Dipole=    -0.1005    -1.8023    -1.8662 Tot=     2.5964
              1
     1  O   -0.050756
     2  O   -0.675481
     3  O   -0.734947
     4  O   -0.631428
     5  P   -1.009328
     6  Ca   1.202053
     7  Ca   1.481883
     8  Ca   1.418005
 -----------------------------------------------------------------

              Electrostatic Properties (Atomic Units)

 -----------------------------------------------------------------
    Center     Electric         -------- Electric Field --------
               Potential          X             Y             Z
 -----------------------------------------------------------------
    1 Atom    -22.105895
    2 Atom    -22.195616
    3 Atom    -22.190569
    4 Atom    -22.249594
    5 Atom    -54.058867
    6 Atom    -80.035080
    7 Atom    -80.022013
    8 Atom    -80.017816
 -----------------------------------------------------------------
 1\1\GINC-N035\SP\RB3LYP\6-31+G(d,p)\Ca3O4P1(1+)\TIMN\12-Jun-2015\0\\# 
 b3lyp/6-31+G(d,p) int=ultrafine pop=(ReadRadii,MK)\\Ca3PO4_208.mol2c_p
 lusQ.z51418.zip.xyz\\1,1\O,0,-1.07493,-0.31315,-1.54914\O,0,-2.08974,-
 0.00657,-0.51305\O,0,-0.23059,-1.42189,-1.06832\O,0,1.30065,1.24456,-0
 .12158\P,0,1.07045,0.65586,1.57598\Ca,0,-1.14286,-1.40097,1.0913\Ca,0,
 -0.80247,1.88315,-0.27938\Ca,0,1.98033,-0.77525,-0.69306\\Version=EM64
 T-G03RevE.01\State=1-A\HF=-2674.7452286\RMSD=5.298e-05\Thermal=0.\Dipo
 le=0.0856297,-0.3707784,-0.7926451\PG=C01 [X(Ca3O4P1)]\\@


 I LOVE THOSE WHO LONG FOR THE IMPOSSIBLE.

                                 -- GOETHE
 Job cpu time:  0 days  0 hours  1 minutes 49.6 seconds.
 File lengths (MBytes):  RWF=     32 Int=      0 D2E=      0 Chk=     11 Scr=      1
 Normal termination of Gaussian 03 at Fri Jun 12 17:41:47 2015.
