 Entering Gaussian System, Link 0=/home/timn/tmp/g03.e01/g03
 Input=Ca3PO4_109.mol2_plusQ.z51109.zip.xyz.gjf
 Output=Ca3PO4_109.mol2_plusQ.z51109.zip.xyz.out
 Initial command:
 /home/timn/tmp/g03.e01/l1.exe /home/timn/tmp/g03.e01/Gau-17765.inp -scrdir=/home/timn/tmp/g03.e01/
 Default is to use a total of   2 processors:
                                2 via shared-memory
                                1 via Linda
 Entering Link 1 = /home/timn/tmp/g03.e01/l1.exe PID=     17766.
  
 Copyright (c) 1988,1990,1992,1993,1995,1998,2003,2004,2007, Gaussian, Inc.
                  All Rights Reserved.
  
 This is the Gaussian(R) 03 program.  It is based on the
 the Gaussian(R) 98 system (copyright 1998, Gaussian, Inc.),
 the Gaussian(R) 94 system (copyright 1995, Gaussian, Inc.),
 the Gaussian 92(TM) system (copyright 1992, Gaussian, Inc.),
 the Gaussian 90(TM) system (copyright 1990, Gaussian, Inc.),
 the Gaussian 88(TM) system (copyright 1988, Gaussian, Inc.),
 the Gaussian 86(TM) system (copyright 1986, Carnegie Mellon
 University), and the Gaussian 82(TM) system (copyright 1983,
 Carnegie Mellon University). Gaussian is a federally registered
 trademark of Gaussian, Inc.
  
 This software contains proprietary and confidential information,
 including trade secrets, belonging to Gaussian, Inc.
  
 This software is provided under written license and may be
 used, copied, transmitted, or stored only in accord with that
 written license.
  
 The following legend is applicable only to US Government
 contracts under FAR:
  
                    RESTRICTED RIGHTS LEGEND
  
 Use, reproduction and disclosure by the US Government is
 subject to restrictions as set forth in subparagraphs (a)
 and (c) of the Commercial Computer Software - Restricted
 Rights clause in FAR 52.227-19.
  
 Gaussian, Inc.
 340 Quinnipiac St., Bldg. 40, Wallingford CT 06492
  
  
 ---------------------------------------------------------------
 Warning -- This program may not be used in any manner that
 competes with the business of Gaussian, Inc. or will provide
 assistance to any competitor of Gaussian, Inc.  The licensee
 of this program is prohibited from giving any competitor of
 Gaussian, Inc. access to this program.  By using this program,
 the user acknowledges that Gaussian, Inc. is engaged in the
 business of creating and licensing software in the field of
 computational chemistry and represents and warrants to the
 licensee that it is not a competitor of Gaussian, Inc. and that
 it will not use this program in any manner prohibited above.
 ---------------------------------------------------------------
  

 Cite this work as:
 Gaussian 03, Revision E.01,
 M. J. Frisch, G. W. Trucks, H. B. Schlegel, G. E. Scuseria, 
 M. A. Robb, J. R. Cheeseman, J. A. Montgomery, Jr., T. Vreven, 
 K. N. Kudin, J. C. Burant, J. M. Millam, S. S. Iyengar, J. Tomasi, 
 V. Barone, B. Mennucci, M. Cossi, G. Scalmani, N. Rega, 
 G. A. Petersson, H. Nakatsuji, M. Hada, M. Ehara, K. Toyota, 
 R. Fukuda, J. Hasegawa, M. Ishida, T. Nakajima, Y. Honda, O. Kitao, 
 H. Nakai, M. Klene, X. Li, J. E. Knox, H. P. Hratchian, J. B. Cross, 
 V. Bakken, C. Adamo, J. Jaramillo, R. Gomperts, R. E. Stratmann, 
 O. Yazyev, A. J. Austin, R. Cammi, C. Pomelli, J. W. Ochterski, 
 P. Y. Ayala, K. Morokuma, G. A. Voth, P. Salvador, J. J. Dannenberg, 
 V. G. Zakrzewski, S. Dapprich, A. D. Daniels, M. C. Strain, 
 O. Farkas, D. K. Malick, A. D. Rabuck, K. Raghavachari, 
 J. B. Foresman, J. V. Ortiz, Q. Cui, A. G. Baboul, S. Clifford, 
 J. Cioslowski, B. B. Stefanov, G. Liu, A. Liashenko, P. Piskorz, 
 I. Komaromi, R. L. Martin, D. J. Fox, T. Keith, M. A. Al-Laham, 
 C. Y. Peng, A. Nanayakkara, M. Challacombe, P. M. W. Gill, 
 B. Johnson, W. Chen, M. W. Wong, C. Gonzalez, and J. A. Pople, 
 Gaussian, Inc., Wallingford CT, 2004.
 
 ******************************************
 Gaussian 03:  EM64T-G03RevE.01 11-Sep-2007
                12-Jun-2015 
 ******************************************
 %nproc=2
 Will use up to    2 processors via shared memory.
 Default route:  MP2=Direct MaxDisk=2000MB
 ----------------------------------------------------
 # b3lyp/6-31+G(d,p) int=ultrafine pop=(ReadRadii,MK)
 ----------------------------------------------------

 Warning!  SCF SP cutoffs with diffuse functions may be unreliable.
 Consider SCF=Tight

 1/38=1/1;
 2/17=6,18=5,40=1/2;
 3/5=1,6=6,7=111,11=2,16=1,25=1,30=1,74=-5,75=5/1,2,3;
 4//1;
 5/5=2,32=1,38=5/2;
 6/7=2,8=2,9=2,10=2,15=8,20=101,28=1/1,2;
 99/5=1,9=1/99;
 ------------------------------------
 Ca3PO4_109.mol2_plusQ.z51109.zip.xyz
 ------------------------------------
 Symbolic Z-matrix:
 Charge =  1 Multiplicity = 1
 O                     0.78769  -1.08753   0.00437 
 O                     2.58693   1.37431  -0.00249 
 O                    -1.27419  -0.08753   1.20837 
 O                    -1.27145  -0.09259  -1.2083 
 P                    -0.79657  -1.16327   0.00253 
 Ca                    0.42953   1.40625   0.00157 
 Ca                   -3.18484   0.1174   -0.00262 
 Ca                    3.02115  -0.69386  -0.00163 
 
                          Input orientation:                          
 ---------------------------------------------------------------------
 Center     Atomic     Atomic              Coordinates (Angstroms)
 Number     Number      Type              X           Y           Z
 ---------------------------------------------------------------------
    1          8             0        0.787690   -1.087530    0.004370
    2          8             0        2.586930    1.374310   -0.002490
    3          8             0       -1.274190   -0.087530    1.208370
    4          8             0       -1.271450   -0.092590   -1.208300
    5         15             0       -0.796570   -1.163270    0.002530
    6         20             0        0.429530    1.406250    0.001570
    7         20             0       -3.184840    0.117400   -0.002620
    8         20             0        3.021150   -0.693860   -0.001630
 ---------------------------------------------------------------------
                    Distance matrix (angstroms):
                    1          2          3          4          5
     1  O    0.000000
     2  O    3.049257   0.000000
     3  O    2.588622   4.302488   0.000000
     4  O    2.588539   4.300334   2.416677   0.000000
     5  P    1.586071   4.229351   1.685048   1.684629   0.000000
     6  Ca   2.519370   2.157640   2.567179   2.569755   2.847061
     7  Ca   4.151253   5.907043   2.271360   2.271304   2.709977
     8  Ca   2.267897   2.113262   4.503519   4.499332   3.846472
                    6          7          8
     6  Ca   0.000000
     7  Ca   3.837294   0.000000
     8  Ca   3.335711   6.258790   0.000000
 Stoichiometry    Ca3O4P(1+)
 Framework group  C1[X(Ca3O4P)]
 Deg. of freedom    18
 Full point group                 C1
 Largest Abelian subgroup         C1      NOp   1
 Largest concise Abelian subgroup C1      NOp   1
                         Standard orientation:                         
 ---------------------------------------------------------------------
 Center     Atomic     Atomic              Coordinates (Angstroms)
 Number     Number      Type              X           Y           Z
 ---------------------------------------------------------------------
    1          8             0        0.787690   -1.087530    0.004370
    2          8             0        2.586928    1.374312   -0.002490
    3          8             0       -1.274191   -0.087531    1.208370
    4          8             0       -1.271451   -0.092591   -1.208300
    5         15             0       -0.796570   -1.163271    0.002530
    6         20             0        0.429528    1.406250    0.001570
    7         20             0       -3.184841    0.117397   -0.002620
    8         20             0        3.021150   -0.693858   -0.001630
 ---------------------------------------------------------------------
 Rotational constants (GHZ):      2.1340218      0.4990777      0.4371682
 Standard basis: 6-31+G(d,p) (6D, 7F)
 There are   180 symmetry adapted basis functions of A   symmetry.
 Integral buffers will be    131072 words long.
 Raffenetti 2 integral format.
 Two-electron integral symmetry is turned on.
   180 basis functions,   424 primitive gaussians,   180 cartesian basis functions
    53 alpha electrons       53 beta electrons
       nuclear repulsion energy       868.5941792078 Hartrees.
 NAtoms=    8 NActive=    8 NUniq=    8 SFac= 7.50D-01 NAtFMM=   80 NAOKFM=F Big=F
 One-electron integrals computed using PRISM.
 NBasis=   180 RedAO= T  NBF=   180
 NBsUse=   180 1.00D-06 NBFU=   180
 Harris functional with IExCor=  402 diagonalized for initial guess.
 ExpMin= 7.10D-03 ExpMax= 3.53D+04 ExpMxC= 5.30D+03 IAcc=3 IRadAn=         5 AccDes= 0.00D+00
 HarFok:  IExCor= 402 AccDes= 0.00D+00 IRadAn=         5 IDoV=1
 ScaDFX=  1.000000  1.000000  1.000000  1.000000
 Initial guess orbital symmetries:
       Occupied  (A) (A) (A) (A) (A) (A) (A) (A) (A) (A) (A) (A)
                 (A) (A) (A) (A) (A) (A) (A) (A) (A) (A) (A) (A)
                 (A) (A) (A) (A) (A) (A) (A) (A) (A) (A) (A) (A)
                 (A) (A) (A) (A) (A) (A) (A) (A) (A) (A) (A) (A)
                 (A) (A) (A) (A) (A)
       Virtual   (A) (A) (A) (A) (A) (A) (A) (A) (A) (A) (A) (A)
                 (A) (A) (A) (A) (A) (A) (A) (A) (A) (A) (A) (A)
                 (A) (A) (A) (A) (A) (A) (A) (A) (A) (A) (A) (A)
                 (A) (A) (A) (A) (A) (A) (A) (A) (A) (A) (A) (A)
                 (A) (A) (A) (A) (A) (A) (A) (A) (A) (A) (A) (A)
                 (A) (A) (A) (A) (A) (A) (A) (A) (A) (A) (A) (A)
                 (A) (A) (A) (A) (A) (A) (A) (A) (A) (A) (A) (A)
                 (A) (A) (A) (A) (A) (A) (A) (A) (A) (A) (A) (A)
                 (A) (A) (A) (A) (A) (A) (A) (A) (A) (A) (A) (A)
                 (A) (A) (A) (A) (A) (A) (A) (A) (A) (A) (A) (A)
                 (A) (A) (A) (A) (A) (A) (A)
 The electronic state of the initial guess is 1-A.
 Requested convergence on RMS density matrix=1.00D-04 within 128 cycles.
 Requested convergence on MAX density matrix=1.00D-02.
 Requested convergence on             energy=1.00D-02.
 No special actions if energy rises.
 SCF Done:  E(RB+HF-LYP) =  -2674.97649567     A.U. after   10 cycles
             Convg  =    0.7645D-04             -V/T =  2.0027
             S**2   =   0.0000

 **********************************************************************

            Population analysis using the SCF density.

 **********************************************************************

 Orbital symmetries:
       Occupied  (A) (A) (A) (A) (A) (A) (A) (A) (A) (A) (A) (A)
                 (A) (A) (A) (A) (A) (A) (A) (A) (A) (A) (A) (A)
                 (A) (A) (A) (A) (A) (A) (A) (A) (A) (A) (A) (A)
                 (A) (A) (A) (A) (A) (A) (A) (A) (A) (A) (A) (A)
                 (A) (A) (A) (A) (A)
       Virtual   (A) (A) (A) (A) (A) (A) (A) (A) (A) (A) (A) (A)
                 (A) (A) (A) (A) (A) (A) (A) (A) (A) (A) (A) (A)
                 (A) (A) (A) (A) (A) (A) (A) (A) (A) (A) (A) (A)
                 (A) (A) (A) (A) (A) (A) (A) (A) (A) (A) (A) (A)
                 (A) (A) (A) (A) (A) (A) (A) (A) (A) (A) (A) (A)
                 (A) (A) (A) (A) (A) (A) (A) (A) (A) (A) (A) (A)
                 (A) (A) (A) (A) (A) (A) (A) (A) (A) (A) (A) (A)
                 (A) (A) (A) (A) (A) (A) (A) (A) (A) (A) (A) (A)
                 (A) (A) (A) (A) (A) (A) (A) (A) (A) (A) (A) (A)
                 (A) (A) (A) (A) (A) (A) (A) (A) (A) (A) (A) (A)
                 (A) (A) (A) (A) (A) (A) (A)
 The electronic state is 1-A.
 Alpha  occ. eigenvalues -- -145.56757-145.48575-145.45328 -77.25582 -19.22426
 Alpha  occ. eigenvalues --  -19.21171 -19.21159 -19.10413 -15.63557 -15.55419
 Alpha  occ. eigenvalues --  -15.52234 -12.76798 -12.76705 -12.76692 -12.68658
 Alpha  occ. eigenvalues --  -12.68582 -12.68513 -12.65469 -12.65459 -12.65280
 Alpha  occ. eigenvalues --   -6.70798  -4.87153  -4.87137  -4.86673  -2.00527
 Alpha  occ. eigenvalues --   -1.92612  -1.89551  -1.28240  -1.27874  -1.27591
 Alpha  occ. eigenvalues --   -1.20373  -1.20270  -1.19539  -1.17650  -1.17207
 Alpha  occ. eigenvalues --   -1.16508  -1.08153  -1.02179  -0.99472  -0.84547
 Alpha  occ. eigenvalues --   -0.63130  -0.51907  -0.49617  -0.49454  -0.43731
 Alpha  occ. eigenvalues --   -0.42325  -0.40394  -0.38562  -0.35398  -0.32422
 Alpha  occ. eigenvalues --   -0.30217  -0.28666  -0.28303
 Alpha virt. eigenvalues --   -0.23287  -0.18053  -0.16529  -0.13556  -0.13353
 Alpha virt. eigenvalues --   -0.10189  -0.09901  -0.08708  -0.07807  -0.07744
 Alpha virt. eigenvalues --   -0.07287  -0.06284  -0.05721  -0.05544  -0.05420
 Alpha virt. eigenvalues --   -0.05091  -0.05039  -0.04423  -0.04089  -0.03793
 Alpha virt. eigenvalues --   -0.03503  -0.03204  -0.03159  -0.03003  -0.02516
 Alpha virt. eigenvalues --   -0.02010  -0.01085  -0.00496   0.00325   0.01962
 Alpha virt. eigenvalues --    0.02494   0.02940   0.03103   0.03326   0.03367
 Alpha virt. eigenvalues --    0.05468   0.05503   0.06286   0.06499   0.08028
 Alpha virt. eigenvalues --    0.08043   0.08579   0.09040   0.09865   0.09988
 Alpha virt. eigenvalues --    0.10588   0.10636   0.11886   0.13493   0.14392
 Alpha virt. eigenvalues --    0.15074   0.16459   0.18048   0.18365   0.18926
 Alpha virt. eigenvalues --    0.21445   0.21472   0.22952   0.23696   0.24406
 Alpha virt. eigenvalues --    0.24639   0.25584   0.26317   0.28055   0.31575
 Alpha virt. eigenvalues --    0.32285   0.34734   0.34986   0.37676   0.38625
 Alpha virt. eigenvalues --    0.40390   0.40731   0.44133   0.46247   0.46922
 Alpha virt. eigenvalues --    0.53777   0.56378   0.59570   0.60811   0.67716
 Alpha virt. eigenvalues --    0.77699   0.85947   0.90197   0.90409   0.94810
 Alpha virt. eigenvalues --    1.06437   1.11319   1.14649   1.17515   1.18460
 Alpha virt. eigenvalues --    1.20895   1.21095   1.22446   1.25325   1.25845
 Alpha virt. eigenvalues --    1.27815   1.29854   1.33208   1.48116   1.49145
 Alpha virt. eigenvalues --    1.56252   1.69686   1.70921   1.74495   1.75411
 Alpha virt. eigenvalues --    1.77172   1.79886   1.81129   1.82675   1.84637
 Alpha virt. eigenvalues --    1.87435   1.88192   1.91895   1.93351   1.94348
 Alpha virt. eigenvalues --    1.98605   1.98973   2.06434   2.08966   2.40457
 Alpha virt. eigenvalues --    2.52643   2.65733   3.52191   4.00551   4.00963
 Alpha virt. eigenvalues --    4.04608   4.21759
          Condensed to atoms (all electrons):
              1          2          3          4          5          6
     1  O    9.144924  -0.021842  -0.027439  -0.027764  -0.099722  -0.038583
     2  O   -0.021842   8.712348  -0.001416  -0.001392   0.006383   0.219819
     3  O   -0.027439  -0.001416   8.986737   0.063703  -0.365606   0.039773
     4  O   -0.027764  -0.001392   0.063703   8.987006  -0.365907   0.039905
     5  P   -0.099722   0.006383  -0.365606  -0.365907  15.090035   0.101693
     6  Ca  -0.038583   0.219819   0.039773   0.039905   0.101693  18.378525
     7  Ca   0.050807  -0.002611   0.170207   0.170115  -0.129824  -0.032567
     8  Ca   0.067983   0.231792   0.007539   0.007479  -0.016597  -0.032262
              7          8
     1  O    0.050807   0.067983
     2  O   -0.002611   0.231792
     3  O    0.170207   0.007539
     4  O    0.170115   0.007479
     5  P   -0.129824  -0.016597
     6  Ca  -0.032567  -0.032262
     7  Ca  18.317463   0.005469
     8  Ca   0.005469  18.344693
 Mulliken atomic charges:
              1
     1  O   -1.048364
     2  O   -1.143081
     3  O   -0.873498
     4  O   -0.873144
     5  P    0.779546
     6  Ca   1.323697
     7  Ca   1.450941
     8  Ca   1.383905
 Sum of Mulliken charges=   1.00000
 Atomic charges with hydrogens summed into heavy atoms:
              1
     1  O   -1.048364
     2  O   -1.143081
     3  O   -0.873498
     4  O   -0.873144
     5  P    0.779546
     6  Ca   1.323697
     7  Ca   1.450941
     8  Ca   1.383905
 Sum of Mulliken charges=   1.00000
 Electronic spatial extent (au):  <R**2>=  2248.6032
 Charge=     1.0000 electrons
 Dipole moment (field-independent basis, Debye):
    X=    -7.9314    Y=    -0.4448    Z=    -0.0148  Tot=     7.9438
 Quadrupole moment (field-independent basis, Debye-Ang):
   XX=    13.2489   YY=   -68.8177   ZZ=   -82.8369
   XY=   -35.8400   XZ=     0.0759   YZ=     0.0361
 Traceless Quadrupole moment (field-independent basis, Debye-Ang):
   XX=    59.3842   YY=   -22.6825   ZZ=   -36.7017
   XY=   -35.8400   XZ=     0.0759   YZ=     0.0361
 Octapole moment (field-independent basis, Debye-Ang**2):
  XXX=  -145.3173  YYY=    21.6830  ZZZ=    -0.0311  XYY=   -15.3633
  XXY=   -90.0751  XXZ=    -0.2907  XZZ=    14.1201  YZZ=     1.2633
  YYZ=     0.0085  XYZ=     0.1457
 Hexadecapole moment (field-independent basis, Debye-Ang**3):
 XXXX=  -599.3316 YYYY=  -488.5652 ZZZZ=  -232.6684 XXXY=  -413.5190
 XXXZ=     0.8477 YYYX=  -115.7794 YYYZ=     0.2205 ZZZX=     0.1777
 ZZZY=     0.0459 XXYY=  -431.1254 XXZZ=  -348.0325 YYZZ=  -114.1873
 XXYZ=     0.2122 YYXZ=     0.1105 ZZXY=   -26.9597
 N-N= 8.685941792078D+02 E-N=-8.061716656184D+03  KE= 2.667648117264D+03
 Merz-Kollman atomic radii used.
 Read replacement radii for each type of atom:
 Rad(20) =   1.188000000000D+00
 Atom Element Radius
    1     8    1.40
    2     8    1.40
    3     8    1.40
    4     8    1.40
    5    15    1.80
    6    20    1.19
    7    20    1.19
    8    20    1.19

 **********************************************************************

            Electrostatic Properties Using The SCF Density

 **********************************************************************

       Atomic Center    1 is at   0.787690 -1.087530  0.004370
       Atomic Center    2 is at   2.586928  1.374312 -0.002490
       Atomic Center    3 is at  -1.274191 -0.087531  1.208370
       Atomic Center    4 is at  -1.271451 -0.092591 -1.208300
       Atomic Center    5 is at  -0.796570 -1.163271  0.002530
       Atomic Center    6 is at   0.429528  1.406250  0.001570
       Atomic Center    7 is at  -3.184841  0.117397 -0.002620
       Atomic Center    8 is at   3.021150 -0.693858 -0.001630
     723 points will be used for fitting atomic charges
 Fitting point charges to eletrostatic potential
 Charges from ESP fit, RMS=   0.00795 RRMS=   0.05014:
 Charge=   1.00000 Dipole=    -7.9407    -0.3019    -0.0083 Tot=     7.9465
              1
     1  O   -0.587383
     2  O   -1.451308
     3  O   -0.931063
     4  O   -0.931894
     5  P    0.183557
     6  Ca   1.585916
     7  Ca   1.579935
     8  Ca   1.552238
 -----------------------------------------------------------------

              Electrostatic Properties (Atomic Units)

 -----------------------------------------------------------------
    Center     Electric         -------- Electric Field --------
               Potential          X             Y             Z
 -----------------------------------------------------------------
    1 Atom    -22.240802
    2 Atom    -22.360040
    3 Atom    -22.250976
    4 Atom    -22.251346
    5 Atom    -53.955099
    6 Atom    -80.088684
    7 Atom    -79.975264
    8 Atom    -80.054877
 -----------------------------------------------------------------
 1\1\GINC-N027\SP\RB3LYP\6-31+G(d,p)\Ca3O4P1(1+)\TIMN\12-Jun-2015\0\\# 
 b3lyp/6-31+G(d,p) int=ultrafine pop=(ReadRadii,MK)\\Ca3PO4_109.mol2_pl
 usQ.z51109.zip.xyz\\1,1\O,0,0.78769,-1.08753,0.00437\O,0,2.58693,1.374
 31,-0.00249\O,0,-1.27419,-0.08753,1.20837\O,0,-1.27145,-0.09259,-1.208
 3\P,0,-0.79657,-1.16327,0.00253\Ca,0,0.42953,1.40625,0.00157\Ca,0,-3.1
 8484,0.1174,-0.00262\Ca,0,3.02115,-0.69386,-0.00163\\Version=EM64T-G03
 RevE.01\State=1-A\HF=-2674.9764957\RMSD=7.645e-05\Thermal=0.\Dipole=-3
 .1204407,-0.1749831,-0.0058397\PG=C01 [X(Ca3O4P1)]\\@


 IT IS UNWORTHY OF EXCELLENT MEN TO LOSE HOURS LIKE SLAVES IN THE LABOR
 OF CALCULATION WHICH COULD BE SAFELY RELEGATED TO ANYONE ELSE
 IF A MACHINE WERE USED.
    -- G.W. VON LEIBNIZ
 Job cpu time:  0 days  0 hours  1 minutes 57.0 seconds.
 File lengths (MBytes):  RWF=     32 Int=      0 D2E=      0 Chk=     11 Scr=      1
 Normal termination of Gaussian 03 at Fri Jun 12 17:36:20 2015.
