 Entering Gaussian System, Link 0=/home/timn/tmp/g03.e01/g03
 Input=Ca3PO4_166.mol2ccc_plusQ.z51172.zip.xyz.gjf
 Output=Ca3PO4_166.mol2ccc_plusQ.z51172.zip.xyz.out
 Initial command:
 /home/timn/tmp/g03.e01/l1.exe /home/timn/tmp/g03.e01/Gau-13232.inp -scrdir=/home/timn/tmp/g03.e01/
 Default is to use a total of   2 processors:
                                2 via shared-memory
                                1 via Linda
 Entering Link 1 = /home/timn/tmp/g03.e01/l1.exe PID=     13233.
  
 Copyright (c) 1988,1990,1992,1993,1995,1998,2003,2004,2007, Gaussian, Inc.
                  All Rights Reserved.
  
 This is the Gaussian(R) 03 program.  It is based on the
 the Gaussian(R) 98 system (copyright 1998, Gaussian, Inc.),
 the Gaussian(R) 94 system (copyright 1995, Gaussian, Inc.),
 the Gaussian 92(TM) system (copyright 1992, Gaussian, Inc.),
 the Gaussian 90(TM) system (copyright 1990, Gaussian, Inc.),
 the Gaussian 88(TM) system (copyright 1988, Gaussian, Inc.),
 the Gaussian 86(TM) system (copyright 1986, Carnegie Mellon
 University), and the Gaussian 82(TM) system (copyright 1983,
 Carnegie Mellon University). Gaussian is a federally registered
 trademark of Gaussian, Inc.
  
 This software contains proprietary and confidential information,
 including trade secrets, belonging to Gaussian, Inc.
  
 This software is provided under written license and may be
 used, copied, transmitted, or stored only in accord with that
 written license.
  
 The following legend is applicable only to US Government
 contracts under FAR:
  
                    RESTRICTED RIGHTS LEGEND
  
 Use, reproduction and disclosure by the US Government is
 subject to restrictions as set forth in subparagraphs (a)
 and (c) of the Commercial Computer Software - Restricted
 Rights clause in FAR 52.227-19.
  
 Gaussian, Inc.
 340 Quinnipiac St., Bldg. 40, Wallingford CT 06492
  
  
 ---------------------------------------------------------------
 Warning -- This program may not be used in any manner that
 competes with the business of Gaussian, Inc. or will provide
 assistance to any competitor of Gaussian, Inc.  The licensee
 of this program is prohibited from giving any competitor of
 Gaussian, Inc. access to this program.  By using this program,
 the user acknowledges that Gaussian, Inc. is engaged in the
 business of creating and licensing software in the field of
 computational chemistry and represents and warrants to the
 licensee that it is not a competitor of Gaussian, Inc. and that
 it will not use this program in any manner prohibited above.
 ---------------------------------------------------------------
  

 Cite this work as:
 Gaussian 03, Revision E.01,
 M. J. Frisch, G. W. Trucks, H. B. Schlegel, G. E. Scuseria, 
 M. A. Robb, J. R. Cheeseman, J. A. Montgomery, Jr., T. Vreven, 
 K. N. Kudin, J. C. Burant, J. M. Millam, S. S. Iyengar, J. Tomasi, 
 V. Barone, B. Mennucci, M. Cossi, G. Scalmani, N. Rega, 
 G. A. Petersson, H. Nakatsuji, M. Hada, M. Ehara, K. Toyota, 
 R. Fukuda, J. Hasegawa, M. Ishida, T. Nakajima, Y. Honda, O. Kitao, 
 H. Nakai, M. Klene, X. Li, J. E. Knox, H. P. Hratchian, J. B. Cross, 
 V. Bakken, C. Adamo, J. Jaramillo, R. Gomperts, R. E. Stratmann, 
 O. Yazyev, A. J. Austin, R. Cammi, C. Pomelli, J. W. Ochterski, 
 P. Y. Ayala, K. Morokuma, G. A. Voth, P. Salvador, J. J. Dannenberg, 
 V. G. Zakrzewski, S. Dapprich, A. D. Daniels, M. C. Strain, 
 O. Farkas, D. K. Malick, A. D. Rabuck, K. Raghavachari, 
 J. B. Foresman, J. V. Ortiz, Q. Cui, A. G. Baboul, S. Clifford, 
 J. Cioslowski, B. B. Stefanov, G. Liu, A. Liashenko, P. Piskorz, 
 I. Komaromi, R. L. Martin, D. J. Fox, T. Keith, M. A. Al-Laham, 
 C. Y. Peng, A. Nanayakkara, M. Challacombe, P. M. W. Gill, 
 B. Johnson, W. Chen, M. W. Wong, C. Gonzalez, and J. A. Pople, 
 Gaussian, Inc., Wallingford CT, 2004.
 
 ******************************************
 Gaussian 03:  EM64T-G03RevE.01 11-Sep-2007
                12-Jun-2015 
 ******************************************
 %nproc=2
 Will use up to    2 processors via shared memory.
 Default route:  MP2=Direct MaxDisk=2000MB
 ----------------------------------------------------
 # b3lyp/6-31+G(d,p) int=ultrafine pop=(ReadRadii,MK)
 ----------------------------------------------------

 Warning!  SCF SP cutoffs with diffuse functions may be unreliable.
 Consider SCF=Tight

 1/38=1/1;
 2/17=6,18=5,40=1/2;
 3/5=1,6=6,7=111,11=2,16=1,25=1,30=1,74=-5,75=5/1,2,3;
 4//1;
 5/5=2,32=1,38=5/2;
 6/7=2,8=2,9=2,10=2,15=8,20=101,28=1/1,2;
 99/5=1,9=1/99;
 ---------------------------------------
 Ca3PO4_166.mol2ccc_plusQ.z51172.zip.xyz
 ---------------------------------------
 Symbolic Z-matrix:
 Charge =  1 Multiplicity = 1
 O                     0.58744   1.25378  -0.10845 
 O                     0.58646  -1.25328  -0.10911 
 O                     2.23931  -0.00093   1.33088 
 O                    -2.69226   0.00017  -0.33303 
 P                     0.69183   0.00007   1.03476 
 Ca                   -1.62345   1.81806  -0.07607 
 Ca                   -1.62375  -1.81798  -0.07615 
 Ca                    2.43995  -0.00002  -0.93597 
 
                          Input orientation:                          
 ---------------------------------------------------------------------
 Center     Atomic     Atomic              Coordinates (Angstroms)
 Number     Number      Type              X           Y           Z
 ---------------------------------------------------------------------
    1          8             0        0.587440    1.253780   -0.108450
    2          8             0        0.586460   -1.253280   -0.109110
    3          8             0        2.239310   -0.000930    1.330880
    4          8             0       -2.692260    0.000170   -0.333030
    5         15             0        0.691830    0.000070    1.034760
    6         20             0       -1.623450    1.818060   -0.076070
    7         20             0       -1.623750   -1.817980   -0.076150
    8         20             0        2.439950   -0.000020   -0.935970
 ---------------------------------------------------------------------
                    Distance matrix (angstroms):
                    1          2          3          4          5
     1  O    0.000000
     2  O    2.507060   0.000000
     3  O    2.524805   2.524651   0.000000
     4  O    3.518296   3.517283   5.204708   0.000000
     5  P    1.699887   1.700126   1.575558   3.650057   0.000000
     6  Ca   2.281994   3.783903   4.495459   2.124408   3.146355
     7  Ca   3.784985   2.281447   4.494957   2.124469   3.146639
     8  Ca   2.385078   2.385327   2.275712   5.167506   2.634331
                    6          7          8
     6  Ca   0.000000
     7  Ca   3.636040   0.000000
     8  Ca   4.533879   4.534085   0.000000
 Stoichiometry    Ca3O4P(1+)
 Framework group  C1[X(Ca3O4P)]
 Deg. of freedom    18
 Full point group                 C1
 Largest Abelian subgroup         C1      NOp   1
 Largest concise Abelian subgroup C1      NOp   1
                         Standard orientation:                         
 ---------------------------------------------------------------------
 Center     Atomic     Atomic              Coordinates (Angstroms)
 Number     Number      Type              X           Y           Z
 ---------------------------------------------------------------------
    1          8             0        0.587439    1.253779   -0.108449
    2          8             0        0.586460   -1.253281   -0.109109
    3          8             0        2.239310   -0.000931    1.330881
    4          8             0       -2.692260    0.000167   -0.333029
    5         15             0        0.691830    0.000069    1.034761
    6         20             0       -1.623451    1.818058   -0.076069
    7         20             0       -1.623750   -1.817982   -0.076149
    8         20             0        2.439950   -0.000020   -0.935969
 ---------------------------------------------------------------------
 Rotational constants (GHZ):      1.2220538      0.6565917      0.5130636
 Standard basis: 6-31+G(d,p) (6D, 7F)
 There are   180 symmetry adapted basis functions of A   symmetry.
 Integral buffers will be    131072 words long.
 Raffenetti 2 integral format.
 Two-electron integral symmetry is turned on.
   180 basis functions,   424 primitive gaussians,   180 cartesian basis functions
    53 alpha electrons       53 beta electrons
       nuclear repulsion energy       872.1882734673 Hartrees.
 NAtoms=    8 NActive=    8 NUniq=    8 SFac= 7.50D-01 NAtFMM=   80 NAOKFM=F Big=F
 One-electron integrals computed using PRISM.
 NBasis=   180 RedAO= T  NBF=   180
 NBsUse=   180 1.00D-06 NBFU=   180
 Harris functional with IExCor=  402 diagonalized for initial guess.
 ExpMin= 7.10D-03 ExpMax= 3.53D+04 ExpMxC= 5.30D+03 IAcc=3 IRadAn=         5 AccDes= 0.00D+00
 HarFok:  IExCor= 402 AccDes= 0.00D+00 IRadAn=         5 IDoV=1
 ScaDFX=  1.000000  1.000000  1.000000  1.000000
 Initial guess orbital symmetries:
       Occupied  (A) (A) (A) (A) (A) (A) (A) (A) (A) (A) (A) (A)
                 (A) (A) (A) (A) (A) (A) (A) (A) (A) (A) (A) (A)
                 (A) (A) (A) (A) (A) (A) (A) (A) (A) (A) (A) (A)
                 (A) (A) (A) (A) (A) (A) (A) (A) (A) (A) (A) (A)
                 (A) (A) (A) (A) (A)
       Virtual   (A) (A) (A) (A) (A) (A) (A) (A) (A) (A) (A) (A)
                 (A) (A) (A) (A) (A) (A) (A) (A) (A) (A) (A) (A)
                 (A) (A) (A) (A) (A) (A) (A) (A) (A) (A) (A) (A)
                 (A) (A) (A) (A) (A) (A) (A) (A) (A) (A) (A) (A)
                 (A) (A) (A) (A) (A) (A) (A) (A) (A) (A) (A) (A)
                 (A) (A) (A) (A) (A) (A) (A) (A) (A) (A) (A) (A)
                 (A) (A) (A) (A) (A) (A) (A) (A) (A) (A) (A) (A)
                 (A) (A) (A) (A) (A) (A) (A) (A) (A) (A) (A) (A)
                 (A) (A) (A) (A) (A) (A) (A) (A) (A) (A) (A) (A)
                 (A) (A) (A) (A) (A) (A) (A) (A) (A) (A) (A) (A)
                 (A) (A) (A) (A) (A) (A) (A)
 The electronic state of the initial guess is 1-A.
 Requested convergence on RMS density matrix=1.00D-04 within 128 cycles.
 Requested convergence on MAX density matrix=1.00D-02.
 Requested convergence on             energy=1.00D-02.
 No special actions if energy rises.
 SCF Done:  E(RB+HF-LYP) =  -2674.99967846     A.U. after    8 cycles
             Convg  =    0.9144D-04             -V/T =  2.0027
             S**2   =   0.0000

 **********************************************************************

            Population analysis using the SCF density.

 **********************************************************************

 Orbital symmetries:
       Occupied  (A) (A) (A) (A) (A) (A) (A) (A) (A) (A) (A) (A)
                 (A) (A) (A) (A) (A) (A) (A) (A) (A) (A) (A) (A)
                 (A) (A) (A) (A) (A) (A) (A) (A) (A) (A) (A) (A)
                 (A) (A) (A) (A) (A) (A) (A) (A) (A) (A) (A) (A)
                 (A) (A) (A) (A) (A)
       Virtual   (A) (A) (A) (A) (A) (A) (A) (A) (A) (A) (A) (A)
                 (A) (A) (A) (A) (A) (A) (A) (A) (A) (A) (A) (A)
                 (A) (A) (A) (A) (A) (A) (A) (A) (A) (A) (A) (A)
                 (A) (A) (A) (A) (A) (A) (A) (A) (A) (A) (A) (A)
                 (A) (A) (A) (A) (A) (A) (A) (A) (A) (A) (A) (A)
                 (A) (A) (A) (A) (A) (A) (A) (A) (A) (A) (A) (A)
                 (A) (A) (A) (A) (A) (A) (A) (A) (A) (A) (A) (A)
                 (A) (A) (A) (A) (A) (A) (A) (A) (A) (A) (A) (A)
                 (A) (A) (A) (A) (A) (A) (A) (A) (A) (A) (A) (A)
                 (A) (A) (A) (A) (A) (A) (A) (A) (A) (A) (A) (A)
                 (A) (A) (A) (A) (A) (A) (A)
 The electronic state is 1-A.
 Alpha  occ. eigenvalues -- -145.52896-145.48521-145.48516 -77.24508 -19.21565
 Alpha  occ. eigenvalues --  -19.21551 -19.18910 -19.12192 -15.59693 -15.55424
 Alpha  occ. eigenvalues --  -15.55419 -12.72875 -12.72871 -12.72859 -12.68676
 Alpha  occ. eigenvalues --  -12.68671 -12.68607 -12.68602 -12.68483 -12.68478
 Alpha  occ. eigenvalues --   -6.69824  -4.86204  -4.86127  -4.85706  -1.96737
 Alpha  occ. eigenvalues --   -1.92689  -1.92663  -1.24714  -1.23999  -1.23963
 Alpha  occ. eigenvalues --   -1.20598  -1.20527  -1.20412  -1.20155  -1.19798
 Alpha  occ. eigenvalues --   -1.19305  -1.06954  -0.99977  -0.99930  -0.86577
 Alpha  occ. eigenvalues --   -0.61881  -0.49713  -0.49548  -0.48422  -0.42892
 Alpha  occ. eigenvalues --   -0.42359  -0.38148  -0.37916  -0.34576  -0.32844
 Alpha  occ. eigenvalues --   -0.32547  -0.30671  -0.30267
 Alpha virt. eigenvalues --   -0.20426  -0.18309  -0.17399  -0.12508  -0.11992
 Alpha virt. eigenvalues --   -0.10385  -0.10050  -0.08962  -0.08368  -0.08012
 Alpha virt. eigenvalues --   -0.07400  -0.06924  -0.06469  -0.05554  -0.05312
 Alpha virt. eigenvalues --   -0.05094  -0.04607  -0.04478  -0.04078  -0.03981
 Alpha virt. eigenvalues --   -0.03806  -0.03345  -0.03204  -0.03013  -0.02989
 Alpha virt. eigenvalues --   -0.02110  -0.00740   0.00381   0.00950   0.02177
 Alpha virt. eigenvalues --    0.02500   0.03695   0.04458   0.04597   0.05064
 Alpha virt. eigenvalues --    0.05152   0.05658   0.06261   0.06267   0.07334
 Alpha virt. eigenvalues --    0.07875   0.08138   0.08736   0.09153   0.09678
 Alpha virt. eigenvalues --    0.10494   0.10818   0.11183   0.11895   0.13948
 Alpha virt. eigenvalues --    0.15108   0.15327   0.15877   0.18525   0.20327
 Alpha virt. eigenvalues --    0.21768   0.22076   0.22899   0.23321   0.24877
 Alpha virt. eigenvalues --    0.25871   0.25888   0.27088   0.28297   0.28717
 Alpha virt. eigenvalues --    0.29951   0.33041   0.34501   0.37734   0.38561
 Alpha virt. eigenvalues --    0.39652   0.40752   0.44923   0.46910   0.48905
 Alpha virt. eigenvalues --    0.54419   0.59558   0.59741   0.64626   0.69000
 Alpha virt. eigenvalues --    0.69448   0.74890   0.88720   0.89375   0.91486
 Alpha virt. eigenvalues --    1.00702   1.12888   1.14373   1.16965   1.17774
 Alpha virt. eigenvalues --    1.18877   1.21567   1.22875   1.24356   1.25174
 Alpha virt. eigenvalues --    1.28331   1.28775   1.31243   1.46746   1.51243
 Alpha virt. eigenvalues --    1.55726   1.70971   1.73518   1.77163   1.77836
 Alpha virt. eigenvalues --    1.79145   1.80244   1.80577   1.84704   1.84845
 Alpha virt. eigenvalues --    1.85625   1.86064   1.88378   1.91422   1.95601
 Alpha virt. eigenvalues --    1.96185   2.00825   2.03132   2.10238   2.40187
 Alpha virt. eigenvalues --    2.50644   2.70524   3.51435   3.96525   4.03539
 Alpha virt. eigenvalues --    4.09014   4.17567
          Condensed to atoms (all electrons):
              1          2          3          4          5          6
     1  O    9.126998   0.110668   0.011702   0.012010  -0.461790   0.106845
     2  O    0.110668   9.126961   0.011635   0.012027  -0.461671   0.024063
     3  O    0.011702   0.011635   8.727508   0.004234  -0.020751   0.013017
     4  O    0.012010   0.012027   0.004234   8.773869  -0.063808   0.223066
     5  P   -0.461790  -0.461671  -0.020751  -0.063808  15.187275  -0.049590
     6  Ca   0.106845   0.024063   0.013017   0.223066  -0.049590  18.289535
     7  Ca   0.024035   0.106829   0.013025   0.222994  -0.049518  -0.012449
     8  Ca   0.027017   0.027001   0.119928  -0.000816   0.169862  -0.018751
              7          8
     1  O    0.024035   0.027017
     2  O    0.106829   0.027001
     3  O    0.013025   0.119928
     4  O    0.222994  -0.000816
     5  P   -0.049518   0.169862
     6  Ca  -0.012449  -0.018751
     7  Ca  18.289546  -0.018706
     8  Ca  -0.018706  18.314091
 Mulliken atomic charges:
              1
     1  O   -0.957485
     2  O   -0.957512
     3  O   -0.880298
     4  O   -1.183576
     5  P    0.749991
     6  Ca   1.424264
     7  Ca   1.424244
     8  Ca   1.380373
 Sum of Mulliken charges=   1.00000
 Atomic charges with hydrogens summed into heavy atoms:
              1
     1  O   -0.957485
     2  O   -0.957512
     3  O   -0.880298
     4  O   -1.183576
     5  P    0.749991
     6  Ca   1.424264
     7  Ca   1.424244
     8  Ca   1.380373
 Sum of Mulliken charges=   1.00000
 Electronic spatial extent (au):  <R**2>=  2050.1117
 Charge=     1.0000 electrons
 Dipole moment (field-independent basis, Debye):
    X=     1.5042    Y=     0.0007    Z=    -7.5029  Tot=     7.6522
 Quadrupole moment (field-independent basis, Debye-Ang):
   XX=   -53.1435   YY=   -32.3013   ZZ=   -70.0663
   XY=     0.0072   XZ=   -28.1184   YZ=     0.0018
 Traceless Quadrupole moment (field-independent basis, Debye-Ang):
   XX=    -1.3064   YY=    19.5358   ZZ=   -18.2293
   XY=     0.0072   XZ=   -28.1184   YZ=     0.0018
 Octapole moment (field-independent basis, Debye-Ang**2):
  XXX=   138.2215  YYY=    -0.0007  ZZZ=   -33.9142  XYY=   -98.7156
  XXY=    -0.0114  XXZ=   -59.5206  XZZ=     9.7111  YZZ=     0.0050
  YYZ=    -7.9359  XYZ=     0.0055
 Hexadecapole moment (field-independent basis, Debye-Ang**3):
 XXXX= -1416.8987 YYYY=  -414.5013 ZZZZ=  -306.4835 XXXY=     0.0968
 XXXZ=  -249.7919 YYYX=     0.0015 YYYZ=    -0.0005 ZZZX=   -75.7141
 ZZZY=     0.0065 XXYY=  -179.6130 XXZZ=  -268.6894 YYZZ=  -139.9712
 XXYZ=     0.0306 YYXZ=    -7.4811 ZZXY=     0.0185
 N-N= 8.721882734673D+02 E-N=-8.069677583389D+03  KE= 2.667723038788D+03
 Merz-Kollman atomic radii used.
 Read replacement radii for each type of atom:
 Rad(20) =   1.188000000000D+00
 Atom Element Radius
    1     8    1.40
    2     8    1.40
    3     8    1.40
    4     8    1.40
    5    15    1.80
    6    20    1.19
    7    20    1.19
    8    20    1.19

 **********************************************************************

            Electrostatic Properties Using The SCF Density

 **********************************************************************

       Atomic Center    1 is at   0.587439  1.253779 -0.108449
       Atomic Center    2 is at   0.586460 -1.253281 -0.109109
       Atomic Center    3 is at   2.239310 -0.000931  1.330881
       Atomic Center    4 is at  -2.692260  0.000167 -0.333029
       Atomic Center    5 is at   0.691830  0.000069  1.034761
       Atomic Center    6 is at  -1.623451  1.818058 -0.076069
       Atomic Center    7 is at  -1.623750 -1.817982 -0.076149
       Atomic Center    8 is at   2.439950 -0.000020 -0.935969
     718 points will be used for fitting atomic charges
 Fitting point charges to eletrostatic potential
 Charges from ESP fit, RMS=   0.00726 RRMS=   0.04590:
 Charge=   1.00000 Dipole=     1.6503     0.0005    -7.7268 Tot=     7.9011
              1
     1  O   -1.023065
     2  O   -1.023361
     3  O   -0.574904
     4  O   -1.560737
     5  P    0.186753
     6  Ca   1.684117
     7  Ca   1.684195
     8  Ca   1.627001
 -----------------------------------------------------------------

              Electrostatic Properties (Atomic Units)

 -----------------------------------------------------------------
    Center     Electric         -------- Electric Field --------
               Potential          X             Y             Z
 -----------------------------------------------------------------
    1 Atom    -22.260176
    2 Atom    -22.260010
    3 Atom    -22.271983
    4 Atom    -22.349855
    5 Atom    -53.969469
    6 Atom    -80.059944
    7 Atom    -80.059981
    8 Atom    -80.011214
 -----------------------------------------------------------------
 1\1\GINC-N032\SP\RB3LYP\6-31+G(d,p)\Ca3O4P1(1+)\TIMN\12-Jun-2015\0\\# 
 b3lyp/6-31+G(d,p) int=ultrafine pop=(ReadRadii,MK)\\Ca3PO4_166.mol2ccc
 _plusQ.z51172.zip.xyz\\1,1\O,0,0.58744,1.25378,-0.10845\O,0,0.58646,-1
 .25328,-0.10911\O,0,2.23931,-0.00093,1.33088\O,0,-2.69226,0.00017,-0.3
 3303\P,0,0.69183,0.00007,1.03476\Ca,0,-1.62345,1.81806,-0.07607\Ca,0,-
 1.62375,-1.81798,-0.07615\Ca,0,2.43995,-0.00002,-0.93597\\Version=EM64
 T-G03RevE.01\State=1-A\HF=-2674.9996785\RMSD=9.144e-05\Thermal=0.\Dipo
 le=0.5917973,0.0002621,-2.9518514\PG=C01 [X(Ca3O4P1)]\\@


 IF YOU GIVE EVERYONE A PIECE OF YOUR MIND,
 PRETTY SOON IT WILL BE ALL GONE.
 Job cpu time:  0 days  0 hours  1 minutes 35.0 seconds.
 File lengths (MBytes):  RWF=     32 Int=      0 D2E=      0 Chk=     11 Scr=      1
 Normal termination of Gaussian 03 at Fri Jun 12 17:39:02 2015.
