 Entering Gaussian System, Link 0=/home/timn/tmp/g03.e01/g03
 Input=Ca3PO4_210.mol2c_plusQc.z51695.zip.xyz.gjf
 Output=Ca3PO4_210.mol2c_plusQc.z51695.zip.xyz.out
 Initial command:
 /home/timn/tmp/g03.e01/l1.exe /home/timn/tmp/g03.e01/Gau-19195.inp -scrdir=/home/timn/tmp/g03.e01/
 Default is to use a total of   2 processors:
                                2 via shared-memory
                                1 via Linda
 Entering Link 1 = /home/timn/tmp/g03.e01/l1.exe PID=     19196.
  
 Copyright (c) 1988,1990,1992,1993,1995,1998,2003,2004,2007, Gaussian, Inc.
                  All Rights Reserved.
  
 This is the Gaussian(R) 03 program.  It is based on the
 the Gaussian(R) 98 system (copyright 1998, Gaussian, Inc.),
 the Gaussian(R) 94 system (copyright 1995, Gaussian, Inc.),
 the Gaussian 92(TM) system (copyright 1992, Gaussian, Inc.),
 the Gaussian 90(TM) system (copyright 1990, Gaussian, Inc.),
 the Gaussian 88(TM) system (copyright 1988, Gaussian, Inc.),
 the Gaussian 86(TM) system (copyright 1986, Carnegie Mellon
 University), and the Gaussian 82(TM) system (copyright 1983,
 Carnegie Mellon University). Gaussian is a federally registered
 trademark of Gaussian, Inc.
  
 This software contains proprietary and confidential information,
 including trade secrets, belonging to Gaussian, Inc.
  
 This software is provided under written license and may be
 used, copied, transmitted, or stored only in accord with that
 written license.
  
 The following legend is applicable only to US Government
 contracts under FAR:
  
                    RESTRICTED RIGHTS LEGEND
  
 Use, reproduction and disclosure by the US Government is
 subject to restrictions as set forth in subparagraphs (a)
 and (c) of the Commercial Computer Software - Restricted
 Rights clause in FAR 52.227-19.
  
 Gaussian, Inc.
 340 Quinnipiac St., Bldg. 40, Wallingford CT 06492
  
  
 ---------------------------------------------------------------
 Warning -- This program may not be used in any manner that
 competes with the business of Gaussian, Inc. or will provide
 assistance to any competitor of Gaussian, Inc.  The licensee
 of this program is prohibited from giving any competitor of
 Gaussian, Inc. access to this program.  By using this program,
 the user acknowledges that Gaussian, Inc. is engaged in the
 business of creating and licensing software in the field of
 computational chemistry and represents and warrants to the
 licensee that it is not a competitor of Gaussian, Inc. and that
 it will not use this program in any manner prohibited above.
 ---------------------------------------------------------------
  

 Cite this work as:
 Gaussian 03, Revision E.01,
 M. J. Frisch, G. W. Trucks, H. B. Schlegel, G. E. Scuseria, 
 M. A. Robb, J. R. Cheeseman, J. A. Montgomery, Jr., T. Vreven, 
 K. N. Kudin, J. C. Burant, J. M. Millam, S. S. Iyengar, J. Tomasi, 
 V. Barone, B. Mennucci, M. Cossi, G. Scalmani, N. Rega, 
 G. A. Petersson, H. Nakatsuji, M. Hada, M. Ehara, K. Toyota, 
 R. Fukuda, J. Hasegawa, M. Ishida, T. Nakajima, Y. Honda, O. Kitao, 
 H. Nakai, M. Klene, X. Li, J. E. Knox, H. P. Hratchian, J. B. Cross, 
 V. Bakken, C. Adamo, J. Jaramillo, R. Gomperts, R. E. Stratmann, 
 O. Yazyev, A. J. Austin, R. Cammi, C. Pomelli, J. W. Ochterski, 
 P. Y. Ayala, K. Morokuma, G. A. Voth, P. Salvador, J. J. Dannenberg, 
 V. G. Zakrzewski, S. Dapprich, A. D. Daniels, M. C. Strain, 
 O. Farkas, D. K. Malick, A. D. Rabuck, K. Raghavachari, 
 J. B. Foresman, J. V. Ortiz, Q. Cui, A. G. Baboul, S. Clifford, 
 J. Cioslowski, B. B. Stefanov, G. Liu, A. Liashenko, P. Piskorz, 
 I. Komaromi, R. L. Martin, D. J. Fox, T. Keith, M. A. Al-Laham, 
 C. Y. Peng, A. Nanayakkara, M. Challacombe, P. M. W. Gill, 
 B. Johnson, W. Chen, M. W. Wong, C. Gonzalez, and J. A. Pople, 
 Gaussian, Inc., Wallingford CT, 2004.
 
 ******************************************
 Gaussian 03:  EM64T-G03RevE.01 11-Sep-2007
                12-Jun-2015 
 ******************************************
 %nproc=2
 Will use up to    2 processors via shared memory.
 Default route:  MP2=Direct MaxDisk=2000MB
 ----------------------------------------------------
 # b3lyp/6-31+G(d,p) int=ultrafine pop=(ReadRadii,MK)
 ----------------------------------------------------

 Warning!  SCF SP cutoffs with diffuse functions may be unreliable.
 Consider SCF=Tight

 1/38=1/1;
 2/17=6,18=5,40=1/2;
 3/5=1,6=6,7=111,11=2,16=1,25=1,30=1,74=-5,75=5/1,2,3;
 4//1;
 5/5=2,32=1,38=5/2;
 6/7=2,8=2,9=2,10=2,15=8,20=101,28=1/1,2;
 99/5=1,9=1/99;
 --------------------------------------
 Ca3PO4_210.mol2c_plusQc.z51695.zip.xyz
 --------------------------------------
 Symbolic Z-matrix:
 Charge =  1 Multiplicity = 1
 O                    -2.94612   0.67011   0.0017 
 O                     0.8311    0.94578   0.00009 
 O                     2.83919  -1.41612  -0.00007 
 O                    -1.6686   -1.50411  -0.00146 
 P                    -3.07339  -0.87733  -0.00152 
 Ca                    3.08556   0.69004  -0.00102 
 Ca                   -1.07425   1.94795   0.00038 
 Ca                    0.6715   -1.45827   0.00168 
 
                          Input orientation:                          
 ---------------------------------------------------------------------
 Center     Atomic     Atomic              Coordinates (Angstroms)
 Number     Number      Type              X           Y           Z
 ---------------------------------------------------------------------
    1          8             0       -2.946120    0.670110    0.001700
    2          8             0        0.831100    0.945780    0.000090
    3          8             0        2.839190   -1.416120   -0.000070
    4          8             0       -1.668600   -1.504110   -0.001460
    5         15             0       -3.073390   -0.877330   -0.001520
    6         20             0        3.085560    0.690040   -0.001020
    7         20             0       -1.074250    1.947950    0.000380
    8         20             0        0.671500   -1.458270    0.001680
 ---------------------------------------------------------------------
                    Distance matrix (angstroms):
                    1          2          3          4          5
     1  O    0.000000
     2  O    3.787266   0.000000
     3  O    6.149973   3.100161   0.000000
     4  O    2.521765   3.500066   4.508649   0.000000
     5  P    1.552668   4.309150   5.937078   1.538274   0.000000
     6  Ca   6.031714   2.268919   2.120521   5.236061   6.355259
     7  Ca   2.266445   2.152836   5.160618   3.502852   3.461036
     8  Ca   4.197282   2.409342   2.168100   2.340551   3.789684
                    6          7          8
     6  Ca   0.000000
     7  Ca   4.345844   0.000000
     8  Ca   3.231552   3.827529   0.000000
 Stoichiometry    Ca3O4P(1+)
 Framework group  C1[X(Ca3O4P)]
 Deg. of freedom    18
 Full point group                 C1
 Largest Abelian subgroup         C1      NOp   1
 Largest concise Abelian subgroup C1      NOp   1
                         Standard orientation:                         
 ---------------------------------------------------------------------
 Center     Atomic     Atomic              Coordinates (Angstroms)
 Number     Number      Type              X           Y           Z
 ---------------------------------------------------------------------
    1          8             0        2.946119    0.670113   -0.001699
    2          8             0       -0.831101    0.945782   -0.000089
    3          8             0       -2.839190   -1.416118    0.000071
    4          8             0        1.668600   -1.504107    0.001461
    5         15             0        3.073389   -0.877327    0.001521
    6         20             0       -3.085561    0.690042    0.001021
    7         20             0        1.074249    1.947953   -0.000379
    8         20             0       -0.671500   -1.458268   -0.001679
 ---------------------------------------------------------------------
 Rotational constants (GHZ):      1.3687431      0.4765522      0.3534816
 Standard basis: 6-31+G(d,p) (6D, 7F)
 There are   180 symmetry adapted basis functions of A   symmetry.
 Integral buffers will be    131072 words long.
 Raffenetti 2 integral format.
 Two-electron integral symmetry is turned on.
   180 basis functions,   424 primitive gaussians,   180 cartesian basis functions
    53 alpha electrons       53 beta electrons
       nuclear repulsion energy       801.1084331283 Hartrees.
 NAtoms=    8 NActive=    8 NUniq=    8 SFac= 7.50D-01 NAtFMM=   80 NAOKFM=F Big=F
 One-electron integrals computed using PRISM.
 NBasis=   180 RedAO= T  NBF=   180
 NBsUse=   180 1.00D-06 NBFU=   180
 Harris functional with IExCor=  402 diagonalized for initial guess.
 ExpMin= 7.10D-03 ExpMax= 3.53D+04 ExpMxC= 5.30D+03 IAcc=3 IRadAn=         5 AccDes= 0.00D+00
 HarFok:  IExCor= 402 AccDes= 0.00D+00 IRadAn=         5 IDoV=1
 ScaDFX=  1.000000  1.000000  1.000000  1.000000
 Initial guess orbital symmetries:
       Occupied  (A) (A) (A) (A) (A) (A) (A) (A) (A) (A) (A) (A)
                 (A) (A) (A) (A) (A) (A) (A) (A) (A) (A) (A) (A)
                 (A) (A) (A) (A) (A) (A) (A) (A) (A) (A) (A) (A)
                 (A) (A) (A) (A) (A) (A) (A) (A) (A) (A) (A) (A)
                 (A) (A) (A) (A) (A)
       Virtual   (A) (A) (A) (A) (A) (A) (A) (A) (A) (A) (A) (A)
                 (A) (A) (A) (A) (A) (A) (A) (A) (A) (A) (A) (A)
                 (A) (A) (A) (A) (A) (A) (A) (A) (A) (A) (A) (A)
                 (A) (A) (A) (A) (A) (A) (A) (A) (A) (A) (A) (A)
                 (A) (A) (A) (A) (A) (A) (A) (A) (A) (A) (A) (A)
                 (A) (A) (A) (A) (A) (A) (A) (A) (A) (A) (A) (A)
                 (A) (A) (A) (A) (A) (A) (A) (A) (A) (A) (A) (A)
                 (A) (A) (A) (A) (A) (A) (A) (A) (A) (A) (A) (A)
                 (A) (A) (A) (A) (A) (A) (A) (A) (A) (A) (A) (A)
                 (A) (A) (A) (A) (A) (A) (A) (A) (A) (A) (A) (A)
                 (A) (A) (A) (A) (A) (A) (A)
 The electronic state of the initial guess is 1-A.
 Requested convergence on RMS density matrix=1.00D-04 within 128 cycles.
 Requested convergence on MAX density matrix=1.00D-02.
 Requested convergence on             energy=1.00D-02.
 No special actions if energy rises.
 EnCoef did     3 forward-backward iterations
 EnCoef did   100 forward-backward iterations
 EnCoef did     4 forward-backward iterations
 EnCoef did     3 forward-backward iterations
 SCF Done:  E(RB+HF-LYP) =  -2675.00579139     A.U. after   10 cycles
             Convg  =    0.8372D-04             -V/T =  2.0028
             S**2   =   0.0000

 **********************************************************************

            Population analysis using the SCF density.

 **********************************************************************

 Orbital symmetries:
       Occupied  (A) (A) (A) (A) (A) (A) (A) (A) (A) (A) (A) (A)
                 (A) (A) (A) (A) (A) (A) (A) (A) (A) (A) (A) (A)
                 (A) (A) (A) (A) (A) (A) (A) (A) (A) (A) (A) (A)
                 (A) (A) (A) (A) (A) (A) (A) (A) (A) (A) (A) (A)
                 (A) (A) (A) (A) (A)
       Virtual   (A) (A) (A) (A) (A) (A) (A) (A) (A) (A) (A) (A)
                 (A) (A) (A) (A) (A) (A) (A) (A) (A) (A) (A) (A)
                 (A) (A) (A) (A) (A) (A) (A) (A) (A) (A) (A) (A)
                 (A) (A) (A) (A) (A) (A) (A) (A) (A) (A) (A) (A)
                 (A) (A) (A) (A) (A) (A) (A) (A) (A) (A) (A) (A)
                 (A) (A) (A) (A) (A) (A) (A) (A) (A) (A) (A) (A)
                 (A) (A) (A) (A) (A) (A) (A) (A) (A) (A) (A) (A)
                 (A) (A) (A) (A) (A) (A) (A) (A) (A) (A) (A) (A)
                 (A) (A) (A) (A) (A) (A) (A) (A) (A) (A) (A) (A)
                 (A) (A) (A) (A) (A) (A) (A) (A) (A) (A) (A) (A)
                 (A) (A) (A) (A) (A) (A) (A)
 The electronic state is 1-A.
 Alpha  occ. eigenvalues -- -145.53282-145.47076-145.44482 -77.29403 -19.27575
 Alpha  occ. eigenvalues --  -19.27192 -19.17722 -19.10351 -15.60174 -15.53975
 Alpha  occ. eigenvalues --  -15.51440 -12.73430 -12.73378 -12.73217 -12.67215
 Alpha  occ. eigenvalues --  -12.67133 -12.67054 -12.64716 -12.64626 -12.64471
 Alpha  occ. eigenvalues --   -6.74951  -4.91392  -4.91168  -4.90731  -1.97373
 Alpha  occ. eigenvalues --   -1.91271  -1.88892  -1.25226  -1.25073  -1.24243
 Alpha  occ. eigenvalues --   -1.19137  -1.18811  -1.18229  -1.16997  -1.16386
 Alpha  occ. eigenvalues --   -1.16275  -1.13238  -1.07843  -0.92332  -0.84316
 Alpha  occ. eigenvalues --   -0.66979  -0.56444  -0.52394  -0.52181  -0.45139
 Alpha  occ. eigenvalues --   -0.43244  -0.40551  -0.38457  -0.37480  -0.36318
 Alpha  occ. eigenvalues --   -0.29848  -0.28439  -0.28143
 Alpha virt. eigenvalues --   -0.21383  -0.19376  -0.18290  -0.14050  -0.13462
 Alpha virt. eigenvalues --   -0.11742  -0.10628  -0.10447  -0.08683  -0.08514
 Alpha virt. eigenvalues --   -0.07773  -0.07165  -0.06435  -0.06126  -0.05565
 Alpha virt. eigenvalues --   -0.05537  -0.04824  -0.04711  -0.04333  -0.03840
 Alpha virt. eigenvalues --   -0.03763  -0.03762  -0.03491  -0.03199  -0.02769
 Alpha virt. eigenvalues --   -0.02684  -0.02492  -0.01509   0.00318   0.00760
 Alpha virt. eigenvalues --    0.02055   0.03223   0.03830   0.04047   0.04455
 Alpha virt. eigenvalues --    0.04568   0.05396   0.06092   0.06140   0.06377
 Alpha virt. eigenvalues --    0.06544   0.07576   0.07678   0.08100   0.08699
 Alpha virt. eigenvalues --    0.10064   0.10946   0.11858   0.11997   0.13505
 Alpha virt. eigenvalues --    0.14468   0.15678   0.15953   0.17394   0.18051
 Alpha virt. eigenvalues --    0.18304   0.20071   0.20944   0.21865   0.24092
 Alpha virt. eigenvalues --    0.25432   0.26593   0.27022   0.29657   0.30435
 Alpha virt. eigenvalues --    0.31675   0.32410   0.33015   0.35979   0.37352
 Alpha virt. eigenvalues --    0.39270   0.40350   0.43797   0.46197   0.48653
 Alpha virt. eigenvalues --    0.52111   0.56448   0.56663   0.58491   0.58685
 Alpha virt. eigenvalues --    0.67519   0.79915   0.90184   0.95060   1.02033
 Alpha virt. eigenvalues --    1.06685   1.07618   1.08714   1.10058   1.11361
 Alpha virt. eigenvalues --    1.17109   1.18607   1.19582   1.23469   1.26425
 Alpha virt. eigenvalues --    1.28706   1.32017   1.33513   1.39649   1.43376
 Alpha virt. eigenvalues --    1.47722   1.61507   1.66148   1.67037   1.70953
 Alpha virt. eigenvalues --    1.74760   1.77139   1.79314   1.82757   1.83774
 Alpha virt. eigenvalues --    1.85251   1.86220   1.87615   1.87692   1.89268
 Alpha virt. eigenvalues --    1.94187   1.99871   2.01589   2.10620   2.22825
 Alpha virt. eigenvalues --    2.53996   2.69079   3.39976   3.84715   3.91766
 Alpha virt. eigenvalues --    3.92593   4.07884
          Condensed to atoms (all electrons):
              1          2          3          4          5          6
     1  O    8.782038   0.003006   0.000009  -0.080298  -0.072402   0.003827
     2  O    0.003006   9.066779  -0.023424  -0.009216  -0.007088   0.085610
     3  O    0.000009  -0.023424   8.690870  -0.001477  -0.000358   0.232543
     4  O   -0.080298  -0.009216  -0.001477   8.836722  -0.109389   0.009052
     5  P   -0.072402  -0.007088  -0.000358  -0.109389  14.559844  -0.013934
     6  Ca   0.003827   0.085610   0.232543   0.009052  -0.013934  18.391785
     7  Ca   0.085976   0.189661  -0.001253   0.003229  -0.035384  -0.006191
     8  Ca  -0.001645   0.040494   0.222739   0.034778   0.007284  -0.028977
              7          8
     1  O    0.085976  -0.001645
     2  O    0.189661   0.040494
     3  O   -0.001253   0.222739
     4  O    0.003229   0.034778
     5  P   -0.035384   0.007284
     6  Ca  -0.006191  -0.028977
     7  Ca  18.245448  -0.005961
     8  Ca  -0.005961  18.384096
 Mulliken atomic charges:
              1
     1  O   -0.720512
     2  O   -1.345821
     3  O   -1.119649
     4  O   -0.683400
     5  P    0.671427
     6  Ca   1.326286
     7  Ca   1.524475
     8  Ca   1.347193
 Sum of Mulliken charges=   1.00000
 Atomic charges with hydrogens summed into heavy atoms:
              1
     1  O   -0.720512
     2  O   -1.345821
     3  O   -1.119649
     4  O   -0.683400
     5  P    0.671427
     6  Ca   1.326286
     7  Ca   1.524475
     8  Ca   1.347193
 Sum of Mulliken charges=   1.00000
 Electronic spatial extent (au):  <R**2>=  2666.6533
 Charge=     1.0000 electrons
 Dipole moment (field-independent basis, Debye):
    X=    -0.3875    Y=    11.4478    Z=    -0.0031  Tot=    11.4543
 Quadrupole moment (field-independent basis, Debye-Ang):
   XX=   -58.9589   YY=   -46.9363   ZZ=   -69.1140
   XY=   -17.4842   XZ=    -0.0059   YZ=     0.0325
 Traceless Quadrupole moment (field-independent basis, Debye-Ang):
   XX=    -0.6225   YY=    11.4001   ZZ=   -10.7776
   XY=   -17.4842   XZ=    -0.0059   YZ=     0.0325
 Octapole moment (field-independent basis, Debye-Ang**2):
  XXX=  -102.8412  YYY=    80.7309  ZZZ=    -0.0159  XYY=    36.1291
  XXY=   115.5833  XXZ=     0.1043  XZZ=    -0.3027  YZZ=     8.1710
  YYZ=    -0.0552  XYZ=    -0.0061
 Hexadecapole moment (field-independent basis, Debye-Ang**3):
 XXXX= -2099.0464 YYYY=  -625.2319 ZZZZ=   -84.6619 XXXY=  -423.5172
 XXXZ=    -0.2004 YYYX=    48.8985 YYYZ=     0.0977 ZZZX=    -0.0480
 ZZZY=     0.0588 XXYY=  -564.7191 XXZZ=  -384.8263 YYZZ=  -135.7020
 XXYZ=     0.1530 YYXZ=    -0.0385 ZZXY=    -5.3863
 N-N= 8.011084331283D+02 E-N=-7.926716606611D+03  KE= 2.667645038080D+03
 Merz-Kollman atomic radii used.
 Read replacement radii for each type of atom:
 Rad(20) =   1.188000000000D+00
 Atom Element Radius
    1     8    1.40
    2     8    1.40
    3     8    1.40
    4     8    1.40
    5    15    1.80
    6    20    1.19
    7    20    1.19
    8    20    1.19

 **********************************************************************

            Electrostatic Properties Using The SCF Density

 **********************************************************************

       Atomic Center    1 is at   2.946119  0.670113 -0.001699
       Atomic Center    2 is at  -0.831101  0.945782 -0.000089
       Atomic Center    3 is at  -2.839190 -1.416118  0.000071
       Atomic Center    4 is at   1.668600 -1.504107  0.001461
       Atomic Center    5 is at   3.073389 -0.877327  0.001521
       Atomic Center    6 is at  -3.085561  0.690042  0.001021
       Atomic Center    7 is at   1.074249  1.947953 -0.000379
       Atomic Center    8 is at  -0.671500 -1.458268 -0.001679
     821 points will be used for fitting atomic charges
 Fitting point charges to eletrostatic potential
 Charges from ESP fit, RMS=   0.00595 RRMS=   0.03920:
 Charge=   1.00000 Dipole=    -0.7517    11.7791    -0.0037 Tot=    11.8030
              1
     1  O   -0.706431
     2  O   -1.707283
     3  O   -1.467247
     4  O   -0.661825
     5  P    0.544211
     6  Ca   1.594331
     7  Ca   1.705346
     8  Ca   1.698898
 -----------------------------------------------------------------

              Electrostatic Properties (Atomic Units)

 -----------------------------------------------------------------
    Center     Electric         -------- Electric Field --------
               Potential          X             Y             Z
 -----------------------------------------------------------------
    1 Atom    -22.188784
    2 Atom    -22.280822
    3 Atom    -22.359741
    4 Atom    -22.191164
    5 Atom    -53.918820
    6 Atom    -80.072313
    7 Atom    -80.008532
    8 Atom    -80.096821
 -----------------------------------------------------------------
 1\1\GINC-N022\SP\RB3LYP\6-31+G(d,p)\Ca3O4P1(1+)\TIMN\12-Jun-2015\0\\# 
 b3lyp/6-31+G(d,p) int=ultrafine pop=(ReadRadii,MK)\\Ca3PO4_210.mol2c_p
 lusQc.z51695.zip.xyz\\1,1\O,0,-2.94612,0.67011,0.0017\O,0,0.8311,0.945
 78,0.00009\O,0,2.83919,-1.41612,-0.00007\O,0,-1.6686,-1.50411,-0.00146
 \P,0,-3.07339,-0.87733,-0.00152\Ca,0,3.08556,0.69004,-0.00102\Ca,0,-1.
 07425,1.94795,0.00038\Ca,0,0.6715,-1.45827,0.00168\\Version=EM64T-G03R
 evE.01\State=1-A\HF=-2675.0057914\RMSD=8.372e-05\Thermal=0.\Dipole=0.1
 524557,4.5039019,0.0012243\PG=C01 [X(Ca3O4P1)]\\@


 IT WAS AN ACT OF DESPARATION. FOR SIX YEARS I HAD STRUGGLED WITH THE
 BLACKBODY THEORY. I KNEW THE PROBLEM WAS FUNDAMENTAL, AND I KNEW
 THE ANSWER. I HAD TO FIND A THEORETICAL EXPLANATION AT ANY COST,
 EXCEPT FOR THE INVIOLABLITY OF THE TWO LAWS OF THERMODYNAMICS.
   -- MAX PLANCK, 1931
 Job cpu time:  0 days  0 hours  1 minutes 47.0 seconds.
 File lengths (MBytes):  RWF=     32 Int=      0 D2E=      0 Chk=     11 Scr=      1
 Normal termination of Gaussian 03 at Fri Jun 12 17:41:52 2015.
