 Entering Gaussian System, Link 0=/home/timn/tmp/g03.e01/g03
 Input=Ca3PO4_204.mol2cc_plusQ.z51414.zip.xyz.gjf
 Output=Ca3PO4_204.mol2cc_plusQ.z51414.zip.xyz.out
 Initial command:
 /home/timn/tmp/g03.e01/l1.exe /home/timn/tmp/g03.e01/Gau-18147.inp -scrdir=/home/timn/tmp/g03.e01/
 Default is to use a total of   2 processors:
                                2 via shared-memory
                                1 via Linda
 Entering Link 1 = /home/timn/tmp/g03.e01/l1.exe PID=     18148.
  
 Copyright (c) 1988,1990,1992,1993,1995,1998,2003,2004,2007, Gaussian, Inc.
                  All Rights Reserved.
  
 This is the Gaussian(R) 03 program.  It is based on the
 the Gaussian(R) 98 system (copyright 1998, Gaussian, Inc.),
 the Gaussian(R) 94 system (copyright 1995, Gaussian, Inc.),
 the Gaussian 92(TM) system (copyright 1992, Gaussian, Inc.),
 the Gaussian 90(TM) system (copyright 1990, Gaussian, Inc.),
 the Gaussian 88(TM) system (copyright 1988, Gaussian, Inc.),
 the Gaussian 86(TM) system (copyright 1986, Carnegie Mellon
 University), and the Gaussian 82(TM) system (copyright 1983,
 Carnegie Mellon University). Gaussian is a federally registered
 trademark of Gaussian, Inc.
  
 This software contains proprietary and confidential information,
 including trade secrets, belonging to Gaussian, Inc.
  
 This software is provided under written license and may be
 used, copied, transmitted, or stored only in accord with that
 written license.
  
 The following legend is applicable only to US Government
 contracts under FAR:
  
                    RESTRICTED RIGHTS LEGEND
  
 Use, reproduction and disclosure by the US Government is
 subject to restrictions as set forth in subparagraphs (a)
 and (c) of the Commercial Computer Software - Restricted
 Rights clause in FAR 52.227-19.
  
 Gaussian, Inc.
 340 Quinnipiac St., Bldg. 40, Wallingford CT 06492
  
  
 ---------------------------------------------------------------
 Warning -- This program may not be used in any manner that
 competes with the business of Gaussian, Inc. or will provide
 assistance to any competitor of Gaussian, Inc.  The licensee
 of this program is prohibited from giving any competitor of
 Gaussian, Inc. access to this program.  By using this program,
 the user acknowledges that Gaussian, Inc. is engaged in the
 business of creating and licensing software in the field of
 computational chemistry and represents and warrants to the
 licensee that it is not a competitor of Gaussian, Inc. and that
 it will not use this program in any manner prohibited above.
 ---------------------------------------------------------------
  

 Cite this work as:
 Gaussian 03, Revision E.01,
 M. J. Frisch, G. W. Trucks, H. B. Schlegel, G. E. Scuseria, 
 M. A. Robb, J. R. Cheeseman, J. A. Montgomery, Jr., T. Vreven, 
 K. N. Kudin, J. C. Burant, J. M. Millam, S. S. Iyengar, J. Tomasi, 
 V. Barone, B. Mennucci, M. Cossi, G. Scalmani, N. Rega, 
 G. A. Petersson, H. Nakatsuji, M. Hada, M. Ehara, K. Toyota, 
 R. Fukuda, J. Hasegawa, M. Ishida, T. Nakajima, Y. Honda, O. Kitao, 
 H. Nakai, M. Klene, X. Li, J. E. Knox, H. P. Hratchian, J. B. Cross, 
 V. Bakken, C. Adamo, J. Jaramillo, R. Gomperts, R. E. Stratmann, 
 O. Yazyev, A. J. Austin, R. Cammi, C. Pomelli, J. W. Ochterski, 
 P. Y. Ayala, K. Morokuma, G. A. Voth, P. Salvador, J. J. Dannenberg, 
 V. G. Zakrzewski, S. Dapprich, A. D. Daniels, M. C. Strain, 
 O. Farkas, D. K. Malick, A. D. Rabuck, K. Raghavachari, 
 J. B. Foresman, J. V. Ortiz, Q. Cui, A. G. Baboul, S. Clifford, 
 J. Cioslowski, B. B. Stefanov, G. Liu, A. Liashenko, P. Piskorz, 
 I. Komaromi, R. L. Martin, D. J. Fox, T. Keith, M. A. Al-Laham, 
 C. Y. Peng, A. Nanayakkara, M. Challacombe, P. M. W. Gill, 
 B. Johnson, W. Chen, M. W. Wong, C. Gonzalez, and J. A. Pople, 
 Gaussian, Inc., Wallingford CT, 2004.
 
 ******************************************
 Gaussian 03:  EM64T-G03RevE.01 11-Sep-2007
                12-Jun-2015 
 ******************************************
 %nproc=2
 Will use up to    2 processors via shared memory.
 Default route:  MP2=Direct MaxDisk=2000MB
 ----------------------------------------------------
 # b3lyp/6-31+G(d,p) int=ultrafine pop=(ReadRadii,MK)
 ----------------------------------------------------

 Warning!  SCF SP cutoffs with diffuse functions may be unreliable.
 Consider SCF=Tight

 1/38=1/1;
 2/17=6,18=5,40=1/2;
 3/5=1,6=6,7=111,11=2,16=1,25=1,30=1,74=-5,75=5/1,2,3;
 4//1;
 5/5=2,32=1,38=5/2;
 6/7=2,8=2,9=2,10=2,15=8,20=101,28=1/1,2;
 99/5=1,9=1/99;
 --------------------------------------
 Ca3PO4_204.mol2cc_plusQ.z51414.zip.xyz
 --------------------------------------
 Symbolic Z-matrix:
 Charge =  1 Multiplicity = 1
 O                    -0.84644   1.21389   0.92331 
 O                    -0.6272   -1.34127   0.92263 
 O                     1.4764    0.12559   0.92111 
 O                    -0.0015    0.00101  -1.71224 
 P                     0.00163  -0.00097   1.71823 
 Ca                    0.82529   1.76222  -0.56987 
 Ca                    1.11262  -1.59556  -0.57181 
 Ca                   -1.93964  -0.16562  -0.56892 
 
                          Input orientation:                          
 ---------------------------------------------------------------------
 Center     Atomic     Atomic              Coordinates (Angstroms)
 Number     Number      Type              X           Y           Z
 ---------------------------------------------------------------------
    1          8             0       -0.846440    1.213890    0.923310
    2          8             0       -0.627200   -1.341270    0.922630
    3          8             0        1.476400    0.125590    0.921110
    4          8             0       -0.001500    0.001010   -1.712240
    5         15             0        0.001630   -0.000970    1.718230
    6         20             0        0.825290    1.762220   -0.569870
    7         20             0        1.112620   -1.595560   -0.571810
    8         20             0       -1.939640   -0.165620   -0.568920
 ---------------------------------------------------------------------
                    Distance matrix (angstroms):
                    1          2          3          4          5
     1  O    0.000000
     2  O    2.564549   0.000000
     3  O    2.565149   2.564530   0.000000
     4  O    3.021775   3.022541   3.022291   0.000000
     5  P    1.681370   1.680717   1.681179   3.430472   0.000000
     6  Ca   2.307582   3.737504   2.307710   2.256203   3.003774
     7  Ca   3.737153   2.307594   2.307272   2.256298   3.003548
     8  Ca   2.307571   2.308543   3.738224   2.256398   3.004446
                    6          7          8
     6  Ca   0.000000
     7  Ca   3.370052   0.000000
     8  Ca   3.370668   3.370612   0.000000
 Stoichiometry    Ca3O4P(1+)
 Framework group  C1[X(Ca3O4P)]
 Deg. of freedom    18
 Full point group                 C1
 Largest Abelian subgroup         C1      NOp   1
 Largest concise Abelian subgroup C1      NOp   1
                         Standard orientation:                         
 ---------------------------------------------------------------------
 Center     Atomic     Atomic              Coordinates (Angstroms)
 Number     Number      Type              X           Y           Z
 ---------------------------------------------------------------------
    1          8             0       -0.844791    1.215037    0.923311
    2          8             0       -0.629019   -1.340418    0.922631
    3          8             0        1.476570    0.123586    0.921111
    4          8             0       -0.001498    0.001012   -1.712239
    5         15             0        0.001629   -0.000972    1.718231
    6         20             0        0.827681    1.761098   -0.569869
    7         20             0        1.110455   -1.597068   -0.571809
    8         20             0       -1.939862   -0.162988   -0.568919
 ---------------------------------------------------------------------
 Rotational constants (GHZ):      1.0155207      1.0152690      0.9037797
 Standard basis: 6-31+G(d,p) (6D, 7F)
 There are   180 symmetry adapted basis functions of A   symmetry.
 Integral buffers will be    131072 words long.
 Raffenetti 2 integral format.
 Two-electron integral symmetry is turned on.
   180 basis functions,   424 primitive gaussians,   180 cartesian basis functions
    53 alpha electrons       53 beta electrons
       nuclear repulsion energy       952.6888593620 Hartrees.
 NAtoms=    8 NActive=    8 NUniq=    8 SFac= 7.50D-01 NAtFMM=   80 NAOKFM=F Big=F
 One-electron integrals computed using PRISM.
 NBasis=   180 RedAO= T  NBF=   180
 NBsUse=   180 1.00D-06 NBFU=   180
 Harris functional with IExCor=  402 diagonalized for initial guess.
 ExpMin= 7.10D-03 ExpMax= 3.53D+04 ExpMxC= 5.30D+03 IAcc=3 IRadAn=         5 AccDes= 0.00D+00
 HarFok:  IExCor= 402 AccDes= 0.00D+00 IRadAn=         5 IDoV=1
 ScaDFX=  1.000000  1.000000  1.000000  1.000000
 Initial guess orbital symmetries:
       Occupied  (A) (A) (A) (A) (A) (A) (A) (A) (A) (A) (A) (A)
                 (A) (A) (A) (A) (A) (A) (A) (A) (A) (A) (A) (A)
                 (A) (A) (A) (A) (A) (A) (A) (A) (A) (A) (A) (A)
                 (A) (A) (A) (A) (A) (A) (A) (A) (A) (A) (A) (A)
                 (A) (A) (A) (A) (A)
       Virtual   (A) (A) (A) (A) (A) (A) (A) (A) (A) (A) (A) (A)
                 (A) (A) (A) (A) (A) (A) (A) (A) (A) (A) (A) (A)
                 (A) (A) (A) (A) (A) (A) (A) (A) (A) (A) (A) (A)
                 (A) (A) (A) (A) (A) (A) (A) (A) (A) (A) (A) (A)
                 (A) (A) (A) (A) (A) (A) (A) (A) (A) (A) (A) (A)
                 (A) (A) (A) (A) (A) (A) (A) (A) (A) (A) (A) (A)
                 (A) (A) (A) (A) (A) (A) (A) (A) (A) (A) (A) (A)
                 (A) (A) (A) (A) (A) (A) (A) (A) (A) (A) (A) (A)
                 (A) (A) (A) (A) (A) (A) (A) (A) (A) (A) (A) (A)
                 (A) (A) (A) (A) (A) (A) (A) (A) (A) (A) (A) (A)
                 (A) (A) (A) (A) (A) (A) (A)
 The electronic state of the initial guess is 1-A.
 Requested convergence on RMS density matrix=1.00D-04 within 128 cycles.
 Requested convergence on MAX density matrix=1.00D-02.
 Requested convergence on             energy=1.00D-02.
 No special actions if energy rises.
 SCF Done:  E(RB+HF-LYP) =  -2675.07103656     A.U. after    8 cycles
             Convg  =    0.8324D-04             -V/T =  2.0028
             S**2   =   0.0000

 **********************************************************************

            Population analysis using the SCF density.

 **********************************************************************

 Orbital symmetries:
       Occupied  (A) (A) (A) (A) (A) (A) (A) (A) (A) (A) (A) (A)
                 (A) (A) (A) (A) (A) (A) (A) (A) (A) (A) (A) (A)
                 (A) (A) (A) (A) (A) (A) (A) (A) (A) (A) (A) (A)
                 (A) (A) (A) (A) (A) (A) (A) (A) (A) (A) (A) (A)
                 (A) (A) (A) (A) (A)
       Virtual   (A) (A) (A) (A) (A) (A) (A) (A) (A) (A) (A) (A)
                 (A) (A) (A) (A) (A) (A) (A) (A) (A) (A) (A) (A)
                 (A) (A) (A) (A) (A) (A) (A) (A) (A) (A) (A) (A)
                 (A) (A) (A) (A) (A) (A) (A) (A) (A) (A) (A) (A)
                 (A) (A) (A) (A) (A) (A) (A) (A) (A) (A) (A) (A)
                 (A) (A) (A) (A) (A) (A) (A) (A) (A) (A) (A) (A)
                 (A) (A) (A) (A) (A) (A) (A) (A) (A) (A) (A) (A)
                 (A) (A) (A) (A) (A) (A) (A) (A) (A) (A) (A) (A)
                 (A) (A) (A) (A) (A) (A) (A) (A) (A) (A) (A) (A)
                 (A) (A) (A) (A) (A) (A) (A) (A) (A) (A) (A) (A)
                 (A) (A) (A) (A) (A) (A) (A)
 The electronic state is 1-A.
 Alpha  occ. eigenvalues -- -145.49645-145.49635-145.49631 -77.25057 -19.21242
 Alpha  occ. eigenvalues --  -19.21224 -19.21202 -19.15941 -15.56479 -15.56469
 Alpha  occ. eigenvalues --  -15.56467 -12.69677 -12.69667 -12.69666 -12.69655
 Alpha  occ. eigenvalues --  -12.69645 -12.69643 -12.69608 -12.69597 -12.69597
 Alpha  occ. eigenvalues --   -6.70087  -4.86435  -4.86435  -4.85899  -1.93823
 Alpha  occ. eigenvalues --   -1.93741  -1.93735  -1.22376  -1.21696  -1.21694
 Alpha  occ. eigenvalues --   -1.21306  -1.21139  -1.21065  -1.21062  -1.20645
 Alpha  occ. eigenvalues --   -1.20639  -1.06757  -1.00361  -1.00344  -0.90936
 Alpha  occ. eigenvalues --   -0.62643  -0.50528  -0.50524  -0.47960  -0.43357
 Alpha  occ. eigenvalues --   -0.43355  -0.38345  -0.38336  -0.38176  -0.36133
 Alpha  occ. eigenvalues --   -0.36130  -0.34589  -0.30861
 Alpha virt. eigenvalues --   -0.19949  -0.18028  -0.18024  -0.12555  -0.12552
 Alpha virt. eigenvalues --   -0.10893  -0.09479  -0.09476  -0.08338  -0.07771
 Alpha virt. eigenvalues --   -0.06545  -0.06114  -0.06113  -0.04765  -0.04716
 Alpha virt. eigenvalues --   -0.04715  -0.04672  -0.04474  -0.04474  -0.04004
 Alpha virt. eigenvalues --   -0.04002  -0.03232  -0.02944  -0.02943  -0.02359
 Alpha virt. eigenvalues --   -0.02357  -0.00867   0.01028   0.02176   0.02617
 Alpha virt. eigenvalues --    0.02617   0.04573   0.04575   0.05228   0.06003
 Alpha virt. eigenvalues --    0.06004   0.06293   0.06294   0.07290   0.07295
 Alpha virt. eigenvalues --    0.07382   0.07664   0.07667   0.07823   0.08469
 Alpha virt. eigenvalues --    0.10684   0.10689   0.11333   0.11803   0.13656
 Alpha virt. eigenvalues --    0.15679   0.15681   0.19889   0.19891   0.20369
 Alpha virt. eigenvalues --    0.22085   0.22091   0.23482   0.23993   0.25319
 Alpha virt. eigenvalues --    0.25958   0.25968   0.30033   0.31447   0.31454
 Alpha virt. eigenvalues --    0.35744   0.36000   0.36007   0.37866   0.39077
 Alpha virt. eigenvalues --    0.39083   0.39776   0.45821   0.45832   0.53627
 Alpha virt. eigenvalues --    0.53632   0.55852   0.63364   0.63370   0.67674
 Alpha virt. eigenvalues --    0.82893   0.86941   0.86966   0.94092   0.94113
 Alpha virt. eigenvalues --    1.14554   1.16754   1.16760   1.18031   1.20780
 Alpha virt. eigenvalues --    1.21967   1.21979   1.23408   1.23411   1.28216
 Alpha virt. eigenvalues --    1.34158   1.34184   1.36430   1.54461   1.54471
 Alpha virt. eigenvalues --    1.57764   1.68375   1.71623   1.73143   1.73153
 Alpha virt. eigenvalues --    1.77480   1.77485   1.87080   1.87367   1.87375
 Alpha virt. eigenvalues --    1.88072   1.92073   1.92077   1.93328   1.98429
 Alpha virt. eigenvalues --    1.98441   2.03009   2.03021   2.14775   2.38155
 Alpha virt. eigenvalues --    2.55116   2.55172   3.54376   4.05615   4.14278
 Alpha virt. eigenvalues --    4.14292   4.31211
          Condensed to atoms (all electrons):
              1          2          3          4          5          6
     1  O    8.965508   0.058590   0.058595   0.023968  -0.200468   0.059943
     2  O    0.058590   8.966120   0.058744   0.023938  -0.200854   0.006284
     3  O    0.058595   0.058744   8.965823   0.023977  -0.200781   0.059905
     4  O    0.023968   0.023938   0.023977   8.852651  -0.039955   0.122130
     5  P   -0.200468  -0.200854  -0.200781  -0.039955  14.442780   0.033591
     6  Ca   0.059943   0.006284   0.059905   0.122130   0.033591  18.396906
     7  Ca   0.006219   0.059815   0.059842   0.122167   0.033884  -0.047784
     8  Ca   0.059873   0.059777   0.006201   0.122177   0.033747  -0.047566
              7          8
     1  O    0.006219   0.059873
     2  O    0.059815   0.059777
     3  O    0.059842   0.006201
     4  O    0.122167   0.122177
     5  P    0.033884   0.033747
     6  Ca  -0.047784  -0.047566
     7  Ca  18.397020  -0.047647
     8  Ca  -0.047647  18.396571
 Mulliken atomic charges:
              1
     1  O   -1.032227
     2  O   -1.032413
     3  O   -1.032306
     4  O   -1.251052
     5  P    1.098056
     6  Ca   1.416592
     7  Ca   1.416484
     8  Ca   1.416867
 Sum of Mulliken charges=   1.00000
 Atomic charges with hydrogens summed into heavy atoms:
              1
     1  O   -1.032227
     2  O   -1.032413
     3  O   -1.032306
     4  O   -1.251052
     5  P    1.098056
     6  Ca   1.416592
     7  Ca   1.416484
     8  Ca   1.416867
 Sum of Mulliken charges=   1.00000
 Electronic spatial extent (au):  <R**2>=  1510.1854
 Charge=     1.0000 electrons
 Dipole moment (field-independent basis, Debye):
    X=    -0.0115    Y=     0.0057    Z=    -8.2276  Tot=     8.2277
 Quadrupole moment (field-independent basis, Debye-Ang):
   XX=   -40.0223   YY=   -40.0376   ZZ=   -90.0202
   XY=     0.0064   XZ=    -0.0368   YZ=     0.0287
 Traceless Quadrupole moment (field-independent basis, Debye-Ang):
   XX=    16.6711   YY=    16.6558   ZZ=   -33.3268
   XY=     0.0064   XZ=    -0.0368   YZ=     0.0287
 Octapole moment (field-independent basis, Debye-Ang**2):
  XXX=   -56.9176  YYY=    14.6927  ZZZ=    -1.6699  XYY=    56.6991
  XXY=   -14.5934  XXZ=   -46.6473  XZZ=     0.0659  YZZ=    -0.0452
  YYZ=   -46.7011  XYZ=     0.0399
 Hexadecapole moment (field-independent basis, Debye-Ang**3):
 XXXX=  -416.0047 YYYY=  -415.9682 ZZZZ=  -721.8314 XXXY=     0.0314
 XXXZ=    14.8090 YYYX=     0.0553 YYYZ=    -3.7436 ZZZX=    -0.1817
 ZZZY=     0.1109 XXYY=  -138.7079 XXZZ=  -187.6365 YYZZ=  -187.5848
 XXYZ=     3.8807 YYXZ=   -14.9959 ZZXY=    -0.0169
 N-N= 9.526888593620D+02 E-N=-8.229852671746D+03  KE= 2.667693779805D+03
 Merz-Kollman atomic radii used.
 Read replacement radii for each type of atom:
 Rad(20) =   1.188000000000D+00
 Atom Element Radius
    1     8    1.40
    2     8    1.40
    3     8    1.40
    4     8    1.40
    5    15    1.80
    6    20    1.19
    7    20    1.19
    8    20    1.19

 **********************************************************************

            Electrostatic Properties Using The SCF Density

 **********************************************************************

       Atomic Center    1 is at  -0.844791  1.215037  0.923311
       Atomic Center    2 is at  -0.629019 -1.340418  0.922631
       Atomic Center    3 is at   1.476570  0.123586  0.921111
       Atomic Center    4 is at  -0.001498  0.001012 -1.712239
       Atomic Center    5 is at   0.001629 -0.000972  1.718231
       Atomic Center    6 is at   0.827681  1.761098 -0.569869
       Atomic Center    7 is at   1.110455 -1.597068 -0.571809
       Atomic Center    8 is at  -1.939862 -0.162988 -0.568919
     677 points will be used for fitting atomic charges
 Fitting point charges to eletrostatic potential
 Charges from ESP fit, RMS=   0.00608 RRMS=   0.03725:
 Charge=   1.00000 Dipole=    -0.0488    -0.0070    -8.4361 Tot=     8.4362
              1
     1  O   -0.949134
     2  O   -0.948999
     3  O   -0.952920
     4  O   -1.635923
     5  P    0.524770
     6  Ca   1.653091
     7  Ca   1.654196
     8  Ca   1.654918
 -----------------------------------------------------------------

              Electrostatic Properties (Atomic Units)

 -----------------------------------------------------------------
    Center     Electric         -------- Electric Field --------
               Potential          X             Y             Z
 -----------------------------------------------------------------
    1 Atom    -22.250872
    2 Atom    -22.251632
    3 Atom    -22.251294
    4 Atom    -22.290859
    5 Atom    -53.968021
    6 Atom    -80.043306
    7 Atom    -80.043351
    8 Atom    -80.043214
 -----------------------------------------------------------------
 1\1\GINC-N027\SP\RB3LYP\6-31+G(d,p)\Ca3O4P1(1+)\TIMN\12-Jun-2015\0\\# 
 b3lyp/6-31+G(d,p) int=ultrafine pop=(ReadRadii,MK)\\Ca3PO4_204.mol2cc_
 plusQ.z51414.zip.xyz\\1,1\O,0,-0.84644,1.21389,0.92331\O,0,-0.6272,-1.
 34127,0.92263\O,0,1.4764,0.12559,0.92111\O,0,-0.0015,0.00101,-1.71224\
 P,0,0.00163,-0.00097,1.71823\Ca,0,0.82529,1.76222,-0.56987\Ca,0,1.1126
 2,-1.59556,-0.57181\Ca,0,-1.93964,-0.16562,-0.56892\\Version=EM64T-G03
 RevE.01\State=1-A\HF=-2675.0710366\RMSD=8.324e-05\Thermal=0.\Dipole=-0
 .0045321,0.0022277,-3.237005\PG=C01 [X(Ca3O4P1)]\\@


 IF YOU GIVE A BOY AND A PIG EVERYTHING THEY WANT,
 YOU'LL GET A BAD BOY AND A GOOD PIG.
 Job cpu time:  0 days  0 hours  1 minutes 41.2 seconds.
 File lengths (MBytes):  RWF=     32 Int=      0 D2E=      0 Chk=     11 Scr=      1
 Normal termination of Gaussian 03 at Fri Jun 12 17:41:37 2015.
