 Entering Gaussian System, Link 0=/home/timn/tmp/g03.e01/g03
 Input=Ca3PO4_15.mol2c_plusQ.z51165.zip.xyz.gjf
 Output=Ca3PO4_15.mol2c_plusQ.z51165.zip.xyz.out
 Initial command:
 /home/timn/tmp/g03.e01/l1.exe /home/timn/tmp/g03.e01/Gau-11788.inp -scrdir=/home/timn/tmp/g03.e01/
 Default is to use a total of   2 processors:
                                2 via shared-memory
                                1 via Linda
 Entering Link 1 = /home/timn/tmp/g03.e01/l1.exe PID=     11789.
  
 Copyright (c) 1988,1990,1992,1993,1995,1998,2003,2004,2007, Gaussian, Inc.
                  All Rights Reserved.
  
 This is the Gaussian(R) 03 program.  It is based on the
 the Gaussian(R) 98 system (copyright 1998, Gaussian, Inc.),
 the Gaussian(R) 94 system (copyright 1995, Gaussian, Inc.),
 the Gaussian 92(TM) system (copyright 1992, Gaussian, Inc.),
 the Gaussian 90(TM) system (copyright 1990, Gaussian, Inc.),
 the Gaussian 88(TM) system (copyright 1988, Gaussian, Inc.),
 the Gaussian 86(TM) system (copyright 1986, Carnegie Mellon
 University), and the Gaussian 82(TM) system (copyright 1983,
 Carnegie Mellon University). Gaussian is a federally registered
 trademark of Gaussian, Inc.
  
 This software contains proprietary and confidential information,
 including trade secrets, belonging to Gaussian, Inc.
  
 This software is provided under written license and may be
 used, copied, transmitted, or stored only in accord with that
 written license.
  
 The following legend is applicable only to US Government
 contracts under FAR:
  
                    RESTRICTED RIGHTS LEGEND
  
 Use, reproduction and disclosure by the US Government is
 subject to restrictions as set forth in subparagraphs (a)
 and (c) of the Commercial Computer Software - Restricted
 Rights clause in FAR 52.227-19.
  
 Gaussian, Inc.
 340 Quinnipiac St., Bldg. 40, Wallingford CT 06492
  
  
 ---------------------------------------------------------------
 Warning -- This program may not be used in any manner that
 competes with the business of Gaussian, Inc. or will provide
 assistance to any competitor of Gaussian, Inc.  The licensee
 of this program is prohibited from giving any competitor of
 Gaussian, Inc. access to this program.  By using this program,
 the user acknowledges that Gaussian, Inc. is engaged in the
 business of creating and licensing software in the field of
 computational chemistry and represents and warrants to the
 licensee that it is not a competitor of Gaussian, Inc. and that
 it will not use this program in any manner prohibited above.
 ---------------------------------------------------------------
  

 Cite this work as:
 Gaussian 03, Revision E.01,
 M. J. Frisch, G. W. Trucks, H. B. Schlegel, G. E. Scuseria, 
 M. A. Robb, J. R. Cheeseman, J. A. Montgomery, Jr., T. Vreven, 
 K. N. Kudin, J. C. Burant, J. M. Millam, S. S. Iyengar, J. Tomasi, 
 V. Barone, B. Mennucci, M. Cossi, G. Scalmani, N. Rega, 
 G. A. Petersson, H. Nakatsuji, M. Hada, M. Ehara, K. Toyota, 
 R. Fukuda, J. Hasegawa, M. Ishida, T. Nakajima, Y. Honda, O. Kitao, 
 H. Nakai, M. Klene, X. Li, J. E. Knox, H. P. Hratchian, J. B. Cross, 
 V. Bakken, C. Adamo, J. Jaramillo, R. Gomperts, R. E. Stratmann, 
 O. Yazyev, A. J. Austin, R. Cammi, C. Pomelli, J. W. Ochterski, 
 P. Y. Ayala, K. Morokuma, G. A. Voth, P. Salvador, J. J. Dannenberg, 
 V. G. Zakrzewski, S. Dapprich, A. D. Daniels, M. C. Strain, 
 O. Farkas, D. K. Malick, A. D. Rabuck, K. Raghavachari, 
 J. B. Foresman, J. V. Ortiz, Q. Cui, A. G. Baboul, S. Clifford, 
 J. Cioslowski, B. B. Stefanov, G. Liu, A. Liashenko, P. Piskorz, 
 I. Komaromi, R. L. Martin, D. J. Fox, T. Keith, M. A. Al-Laham, 
 C. Y. Peng, A. Nanayakkara, M. Challacombe, P. M. W. Gill, 
 B. Johnson, W. Chen, M. W. Wong, C. Gonzalez, and J. A. Pople, 
 Gaussian, Inc., Wallingford CT, 2004.
 
 ******************************************
 Gaussian 03:  EM64T-G03RevE.01 11-Sep-2007
                12-Jun-2015 
 ******************************************
 %nproc=2
 Will use up to    2 processors via shared memory.
 Default route:  MP2=Direct MaxDisk=2000MB
 ----------------------------------------------------
 # b3lyp/6-31+G(d,p) int=ultrafine pop=(ReadRadii,MK)
 ----------------------------------------------------

 Warning!  SCF SP cutoffs with diffuse functions may be unreliable.
 Consider SCF=Tight

 1/38=1/1;
 2/17=6,18=5,40=1/2;
 3/5=1,6=6,7=111,11=2,16=1,25=1,30=1,74=-5,75=5/1,2,3;
 4//1;
 5/5=2,32=1,38=5/2;
 6/7=2,8=2,9=2,10=2,15=8,20=101,28=1/1,2;
 99/5=1,9=1/99;
 ------------------------------------
 Ca3PO4_15.mol2c_plusQ.z51165.zip.xyz
 ------------------------------------
 Symbolic Z-matrix:
 Charge =  1 Multiplicity = 1
 O                    -0.90258   1.17511   0.92125 
 O                    -0.56631  -1.36731   0.9232 
 O                     0.00017  -0.0016   -1.71209 
 O                     1.46746   0.19503   0.9227 
 P                    -0.00083   0.00163   1.71817 
 Ca                    1.18596  -1.54355  -0.56865 
 Ca                   -1.92902  -0.25558  -0.57069 
 Ca                    0.74419   1.79741  -0.57131 
 
                          Input orientation:                          
 ---------------------------------------------------------------------
 Center     Atomic     Atomic              Coordinates (Angstroms)
 Number     Number      Type              X           Y           Z
 ---------------------------------------------------------------------
    1          8             0       -0.902580    1.175110    0.921250
    2          8             0       -0.566310   -1.367310    0.923200
    3          8             0        0.000170   -0.001600   -1.712090
    4          8             0        1.467460    0.195030    0.922700
    5         15             0       -0.000830    0.001630    1.718170
    6         20             0        1.185960   -1.543550   -0.568650
    7         20             0       -1.929020   -0.255580   -0.570690
    8         20             0        0.744190    1.797410   -0.571310
 ---------------------------------------------------------------------
                    Distance matrix (angstroms):
                    1          2          3          4          5
     1  O    0.000000
     2  O    2.564562   0.000000
     3  O    3.022265   3.021724   0.000000
     4  O    2.564693   2.564591   3.022205   0.000000
     5  P    1.680860   1.680994   3.430262   1.681086   0.000000
     6  Ca   3.738036   2.308057   2.256361   2.307819   3.004263
     7  Ca   2.307886   2.307516   2.255898   3.737558   3.003823
     8  Ca   2.307996   3.737168   2.256409   2.307121   3.003598
                    6          7          8
     6  Ca   0.000000
     7  Ca   3.370752   0.000000
     8  Ca   3.370042   3.370582   0.000000
 Stoichiometry    Ca3O4P(1+)
 Framework group  C1[X(Ca3O4P)]
 Deg. of freedom    18
 Full point group                 C1
 Largest Abelian subgroup         C1      NOp   1
 Largest concise Abelian subgroup C1      NOp   1
                         Standard orientation:                         
 ---------------------------------------------------------------------
 Center     Atomic     Atomic              Coordinates (Angstroms)
 Number     Number      Type              X           Y           Z
 ---------------------------------------------------------------------
    1          8             0       -0.902773    1.174963    0.921250
    2          8             0       -0.566086   -1.367402    0.923200
    3          8             0        0.000170   -0.001599   -1.712090
    4          8             0        1.467427    0.195272    0.922700
    5         15             0       -0.000831    0.001631    1.718170
    6         20             0        1.186213   -1.543354   -0.568650
    7         20             0       -1.928979   -0.255895   -0.570690
    8         20             0        0.743895    1.797533   -0.571310
 ---------------------------------------------------------------------
 Rotational constants (GHZ):      1.0155439      1.0152976      0.9037902
 Standard basis: 6-31+G(d,p) (6D, 7F)
 There are   180 symmetry adapted basis functions of A   symmetry.
 Integral buffers will be    131072 words long.
 Raffenetti 2 integral format.
 Two-electron integral symmetry is turned on.
   180 basis functions,   424 primitive gaussians,   180 cartesian basis functions
    53 alpha electrons       53 beta electrons
       nuclear repulsion energy       952.7040936445 Hartrees.
 NAtoms=    8 NActive=    8 NUniq=    8 SFac= 7.50D-01 NAtFMM=   80 NAOKFM=F Big=F
 One-electron integrals computed using PRISM.
 NBasis=   180 RedAO= T  NBF=   180
 NBsUse=   180 1.00D-06 NBFU=   180
 Harris functional with IExCor=  402 diagonalized for initial guess.
 ExpMin= 7.10D-03 ExpMax= 3.53D+04 ExpMxC= 5.30D+03 IAcc=3 IRadAn=         5 AccDes= 0.00D+00
 HarFok:  IExCor= 402 AccDes= 0.00D+00 IRadAn=         5 IDoV=1
 ScaDFX=  1.000000  1.000000  1.000000  1.000000
 Initial guess orbital symmetries:
       Occupied  (A) (A) (A) (A) (A) (A) (A) (A) (A) (A) (A) (A)
                 (A) (A) (A) (A) (A) (A) (A) (A) (A) (A) (A) (A)
                 (A) (A) (A) (A) (A) (A) (A) (A) (A) (A) (A) (A)
                 (A) (A) (A) (A) (A) (A) (A) (A) (A) (A) (A) (A)
                 (A) (A) (A) (A) (A)
       Virtual   (A) (A) (A) (A) (A) (A) (A) (A) (A) (A) (A) (A)
                 (A) (A) (A) (A) (A) (A) (A) (A) (A) (A) (A) (A)
                 (A) (A) (A) (A) (A) (A) (A) (A) (A) (A) (A) (A)
                 (A) (A) (A) (A) (A) (A) (A) (A) (A) (A) (A) (A)
                 (A) (A) (A) (A) (A) (A) (A) (A) (A) (A) (A) (A)
                 (A) (A) (A) (A) (A) (A) (A) (A) (A) (A) (A) (A)
                 (A) (A) (A) (A) (A) (A) (A) (A) (A) (A) (A) (A)
                 (A) (A) (A) (A) (A) (A) (A) (A) (A) (A) (A) (A)
                 (A) (A) (A) (A) (A) (A) (A) (A) (A) (A) (A) (A)
                 (A) (A) (A) (A) (A) (A) (A) (A) (A) (A) (A) (A)
                 (A) (A) (A) (A) (A) (A) (A)
 The electronic state of the initial guess is 1-A.
 Requested convergence on RMS density matrix=1.00D-04 within 128 cycles.
 Requested convergence on MAX density matrix=1.00D-02.
 Requested convergence on             energy=1.00D-02.
 No special actions if energy rises.
 SCF Done:  E(RB+HF-LYP) =  -2675.07103854     A.U. after    8 cycles
             Convg  =    0.8266D-04             -V/T =  2.0028
             S**2   =   0.0000

 **********************************************************************

            Population analysis using the SCF density.

 **********************************************************************

 Orbital symmetries:
       Occupied  (A) (A) (A) (A) (A) (A) (A) (A) (A) (A) (A) (A)
                 (A) (A) (A) (A) (A) (A) (A) (A) (A) (A) (A) (A)
                 (A) (A) (A) (A) (A) (A) (A) (A) (A) (A) (A) (A)
                 (A) (A) (A) (A) (A) (A) (A) (A) (A) (A) (A) (A)
                 (A) (A) (A) (A) (A)
       Virtual   (A) (A) (A) (A) (A) (A) (A) (A) (A) (A) (A) (A)
                 (A) (A) (A) (A) (A) (A) (A) (A) (A) (A) (A) (A)
                 (A) (A) (A) (A) (A) (A) (A) (A) (A) (A) (A) (A)
                 (A) (A) (A) (A) (A) (A) (A) (A) (A) (A) (A) (A)
                 (A) (A) (A) (A) (A) (A) (A) (A) (A) (A) (A) (A)
                 (A) (A) (A) (A) (A) (A) (A) (A) (A) (A) (A) (A)
                 (A) (A) (A) (A) (A) (A) (A) (A) (A) (A) (A) (A)
                 (A) (A) (A) (A) (A) (A) (A) (A) (A) (A) (A) (A)
                 (A) (A) (A) (A) (A) (A) (A) (A) (A) (A) (A) (A)
                 (A) (A) (A) (A) (A) (A) (A) (A) (A) (A) (A) (A)
                 (A) (A) (A) (A) (A) (A) (A)
 The electronic state is 1-A.
 Alpha  occ. eigenvalues -- -145.49643-145.49636-145.49631 -77.25056 -19.21228
 Alpha  occ. eigenvalues --  -19.21228 -19.21209 -19.15940 -15.56477 -15.56471
 Alpha  occ. eigenvalues --  -15.56466 -12.69675 -12.69670 -12.69665 -12.69653
 Alpha  occ. eigenvalues --  -12.69647 -12.69642 -12.69605 -12.69600 -12.69595
 Alpha  occ. eigenvalues --   -6.70085  -4.86434  -4.86434  -4.85898  -1.93823
 Alpha  occ. eigenvalues --   -1.93741  -1.93736  -1.22376  -1.21696  -1.21693
 Alpha  occ. eigenvalues --   -1.21306  -1.21139  -1.21065  -1.21063  -1.20644
 Alpha  occ. eigenvalues --   -1.20639  -1.06760  -1.00358  -1.00350  -0.90937
 Alpha  occ. eigenvalues --   -0.62641  -0.50529  -0.50526  -0.47961  -0.43358
 Alpha  occ. eigenvalues --   -0.43356  -0.38344  -0.38338  -0.38176  -0.36133
 Alpha  occ. eigenvalues --   -0.36131  -0.34589  -0.30859
 Alpha virt. eigenvalues --   -0.19949  -0.18028  -0.18025  -0.12556  -0.12552
 Alpha virt. eigenvalues --   -0.10893  -0.09478  -0.09477  -0.08339  -0.07772
 Alpha virt. eigenvalues --   -0.06545  -0.06114  -0.06114  -0.04765  -0.04716
 Alpha virt. eigenvalues --   -0.04715  -0.04672  -0.04474  -0.04473  -0.04004
 Alpha virt. eigenvalues --   -0.04003  -0.03231  -0.02943  -0.02943  -0.02358
 Alpha virt. eigenvalues --   -0.02357  -0.00867   0.01028   0.02176   0.02616
 Alpha virt. eigenvalues --    0.02618   0.04574   0.04575   0.05228   0.06003
 Alpha virt. eigenvalues --    0.06005   0.06294   0.06294   0.07292   0.07294
 Alpha virt. eigenvalues --    0.07382   0.07662   0.07669   0.07823   0.08471
 Alpha virt. eigenvalues --    0.10685   0.10687   0.11335   0.11803   0.13659
 Alpha virt. eigenvalues --    0.15678   0.15682   0.19890   0.19892   0.20370
 Alpha virt. eigenvalues --    0.22087   0.22089   0.23485   0.23992   0.25319
 Alpha virt. eigenvalues --    0.25959   0.25967   0.30035   0.31450   0.31453
 Alpha virt. eigenvalues --    0.35744   0.36004   0.36005   0.37865   0.39082
 Alpha virt. eigenvalues --    0.39085   0.39777   0.45825   0.45832   0.53626
 Alpha virt. eigenvalues --    0.53635   0.55850   0.63367   0.63371   0.67678
 Alpha virt. eigenvalues --    0.82893   0.86948   0.86962   0.94105   0.94113
 Alpha virt. eigenvalues --    1.14553   1.16756   1.16760   1.18033   1.20783
 Alpha virt. eigenvalues --    1.21969   1.21978   1.23408   1.23410   1.28215
 Alpha virt. eigenvalues --    1.34162   1.34182   1.36427   1.54462   1.54472
 Alpha virt. eigenvalues --    1.57762   1.68376   1.71624   1.73145   1.73152
 Alpha virt. eigenvalues --    1.77482   1.77486   1.87079   1.87368   1.87376
 Alpha virt. eigenvalues --    1.88073   1.92076   1.92082   1.93335   1.98431
 Alpha virt. eigenvalues --    1.98442   2.03016   2.03022   2.14785   2.38176
 Alpha virt. eigenvalues --    2.55152   2.55173   3.54377   4.05620   4.14278
 Alpha virt. eigenvalues --    4.14293   4.31219
          Condensed to atoms (all electrons):
              1          2          3          4          5          6
     1  O    8.965898   0.058637   0.023962   0.058748  -0.200864   0.006213
     2  O    0.058637   8.965691   0.023964   0.058662  -0.200709   0.059870
     3  O    0.023962   0.023964   8.852656   0.023977  -0.039965   0.122154
     4  O    0.058748   0.058662   0.023977   8.966230  -0.201111   0.059835
     5  P   -0.200864  -0.200709  -0.039965  -0.201111  14.443274   0.033753
     6  Ca   0.006213   0.059870   0.122154   0.059835   0.033753  18.396735
     7  Ca   0.059830   0.059864   0.122151   0.006251   0.033727  -0.047579
     8  Ca   0.059846   0.006224   0.122133   0.059857   0.033817  -0.047663
              7          8
     1  O    0.059830   0.059846
     2  O    0.059864   0.006224
     3  O    0.122151   0.122133
     4  O    0.006251   0.059857
     5  P    0.033727   0.033817
     6  Ca  -0.047579  -0.047663
     7  Ca  18.396780  -0.047707
     8  Ca  -0.047707  18.396978
 Mulliken atomic charges:
              1
     1  O   -1.032271
     2  O   -1.032205
     3  O   -1.251033
     4  O   -1.032449
     5  P    1.098078
     6  Ca   1.416681
     7  Ca   1.416683
     8  Ca   1.416515
 Sum of Mulliken charges=   1.00000
 Atomic charges with hydrogens summed into heavy atoms:
              1
     1  O   -1.032271
     2  O   -1.032205
     3  O   -1.251033
     4  O   -1.032449
     5  P    1.098078
     6  Ca   1.416681
     7  Ca   1.416683
     8  Ca   1.416515
 Sum of Mulliken charges=   1.00000
 Electronic spatial extent (au):  <R**2>=  1510.1560
 Charge=     1.0000 electrons
 Dipole moment (field-independent basis, Debye):
    X=     0.0076    Y=    -0.0107    Z=    -8.2296  Tot=     8.2296
 Quadrupole moment (field-independent basis, Debye-Ang):
   XX=   -40.0203   YY=   -40.0381   ZZ=   -90.0200
   XY=     0.0001   XZ=     0.0109   YZ=    -0.0411
 Traceless Quadrupole moment (field-independent basis, Debye-Ang):
   XX=    16.6725   YY=    16.6546   ZZ=   -33.3272
   XY=     0.0001   XZ=     0.0109   YZ=    -0.0411
 Octapole moment (field-independent basis, Debye-Ang**2):
  XXX=   -54.0288  YYY=    22.3929  ZZZ=    -1.6851  XYY=    54.1174
  XXY=   -22.5915  XXZ=   -46.6830  XZZ=    -0.0227  YZZ=     0.0692
  YYZ=   -46.6636  XYZ=    -0.0496
 Hexadecapole moment (field-independent basis, Debye-Ang**3):
 XXXX=  -416.0853 YYYY=  -416.0179 ZZZZ=  -721.8104 XXXY=    -0.0022
 XXXZ=    14.3187 YYYX=    -0.0380 YYYZ=    -6.0940 ZZZX=     0.0596
 ZZZY=    -0.1892 XXYY=  -138.6368 XXZZ=  -187.6153 YYZZ=  -187.5974
 XXYZ=     5.8836 YYXZ=   -14.2283 ZZXY=     0.0251
 N-N= 9.527040936445D+02 E-N=-8.229883746827D+03  KE= 2.667694267272D+03
 Merz-Kollman atomic radii used.
 Read replacement radii for each type of atom:
 Rad(20) =   1.188000000000D+00
 Atom Element Radius
    1     8    1.40
    2     8    1.40
    3     8    1.40
    4     8    1.40
    5    15    1.80
    6    20    1.19
    7    20    1.19
    8    20    1.19

 **********************************************************************

            Electrostatic Properties Using The SCF Density

 **********************************************************************

       Atomic Center    1 is at  -0.902773  1.174963  0.921250
       Atomic Center    2 is at  -0.566086 -1.367402  0.923200
       Atomic Center    3 is at   0.000170 -0.001599 -1.712090
       Atomic Center    4 is at   1.467427  0.195272  0.922700
       Atomic Center    5 is at  -0.000831  0.001631  1.718170
       Atomic Center    6 is at   1.186213 -1.543354 -0.568650
       Atomic Center    7 is at  -1.928979 -0.255895 -0.570690
       Atomic Center    8 is at   0.743895  1.797533 -0.571310
     687 points will be used for fitting atomic charges
 Fitting point charges to eletrostatic potential
 Charges from ESP fit, RMS=   0.00625 RRMS=   0.03805:
 Charge=   1.00000 Dipole=    -0.0131    -0.0207    -8.4383 Tot=     8.4384
              1
     1  O   -0.947900
     2  O   -0.948057
     3  O   -1.636664
     4  O   -0.947157
     5  P    0.519220
     6  Ca   1.652885
     7  Ca   1.655820
     8  Ca   1.651853
 -----------------------------------------------------------------

              Electrostatic Properties (Atomic Units)

 -----------------------------------------------------------------
    Center     Electric         -------- Electric Field --------
               Potential          X             Y             Z
 -----------------------------------------------------------------
    1 Atom    -22.251412
    2 Atom    -22.251033
    3 Atom    -22.290811
    4 Atom    -22.251397
    5 Atom    -53.968063
    6 Atom    -80.043229
    7 Atom    -80.043333
    8 Atom    -80.043309
 -----------------------------------------------------------------
 1\1\GINC-N031\SP\RB3LYP\6-31+G(d,p)\Ca3O4P1(1+)\TIMN\12-Jun-2015\0\\# 
 b3lyp/6-31+G(d,p) int=ultrafine pop=(ReadRadii,MK)\\Ca3PO4_15.mol2c_pl
 usQ.z51165.zip.xyz\\1,1\O,0,-0.90258,1.17511,0.92125\O,0,-0.56631,-1.3
 6731,0.9232\O,0,0.00017,-0.0016,-1.71209\O,0,1.46746,0.19503,0.9227\P,
 0,-0.00083,0.00163,1.71817\Ca,0,1.18596,-1.54355,-0.56865\Ca,0,-1.9290
 2,-0.25558,-0.57069\Ca,0,0.74419,1.79741,-0.57131\\Version=EM64T-G03Re
 vE.01\State=1-A\HF=-2675.0710385\RMSD=8.266e-05\Thermal=0.\Dipole=0.00
 29895,-0.0042006,-3.2377591\PG=C01 [X(Ca3O4P1)]\\@


 OLD HORSE! OLD HORSE! WHAT BROUGHT YOU HERE?
 FROM SACARAP' TO PORTLAND PIER
 I'VE CARTED STONE THIS MANY A YEAR;
 TILL, KILLED BY BLOWS AND SORE ABUSE,
 THEY SALTED ME DOWN FOR SAILORS' USE.
 THE SAILORS THEY DO ME DESPISE;
 THEY TURN ME OVER AND DAMN MY EYES;
 CUT OFF MY MEAT, AND SCRAPE MY BONES,
 AND PITCH ME OVER TO DAVY JONES.

    SAILORS' COMPLAINT ABOUT THE BEEF
    SERVED ON SHIPBOARD, CIRCA 1835.
 Job cpu time:  0 days  0 hours  1 minutes 43.8 seconds.
 File lengths (MBytes):  RWF=     32 Int=      0 D2E=      0 Chk=     11 Scr=      1
 Normal termination of Gaussian 03 at Fri Jun 12 17:39:01 2015.
