 Entering Gaussian System, Link 0=/home/timn/tmp/g03.e01/g03
 Input=Ca3PO4_84.mol2c_plusQ.z51501.zip.xyz.gjf
 Output=Ca3PO4_84.mol2c_plusQ.z51501.zip.xyz.out
 Initial command:
 /home/timn/tmp/g03.e01/l1.exe /home/timn/tmp/g03.e01/Gau-12172.inp -scrdir=/home/timn/tmp/g03.e01/
 Default is to use a total of   2 processors:
                                2 via shared-memory
                                1 via Linda
 Entering Link 1 = /home/timn/tmp/g03.e01/l1.exe PID=     12173.
  
 Copyright (c) 1988,1990,1992,1993,1995,1998,2003,2004,2007, Gaussian, Inc.
                  All Rights Reserved.
  
 This is the Gaussian(R) 03 program.  It is based on the
 the Gaussian(R) 98 system (copyright 1998, Gaussian, Inc.),
 the Gaussian(R) 94 system (copyright 1995, Gaussian, Inc.),
 the Gaussian 92(TM) system (copyright 1992, Gaussian, Inc.),
 the Gaussian 90(TM) system (copyright 1990, Gaussian, Inc.),
 the Gaussian 88(TM) system (copyright 1988, Gaussian, Inc.),
 the Gaussian 86(TM) system (copyright 1986, Carnegie Mellon
 University), and the Gaussian 82(TM) system (copyright 1983,
 Carnegie Mellon University). Gaussian is a federally registered
 trademark of Gaussian, Inc.
  
 This software contains proprietary and confidential information,
 including trade secrets, belonging to Gaussian, Inc.
  
 This software is provided under written license and may be
 used, copied, transmitted, or stored only in accord with that
 written license.
  
 The following legend is applicable only to US Government
 contracts under FAR:
  
                    RESTRICTED RIGHTS LEGEND
  
 Use, reproduction and disclosure by the US Government is
 subject to restrictions as set forth in subparagraphs (a)
 and (c) of the Commercial Computer Software - Restricted
 Rights clause in FAR 52.227-19.
  
 Gaussian, Inc.
 340 Quinnipiac St., Bldg. 40, Wallingford CT 06492
  
  
 ---------------------------------------------------------------
 Warning -- This program may not be used in any manner that
 competes with the business of Gaussian, Inc. or will provide
 assistance to any competitor of Gaussian, Inc.  The licensee
 of this program is prohibited from giving any competitor of
 Gaussian, Inc. access to this program.  By using this program,
 the user acknowledges that Gaussian, Inc. is engaged in the
 business of creating and licensing software in the field of
 computational chemistry and represents and warrants to the
 licensee that it is not a competitor of Gaussian, Inc. and that
 it will not use this program in any manner prohibited above.
 ---------------------------------------------------------------
  

 Cite this work as:
 Gaussian 03, Revision E.01,
 M. J. Frisch, G. W. Trucks, H. B. Schlegel, G. E. Scuseria, 
 M. A. Robb, J. R. Cheeseman, J. A. Montgomery, Jr., T. Vreven, 
 K. N. Kudin, J. C. Burant, J. M. Millam, S. S. Iyengar, J. Tomasi, 
 V. Barone, B. Mennucci, M. Cossi, G. Scalmani, N. Rega, 
 G. A. Petersson, H. Nakatsuji, M. Hada, M. Ehara, K. Toyota, 
 R. Fukuda, J. Hasegawa, M. Ishida, T. Nakajima, Y. Honda, O. Kitao, 
 H. Nakai, M. Klene, X. Li, J. E. Knox, H. P. Hratchian, J. B. Cross, 
 V. Bakken, C. Adamo, J. Jaramillo, R. Gomperts, R. E. Stratmann, 
 O. Yazyev, A. J. Austin, R. Cammi, C. Pomelli, J. W. Ochterski, 
 P. Y. Ayala, K. Morokuma, G. A. Voth, P. Salvador, J. J. Dannenberg, 
 V. G. Zakrzewski, S. Dapprich, A. D. Daniels, M. C. Strain, 
 O. Farkas, D. K. Malick, A. D. Rabuck, K. Raghavachari, 
 J. B. Foresman, J. V. Ortiz, Q. Cui, A. G. Baboul, S. Clifford, 
 J. Cioslowski, B. B. Stefanov, G. Liu, A. Liashenko, P. Piskorz, 
 I. Komaromi, R. L. Martin, D. J. Fox, T. Keith, M. A. Al-Laham, 
 C. Y. Peng, A. Nanayakkara, M. Challacombe, P. M. W. Gill, 
 B. Johnson, W. Chen, M. W. Wong, C. Gonzalez, and J. A. Pople, 
 Gaussian, Inc., Wallingford CT, 2004.
 
 ******************************************
 Gaussian 03:  EM64T-G03RevE.01 11-Sep-2007
                12-Jun-2015 
 ******************************************
 %nproc=2
 Will use up to    2 processors via shared memory.
 Default route:  MP2=Direct MaxDisk=2000MB
 ----------------------------------------------------
 # b3lyp/6-31+G(d,p) int=ultrafine pop=(ReadRadii,MK)
 ----------------------------------------------------

 Warning!  SCF SP cutoffs with diffuse functions may be unreliable.
 Consider SCF=Tight

 1/38=1/1;
 2/17=6,18=5,40=1/2;
 3/5=1,6=6,7=111,11=2,16=1,25=1,30=1,74=-5,75=5/1,2,3;
 4//1;
 5/5=2,32=1,38=5/2;
 6/7=2,8=2,9=2,10=2,15=8,20=101,28=1/1,2;
 99/5=1,9=1/99;
 ------------------------------------
 Ca3PO4_84.mol2c_plusQ.z51501.zip.xyz
 ------------------------------------
 Symbolic Z-matrix:
 Charge =  1 Multiplicity = 1
 O                     1.04496   0.18721   0.7816 
 O                     1.04466   0.18725  -0.78149 
 O                    -2.35654   1.14203  -0.0004 
 O                    -2.05508  -1.37023   0.00095 
 P                    -3.08714  -0.22215  -0.00059 
 Ca                    3.29582   0.02218  -0.00028 
 Ca                    0.18142  -1.86682   0.00009 
 Ca                   -0.23308   1.95275   0.00037 
 
                          Input orientation:                          
 ---------------------------------------------------------------------
 Center     Atomic     Atomic              Coordinates (Angstroms)
 Number     Number      Type              X           Y           Z
 ---------------------------------------------------------------------
    1          8             0        1.044960    0.187210    0.781600
    2          8             0        1.044660    0.187250   -0.781490
    3          8             0       -2.356540    1.142030   -0.000400
    4          8             0       -2.055080   -1.370230    0.000950
    5         15             0       -3.087140   -0.222150   -0.000590
    6         20             0        3.295820    0.022180   -0.000280
    7         20             0        0.181420   -1.866820    0.000090
    8         20             0       -0.233080    1.952750    0.000370
 ---------------------------------------------------------------------
                    Distance matrix (angstroms):
                    1          2          3          4          5
     1  O    0.000000
     2  O    1.563090   0.000000
     3  O    3.618481   3.617992   0.000000
     4  O    3.556020   3.556170   2.530283   0.000000
     5  P    4.225358   4.224830   1.547502   1.543774   0.000000
     6  Ca   2.388502   2.388568   5.762225   5.529099   6.387635
     7  Ca   2.361249   2.361198   3.936295   2.290968   3.659020
     8  Ca   2.315348   2.315365   2.272961   3.789707   3.588293
                    6          7          8
     6  Ca   0.000000
     7  Ca   3.642500   0.000000
     8  Ca   4.022466   3.841995   0.000000
 Stoichiometry    Ca3O4P(1+)
 Framework group  C1[X(Ca3O4P)]
 Deg. of freedom    18
 Full point group                 C1
 Largest Abelian subgroup         C1      NOp   1
 Largest concise Abelian subgroup C1      NOp   1
                         Standard orientation:                         
 ---------------------------------------------------------------------
 Center     Atomic     Atomic              Coordinates (Angstroms)
 Number     Number      Type              X           Y           Z
 ---------------------------------------------------------------------
    1          8             0        1.044959    0.187209    0.781600
    2          8             0        1.044659    0.187249   -0.781490
    3          8             0       -2.356541    1.142031   -0.000400
    4          8             0       -2.055081   -1.370230    0.000950
    5         15             0       -3.087141   -0.222149   -0.000590
    6         20             0        3.295819    0.022179   -0.000280
    7         20             0        0.181418   -1.866820    0.000090
    8         20             0       -0.233080    1.952750    0.000370
 ---------------------------------------------------------------------
 Rotational constants (GHZ):      1.3855209      0.5356068      0.3981741
 Standard basis: 6-31+G(d,p) (6D, 7F)
 There are   180 symmetry adapted basis functions of A   symmetry.
 Integral buffers will be    131072 words long.
 Raffenetti 2 integral format.
 Two-electron integral symmetry is turned on.
   180 basis functions,   424 primitive gaussians,   180 cartesian basis functions
    53 alpha electrons       53 beta electrons
       nuclear repulsion energy       827.1702763318 Hartrees.
 NAtoms=    8 NActive=    8 NUniq=    8 SFac= 7.50D-01 NAtFMM=   80 NAOKFM=F Big=F
 One-electron integrals computed using PRISM.
 NBasis=   180 RedAO= T  NBF=   180
 NBsUse=   180 1.00D-06 NBFU=   180
 Harris functional with IExCor=  402 diagonalized for initial guess.
 ExpMin= 7.10D-03 ExpMax= 3.53D+04 ExpMxC= 5.30D+03 IAcc=3 IRadAn=         5 AccDes= 0.00D+00
 HarFok:  IExCor= 402 AccDes= 0.00D+00 IRadAn=         5 IDoV=1
 ScaDFX=  1.000000  1.000000  1.000000  1.000000
 Initial guess orbital symmetries:
       Occupied  (A) (A) (A) (A) (A) (A) (A) (A) (A) (A) (A) (A)
                 (A) (A) (A) (A) (A) (A) (A) (A) (A) (A) (A) (A)
                 (A) (A) (A) (A) (A) (A) (A) (A) (A) (A) (A) (A)
                 (A) (A) (A) (A) (A) (A) (A) (A) (A) (A) (A) (A)
                 (A) (A) (A) (A) (A)
       Virtual   (A) (A) (A) (A) (A) (A) (A) (A) (A) (A) (A) (A)
                 (A) (A) (A) (A) (A) (A) (A) (A) (A) (A) (A) (A)
                 (A) (A) (A) (A) (A) (A) (A) (A) (A) (A) (A) (A)
                 (A) (A) (A) (A) (A) (A) (A) (A) (A) (A) (A) (A)
                 (A) (A) (A) (A) (A) (A) (A) (A) (A) (A) (A) (A)
                 (A) (A) (A) (A) (A) (A) (A) (A) (A) (A) (A) (A)
                 (A) (A) (A) (A) (A) (A) (A) (A) (A) (A) (A) (A)
                 (A) (A) (A) (A) (A) (A) (A) (A) (A) (A) (A) (A)
                 (A) (A) (A) (A) (A) (A) (A) (A) (A) (A) (A) (A)
                 (A) (A) (A) (A) (A) (A) (A) (A) (A) (A) (A) (A)
                 (A) (A) (A) (A) (A) (A) (A)
 The electronic state of the initial guess is 1-A.
 Requested convergence on RMS density matrix=1.00D-04 within 128 cycles.
 Requested convergence on MAX density matrix=1.00D-02.
 Requested convergence on             energy=1.00D-02.
 No special actions if energy rises.
 EnCoef did     5 forward-backward iterations
 SCF Done:  E(RB+HF-LYP) =  -2674.91819254     A.U. after   13 cycles
             Convg  =    0.1708D-04             -V/T =  2.0027
             S**2   =   0.0000

 **********************************************************************

            Population analysis using the SCF density.

 **********************************************************************

 Orbital symmetries:
       Occupied  (A) (A) (A) (A) (A) (A) (A) (A) (A) (A) (A) (A)
                 (A) (A) (A) (A) (A) (A) (A) (A) (A) (A) (A) (A)
                 (A) (A) (A) (A) (A) (A) (A) (A) (A) (A) (A) (A)
                 (A) (A) (A) (A) (A) (A) (A) (A) (A) (A) (A) (A)
                 (A) (A) (A) (A) (A)
       Virtual   (A) (A) (A) (A) (A) (A) (A) (A) (A) (A) (A) (A)
                 (A) (A) (A) (A) (A) (A) (A) (A) (A) (A) (A) (A)
                 (A) (A) (A) (A) (A) (A) (A) (A) (A) (A) (A) (A)
                 (A) (A) (A) (A) (A) (A) (A) (A) (A) (A) (A) (A)
                 (A) (A) (A) (A) (A) (A) (A) (A) (A) (A) (A) (A)
                 (A) (A) (A) (A) (A) (A) (A) (A) (A) (A) (A) (A)
                 (A) (A) (A) (A) (A) (A) (A) (A) (A) (A) (A) (A)
                 (A) (A) (A) (A) (A) (A) (A) (A) (A) (A) (A) (A)
                 (A) (A) (A) (A) (A) (A) (A) (A) (A) (A) (A) (A)
                 (A) (A) (A) (A) (A) (A) (A) (A) (A) (A) (A) (A)
                 (A) (A) (A) (A) (A) (A) (A)
 The electronic state is 1-A.
 Alpha  occ. eigenvalues -- -145.53258-145.51953-145.50878 -77.29674 -19.29905
 Alpha  occ. eigenvalues --  -19.29900 -19.27465 -19.27375 -15.60132 -15.58850
 Alpha  occ. eigenvalues --  -15.57846 -12.73351 -12.73316 -12.73247 -12.72068
 Alpha  occ. eigenvalues --  -12.72015 -12.71974 -12.71039 -12.71009 -12.70947
 Alpha  occ. eigenvalues --   -6.75177  -4.91619  -4.91402  -4.90951  -1.97251
 Alpha  occ. eigenvalues --   -1.95992  -1.94925  -1.25614  -1.24837  -1.24754
 Alpha  occ. eigenvalues --   -1.23723  -1.23583  -1.23446  -1.22367  -1.22318
 Alpha  occ. eigenvalues --   -1.22280  -1.13590  -1.12927  -1.08059  -0.93677
 Alpha  occ. eigenvalues --   -0.67265  -0.56834  -0.53254  -0.52926  -0.52432
 Alpha  occ. eigenvalues --   -0.52213  -0.51587  -0.45276  -0.43337  -0.40605
 Alpha  occ. eigenvalues --   -0.40468  -0.39805  -0.25621
 Alpha virt. eigenvalues --   -0.20923  -0.19470  -0.19412  -0.17016  -0.14324
 Alpha virt. eigenvalues --   -0.12189  -0.12121  -0.11692  -0.10934  -0.10722
 Alpha virt. eigenvalues --   -0.08671  -0.08076  -0.07726  -0.07167  -0.06157
 Alpha virt. eigenvalues --   -0.05858  -0.05540  -0.05452  -0.05179  -0.04759
 Alpha virt. eigenvalues --   -0.04563  -0.04501  -0.04414  -0.04020  -0.03408
 Alpha virt. eigenvalues --   -0.03223  -0.03089  -0.03034  -0.01942  -0.00322
 Alpha virt. eigenvalues --    0.00565   0.01506   0.01676   0.02409   0.02702
 Alpha virt. eigenvalues --    0.03591   0.03597   0.03871   0.04579   0.05009
 Alpha virt. eigenvalues --    0.05133   0.05908   0.05963   0.06640   0.06896
 Alpha virt. eigenvalues --    0.06904   0.07352   0.07792   0.08104   0.08879
 Alpha virt. eigenvalues --    0.11359   0.12495   0.12740   0.14654   0.14791
 Alpha virt. eigenvalues --    0.15127   0.16020   0.17356   0.18318   0.20175
 Alpha virt. eigenvalues --    0.20981   0.23233   0.25325   0.27424   0.28227
 Alpha virt. eigenvalues --    0.29091   0.30102   0.32259   0.33373   0.33420
 Alpha virt. eigenvalues --    0.35142   0.36666   0.37419   0.45809   0.46331
 Alpha virt. eigenvalues --    0.46583   0.48793   0.56484   0.57078   0.58316
 Alpha virt. eigenvalues --    0.62302   0.68470   0.76837   0.87266   0.90901
 Alpha virt. eigenvalues --    0.95797   1.05077   1.05843   1.07883   1.09321
 Alpha virt. eigenvalues --    1.10312   1.11207   1.13647   1.16578   1.19190
 Alpha virt. eigenvalues --    1.21544   1.25257   1.28065   1.38905   1.42022
 Alpha virt. eigenvalues --    1.43666   1.47778   1.50266   1.57818   1.66608
 Alpha virt. eigenvalues --    1.67752   1.68554   1.71829   1.73852   1.77716
 Alpha virt. eigenvalues --    1.79228   1.80369   1.81099   1.86126   1.86768
 Alpha virt. eigenvalues --    1.87602   2.09982   2.13325   2.13931   2.53969
 Alpha virt. eigenvalues --    2.68496   2.97667   3.39364   3.84909   3.91224
 Alpha virt. eigenvalues --    3.99662   4.04047
          Condensed to atoms (all electrons):
              1          2          3          4          5          6
     1  O    8.710766   0.012696   0.007239   0.009038  -0.016481  -0.099584
     2  O    0.012696   8.710815   0.007269   0.009045  -0.016468  -0.099607
     3  O    0.007239   0.007269   8.824918  -0.070596  -0.112370   0.003109
     4  O    0.009038   0.009045  -0.070596   8.840641  -0.122777   0.002093
     5  P   -0.016481  -0.016468  -0.112370  -0.122777  14.599194   0.003517
     6  Ca  -0.099584  -0.099607   0.003109   0.002093   0.003517  19.082330
     7  Ca  -0.062709  -0.062727  -0.007574   0.030391   0.036209   0.273017
     8  Ca   0.006084   0.006049   0.052780  -0.002727   0.003181   0.127516
              7          8
     1  O   -0.062709   0.006084
     2  O   -0.062727   0.006049
     3  O   -0.007574   0.052780
     4  O    0.030391  -0.002727
     5  P    0.036209   0.003181
     6  Ca   0.273017   0.127516
     7  Ca  18.735036   0.091371
     8  Ca   0.091371  18.482332
 Mulliken atomic charges:
              1
     1  O   -0.567049
     2  O   -0.567072
     3  O   -0.704776
     4  O   -0.695108
     5  P    0.625996
     6  Ca   0.707610
     7  Ca   0.966985
     8  Ca   1.233414
 Sum of Mulliken charges=   1.00000
 Atomic charges with hydrogens summed into heavy atoms:
              1
     1  O   -0.567049
     2  O   -0.567072
     3  O   -0.704776
     4  O   -0.695108
     5  P    0.625996
     6  Ca   0.707610
     7  Ca   0.966985
     8  Ca   1.233414
 Sum of Mulliken charges=   1.00000
 Electronic spatial extent (au):  <R**2>=  2436.7456
 Charge=     1.0000 electrons
 Dipole moment (field-independent basis, Debye):
    X=     3.4342    Y=     2.1735    Z=     0.0002  Tot=     4.0642
 Quadrupole moment (field-independent basis, Debye-Ang):
   XX=   -68.7708   YY=   -52.8502   ZZ=   -81.1998
   XY=     0.8102   XZ=    -0.0010   YZ=     0.0080
 Traceless Quadrupole moment (field-independent basis, Debye-Ang):
   XX=    -1.1639   YY=    14.7568   ZZ=   -13.5929
   XY=     0.8102   XZ=    -0.0010   YZ=     0.0080
 Octapole moment (field-independent basis, Debye-Ang**2):
  XXX=    34.0004  YYY=    28.8109  ZZZ=     0.0105  XYY=   -21.0042
  XXY=    10.4806  XXZ=    -0.0011  XZZ=   -23.5100  YZZ=     3.5639
  YYZ=     0.0133  XYZ=    -0.0171
 Hexadecapole moment (field-independent basis, Debye-Ang**3):
 XXXX= -2209.2047 YYYY=  -749.4811 ZZZZ=  -190.0508 XXXY=    59.6342
 XXXZ=    -0.0694 YYYX=     1.7857 YYYZ=     0.0195 ZZZX=     0.0008
 ZZZY=     0.0036 XXYY=  -648.7500 XXZZ=  -443.3806 YYZZ=  -174.9799
 XXYZ=     0.0205 YYXZ=     0.0074 ZZXY=     4.2457
 N-N= 8.271702763318D+02 E-N=-7.974261104601D+03  KE= 2.667661897694D+03
 Merz-Kollman atomic radii used.
 Read replacement radii for each type of atom:
 Rad(20) =   1.188000000000D+00
 Atom Element Radius
    1     8    1.40
    2     8    1.40
    3     8    1.40
    4     8    1.40
    5    15    1.80
    6    20    1.19
    7    20    1.19
    8    20    1.19

 **********************************************************************

            Electrostatic Properties Using The SCF Density

 **********************************************************************

       Atomic Center    1 is at   1.044959  0.187209  0.781600
       Atomic Center    2 is at   1.044659  0.187249 -0.781490
       Atomic Center    3 is at  -2.356541  1.142031 -0.000400
       Atomic Center    4 is at  -2.055081 -1.370230  0.000950
       Atomic Center    5 is at  -3.087141 -0.222149 -0.000590
       Atomic Center    6 is at   3.295819  0.022179 -0.000280
       Atomic Center    7 is at   0.181418 -1.866820  0.000090
       Atomic Center    8 is at  -0.233080  1.952750  0.000370
     781 points will be used for fitting atomic charges
 Fitting point charges to eletrostatic potential
 Charges from ESP fit, RMS=   0.02248 RRMS=   0.14371:
 Charge=   1.00000 Dipole=     8.1248     1.1528     0.0000 Tot=     8.2061
              1
     1  O   -0.664481
     2  O   -0.664240
     3  O   -0.401188
     4  O   -0.272300
     5  P    0.077948
     6  Ca   0.584885
     7  Ca   1.044629
     8  Ca   1.294746
 -----------------------------------------------------------------

              Electrostatic Properties (Atomic Units)

 -----------------------------------------------------------------
    Center     Electric         -------- Electric Field --------
               Potential          X             Y             Z
 -----------------------------------------------------------------
    1 Atom    -22.172564
    2 Atom    -22.172544
    3 Atom    -22.189176
    4 Atom    -22.190226
    5 Atom    -53.920491
    6 Atom    -80.035431
    7 Atom    -80.021853
    8 Atom    -80.008570
 -----------------------------------------------------------------
 1\1\GINC-N033\SP\RB3LYP\6-31+G(d,p)\Ca3O4P1(1+)\TIMN\12-Jun-2015\0\\# 
 b3lyp/6-31+G(d,p) int=ultrafine pop=(ReadRadii,MK)\\Ca3PO4_84.mol2c_pl
 usQ.z51501.zip.xyz\\1,1\O,0,1.04496,0.18721,0.7816\O,0,1.04466,0.18725
 ,-0.78149\O,0,-2.35654,1.14203,-0.0004\O,0,-2.05508,-1.37023,0.00095\P
 ,0,-3.08714,-0.22215,-0.00059\Ca,0,3.29582,0.02218,-0.00028\Ca,0,0.181
 42,-1.86682,0.00009\Ca,0,-0.23308,1.95275,0.00037\\Version=EM64T-G03Re
 vE.01\State=1-A\HF=-2674.9181925\RMSD=1.708e-05\Thermal=0.\Dipole=1.35
 11241,0.8551131,0.0000917\PG=C01 [X(Ca3O4P1)]\\@


 The cat could very well be man's best friend
 but would never stoop to admitting it.
                               -- Doug Larson
 Job cpu time:  0 days  0 hours  2 minutes 23.1 seconds.
 File lengths (MBytes):  RWF=     32 Int=      0 D2E=      0 Chk=     11 Scr=      1
 Normal termination of Gaussian 03 at Fri Jun 12 17:46:13 2015.
