 Entering Gaussian System, Link 0=/home/timn/tmp/g03.e01/g03
 Input=Ca3PO4_105.mol2ccc_plusQ.z51105.zip.xyz.gjf
 Output=Ca3PO4_105.mol2ccc_plusQ.z51105.zip.xyz.out
 Initial command:
 /home/timn/tmp/g03.e01/l1.exe /home/timn/tmp/g03.e01/Gau-13201.inp -scrdir=/home/timn/tmp/g03.e01/
 Default is to use a total of   2 processors:
                                2 via shared-memory
                                1 via Linda
 Entering Link 1 = /home/timn/tmp/g03.e01/l1.exe PID=     13202.
  
 Copyright (c) 1988,1990,1992,1993,1995,1998,2003,2004,2007, Gaussian, Inc.
                  All Rights Reserved.
  
 This is the Gaussian(R) 03 program.  It is based on the
 the Gaussian(R) 98 system (copyright 1998, Gaussian, Inc.),
 the Gaussian(R) 94 system (copyright 1995, Gaussian, Inc.),
 the Gaussian 92(TM) system (copyright 1992, Gaussian, Inc.),
 the Gaussian 90(TM) system (copyright 1990, Gaussian, Inc.),
 the Gaussian 88(TM) system (copyright 1988, Gaussian, Inc.),
 the Gaussian 86(TM) system (copyright 1986, Carnegie Mellon
 University), and the Gaussian 82(TM) system (copyright 1983,
 Carnegie Mellon University). Gaussian is a federally registered
 trademark of Gaussian, Inc.
  
 This software contains proprietary and confidential information,
 including trade secrets, belonging to Gaussian, Inc.
  
 This software is provided under written license and may be
 used, copied, transmitted, or stored only in accord with that
 written license.
  
 The following legend is applicable only to US Government
 contracts under FAR:
  
                    RESTRICTED RIGHTS LEGEND
  
 Use, reproduction and disclosure by the US Government is
 subject to restrictions as set forth in subparagraphs (a)
 and (c) of the Commercial Computer Software - Restricted
 Rights clause in FAR 52.227-19.
  
 Gaussian, Inc.
 340 Quinnipiac St., Bldg. 40, Wallingford CT 06492
  
  
 ---------------------------------------------------------------
 Warning -- This program may not be used in any manner that
 competes with the business of Gaussian, Inc. or will provide
 assistance to any competitor of Gaussian, Inc.  The licensee
 of this program is prohibited from giving any competitor of
 Gaussian, Inc. access to this program.  By using this program,
 the user acknowledges that Gaussian, Inc. is engaged in the
 business of creating and licensing software in the field of
 computational chemistry and represents and warrants to the
 licensee that it is not a competitor of Gaussian, Inc. and that
 it will not use this program in any manner prohibited above.
 ---------------------------------------------------------------
  

 Cite this work as:
 Gaussian 03, Revision E.01,
 M. J. Frisch, G. W. Trucks, H. B. Schlegel, G. E. Scuseria, 
 M. A. Robb, J. R. Cheeseman, J. A. Montgomery, Jr., T. Vreven, 
 K. N. Kudin, J. C. Burant, J. M. Millam, S. S. Iyengar, J. Tomasi, 
 V. Barone, B. Mennucci, M. Cossi, G. Scalmani, N. Rega, 
 G. A. Petersson, H. Nakatsuji, M. Hada, M. Ehara, K. Toyota, 
 R. Fukuda, J. Hasegawa, M. Ishida, T. Nakajima, Y. Honda, O. Kitao, 
 H. Nakai, M. Klene, X. Li, J. E. Knox, H. P. Hratchian, J. B. Cross, 
 V. Bakken, C. Adamo, J. Jaramillo, R. Gomperts, R. E. Stratmann, 
 O. Yazyev, A. J. Austin, R. Cammi, C. Pomelli, J. W. Ochterski, 
 P. Y. Ayala, K. Morokuma, G. A. Voth, P. Salvador, J. J. Dannenberg, 
 V. G. Zakrzewski, S. Dapprich, A. D. Daniels, M. C. Strain, 
 O. Farkas, D. K. Malick, A. D. Rabuck, K. Raghavachari, 
 J. B. Foresman, J. V. Ortiz, Q. Cui, A. G. Baboul, S. Clifford, 
 J. Cioslowski, B. B. Stefanov, G. Liu, A. Liashenko, P. Piskorz, 
 I. Komaromi, R. L. Martin, D. J. Fox, T. Keith, M. A. Al-Laham, 
 C. Y. Peng, A. Nanayakkara, M. Challacombe, P. M. W. Gill, 
 B. Johnson, W. Chen, M. W. Wong, C. Gonzalez, and J. A. Pople, 
 Gaussian, Inc., Wallingford CT, 2004.
 
 ******************************************
 Gaussian 03:  EM64T-G03RevE.01 11-Sep-2007
                12-Jun-2015 
 ******************************************
 %nproc=2
 Will use up to    2 processors via shared memory.
 Default route:  MP2=Direct MaxDisk=2000MB
 ----------------------------------------------------
 # b3lyp/6-31+G(d,p) int=ultrafine pop=(ReadRadii,MK)
 ----------------------------------------------------

 Warning!  SCF SP cutoffs with diffuse functions may be unreliable.
 Consider SCF=Tight

 1/38=1/1;
 2/17=6,18=5,40=1/2;
 3/5=1,6=6,7=111,11=2,16=1,25=1,30=1,74=-5,75=5/1,2,3;
 4//1;
 5/5=2,32=1,38=5/2;
 6/7=2,8=2,9=2,10=2,15=8,20=101,28=1/1,2;
 99/5=1,9=1/99;
 ---------------------------------------
 Ca3PO4_105.mol2ccc_plusQ.z51105.zip.xyz
 ---------------------------------------
 Symbolic Z-matrix:
 Charge =  1 Multiplicity = 1
 O                     2.94183   0.67046  -0.00242 
 O                    -2.83827  -1.41624  -0.00081 
 O                     1.67008  -1.50753   0.00406 
 O                    -0.82998   0.94438   0.00062 
 P                     3.07286  -0.87677  -0.0028 
 Ca                   -0.67048  -1.46      0.00128 
 Ca                    1.07272   1.95132   0.0018 
 Ca                   -3.08435   0.68983  -0.00155 
 
                          Input orientation:                          
 ---------------------------------------------------------------------
 Center     Atomic     Atomic              Coordinates (Angstroms)
 Number     Number      Type              X           Y           Z
 ---------------------------------------------------------------------
    1          8             0        2.941830    0.670460   -0.002420
    2          8             0       -2.838270   -1.416240   -0.000810
    3          8             0        1.670080   -1.507530    0.004060
    4          8             0       -0.829980    0.944380    0.000620
    5         15             0        3.072860   -0.876770   -0.002800
    6         20             0       -0.670480   -1.460000    0.001280
    7         20             0        1.072720    1.951320    0.001800
    8         20             0       -3.084350    0.689830   -0.001550
 ---------------------------------------------------------------------
                    Distance matrix (angstroms):
                    1          2          3          4          5
     1  O    0.000000
     2  O    6.145232   0.000000
     3  O    2.522108   4.509277   0.000000
     4  O    3.781745   3.099316   3.501739   0.000000
     5  P    1.552768   5.935696   1.538082   4.306827   0.000000
     6  Ca   4.193764   2.168233   2.341044   2.409665   3.788505
     7  Ca   2.265876   5.161038   3.510055   2.152718   3.463910
     8  Ca   6.026211   2.120398   5.237655   2.268697   6.353383
                    6          7          8
     6  Ca   0.000000
     7  Ca   3.830907   0.000000
     8  Ca   3.232421   4.344260   0.000000
 Stoichiometry    Ca3O4P(1+)
 Framework group  C1[X(Ca3O4P)]
 Deg. of freedom    18
 Full point group                 C1
 Largest Abelian subgroup         C1      NOp   1
 Largest concise Abelian subgroup C1      NOp   1
                         Standard orientation:                         
 ---------------------------------------------------------------------
 Center     Atomic     Atomic              Coordinates (Angstroms)
 Number     Number      Type              X           Y           Z
 ---------------------------------------------------------------------
    1          8             0        2.941831    0.670457   -0.002422
    2          8             0       -2.838271   -1.416238   -0.000812
    3          8             0        1.670079   -1.507532    0.004058
    4          8             0       -0.829979    0.944381    0.000618
    5         15             0        3.072859   -0.876773   -0.002802
    6         20             0       -0.670481   -1.459999    0.001278
    7         20             0        1.072722    1.951319    0.001798
    8         20             0       -3.084349    0.689833   -0.001552
 ---------------------------------------------------------------------
 Rotational constants (GHZ):      1.3657070      0.4770123      0.3535318
 Standard basis: 6-31+G(d,p) (6D, 7F)
 There are   180 symmetry adapted basis functions of A   symmetry.
 Integral buffers will be    131072 words long.
 Raffenetti 2 integral format.
 Two-electron integral symmetry is turned on.
   180 basis functions,   424 primitive gaussians,   180 cartesian basis functions
    53 alpha electrons       53 beta electrons
       nuclear repulsion energy       801.0446151242 Hartrees.
 NAtoms=    8 NActive=    8 NUniq=    8 SFac= 7.50D-01 NAtFMM=   80 NAOKFM=F Big=F
 One-electron integrals computed using PRISM.
 NBasis=   180 RedAO= T  NBF=   180
 NBsUse=   180 1.00D-06 NBFU=   180
 Harris functional with IExCor=  402 diagonalized for initial guess.
 ExpMin= 7.10D-03 ExpMax= 3.53D+04 ExpMxC= 5.30D+03 IAcc=3 IRadAn=         5 AccDes= 0.00D+00
 HarFok:  IExCor= 402 AccDes= 0.00D+00 IRadAn=         5 IDoV=1
 ScaDFX=  1.000000  1.000000  1.000000  1.000000
 Initial guess orbital symmetries:
       Occupied  (A) (A) (A) (A) (A) (A) (A) (A) (A) (A) (A) (A)
                 (A) (A) (A) (A) (A) (A) (A) (A) (A) (A) (A) (A)
                 (A) (A) (A) (A) (A) (A) (A) (A) (A) (A) (A) (A)
                 (A) (A) (A) (A) (A) (A) (A) (A) (A) (A) (A) (A)
                 (A) (A) (A) (A) (A)
       Virtual   (A) (A) (A) (A) (A) (A) (A) (A) (A) (A) (A) (A)
                 (A) (A) (A) (A) (A) (A) (A) (A) (A) (A) (A) (A)
                 (A) (A) (A) (A) (A) (A) (A) (A) (A) (A) (A) (A)
                 (A) (A) (A) (A) (A) (A) (A) (A) (A) (A) (A) (A)
                 (A) (A) (A) (A) (A) (A) (A) (A) (A) (A) (A) (A)
                 (A) (A) (A) (A) (A) (A) (A) (A) (A) (A) (A) (A)
                 (A) (A) (A) (A) (A) (A) (A) (A) (A) (A) (A) (A)
                 (A) (A) (A) (A) (A) (A) (A) (A) (A) (A) (A) (A)
                 (A) (A) (A) (A) (A) (A) (A) (A) (A) (A) (A) (A)
                 (A) (A) (A) (A) (A) (A) (A) (A) (A) (A) (A) (A)
                 (A) (A) (A) (A) (A) (A) (A)
 The electronic state of the initial guess is 1-A.
 Requested convergence on RMS density matrix=1.00D-04 within 128 cycles.
 Requested convergence on MAX density matrix=1.00D-02.
 Requested convergence on             energy=1.00D-02.
 No special actions if energy rises.
 EnCoef did     3 forward-backward iterations
 EnCoef did   100 forward-backward iterations
 EnCoef did     4 forward-backward iterations
 EnCoef did     3 forward-backward iterations
 SCF Done:  E(RB+HF-LYP) =  -2675.00578579     A.U. after   10 cycles
             Convg  =    0.8555D-04             -V/T =  2.0028
             S**2   =   0.0000

 **********************************************************************

            Population analysis using the SCF density.

 **********************************************************************

 Orbital symmetries:
       Occupied  (A) (A) (A) (A) (A) (A) (A) (A) (A) (A) (A) (A)
                 (A) (A) (A) (A) (A) (A) (A) (A) (A) (A) (A) (A)
                 (A) (A) (A) (A) (A) (A) (A) (A) (A) (A) (A) (A)
                 (A) (A) (A) (A) (A) (A) (A) (A) (A) (A) (A) (A)
                 (A) (A) (A) (A) (A)
       Virtual   (A) (A) (A) (A) (A) (A) (A) (A) (A) (A) (A) (A)
                 (A) (A) (A) (A) (A) (A) (A) (A) (A) (A) (A) (A)
                 (A) (A) (A) (A) (A) (A) (A) (A) (A) (A) (A) (A)
                 (A) (A) (A) (A) (A) (A) (A) (A) (A) (A) (A) (A)
                 (A) (A) (A) (A) (A) (A) (A) (A) (A) (A) (A) (A)
                 (A) (A) (A) (A) (A) (A) (A) (A) (A) (A) (A) (A)
                 (A) (A) (A) (A) (A) (A) (A) (A) (A) (A) (A) (A)
                 (A) (A) (A) (A) (A) (A) (A) (A) (A) (A) (A) (A)
                 (A) (A) (A) (A) (A) (A) (A) (A) (A) (A) (A) (A)
                 (A) (A) (A) (A) (A) (A) (A) (A) (A) (A) (A) (A)
                 (A) (A) (A) (A) (A) (A) (A)
 The electronic state is 1-A.
 Alpha  occ. eigenvalues -- -145.53281-145.47066-145.44482 -77.29387 -19.27564
 Alpha  occ. eigenvalues --  -19.27174 -19.17716 -19.10346 -15.60173 -15.53966
 Alpha  occ. eigenvalues --  -15.51440 -12.73429 -12.73377 -12.73217 -12.67206
 Alpha  occ. eigenvalues --  -12.67124 -12.67044 -12.64716 -12.64626 -12.64471
 Alpha  occ. eigenvalues --   -6.74936  -4.91376  -4.91152  -4.90715  -1.97372
 Alpha  occ. eigenvalues --   -1.91262  -1.88889  -1.25224  -1.25070  -1.24243
 Alpha  occ. eigenvalues --   -1.19129  -1.18802  -1.18221  -1.16994  -1.16383
 Alpha  occ. eigenvalues --   -1.16268  -1.13225  -1.07832  -0.92328  -0.84310
 Alpha  occ. eigenvalues --   -0.66967  -0.56434  -0.52376  -0.52167  -0.45128
 Alpha  occ. eigenvalues --   -0.43231  -0.40534  -0.38452  -0.37478  -0.36314
 Alpha  occ. eigenvalues --   -0.29843  -0.28433  -0.28135
 Alpha virt. eigenvalues --   -0.21392  -0.19361  -0.18291  -0.14043  -0.13465
 Alpha virt. eigenvalues --   -0.11754  -0.10629  -0.10445  -0.08679  -0.08512
 Alpha virt. eigenvalues --   -0.07769  -0.07166  -0.06432  -0.06120  -0.05565
 Alpha virt. eigenvalues --   -0.05537  -0.04825  -0.04711  -0.04332  -0.03839
 Alpha virt. eigenvalues --   -0.03762  -0.03759  -0.03488  -0.03199  -0.02767
 Alpha virt. eigenvalues --   -0.02682  -0.02487  -0.01505   0.00319   0.00761
 Alpha virt. eigenvalues --    0.02056   0.03223   0.03835   0.04053   0.04458
 Alpha virt. eigenvalues --    0.04577   0.05396   0.06093   0.06144   0.06386
 Alpha virt. eigenvalues --    0.06549   0.07573   0.07680   0.08100   0.08700
 Alpha virt. eigenvalues --    0.10067   0.10950   0.11866   0.12001   0.13511
 Alpha virt. eigenvalues --    0.14476   0.15682   0.15957   0.17397   0.18050
 Alpha virt. eigenvalues --    0.18316   0.20074   0.20946   0.21866   0.24101
 Alpha virt. eigenvalues --    0.25434   0.26605   0.27010   0.29682   0.30433
 Alpha virt. eigenvalues --    0.31670   0.32424   0.33026   0.35991   0.37374
 Alpha virt. eigenvalues --    0.39284   0.40354   0.43781   0.46196   0.48681
 Alpha virt. eigenvalues --    0.52114   0.56462   0.56689   0.58495   0.58672
 Alpha virt. eigenvalues --    0.67517   0.79983   0.90211   0.95063   1.01915
 Alpha virt. eigenvalues --    1.06692   1.07597   1.08724   1.10058   1.11359
 Alpha virt. eigenvalues --    1.17114   1.18612   1.19636   1.23472   1.26414
 Alpha virt. eigenvalues --    1.28712   1.31989   1.33513   1.39630   1.43363
 Alpha virt. eigenvalues --    1.47605   1.61481   1.66170   1.67043   1.70972
 Alpha virt. eigenvalues --    1.74713   1.77141   1.79317   1.82824   1.83771
 Alpha virt. eigenvalues --    1.85273   1.86228   1.87624   1.87696   1.89276
 Alpha virt. eigenvalues --    1.94187   1.99866   2.01593   2.10671   2.22806
 Alpha virt. eigenvalues --    2.54016   2.69102   3.39987   3.84705   3.91776
 Alpha virt. eigenvalues --    3.92594   4.07871
          Condensed to atoms (all electrons):
              1          2          3          4          5          6
     1  O    8.784379   0.000010  -0.080107   0.002999  -0.074314  -0.001751
     2  O    0.000010   8.690841  -0.001459  -0.023470  -0.000360   0.222674
     3  O   -0.080107  -0.001459   8.836068  -0.009114  -0.109144   0.034799
     4  O    0.002999  -0.023470  -0.009114   9.067009  -0.007086   0.040424
     5  P   -0.074314  -0.000360  -0.109144  -0.007086  14.561544   0.007201
     6  Ca  -0.001751   0.222674   0.034799   0.040424   0.007201  18.383371
     7  Ca   0.085969  -0.001238   0.003143   0.189665  -0.035464  -0.005950
     8  Ca   0.003810   0.232592   0.009047   0.085645  -0.013813  -0.028797
              7          8
     1  O    0.085969   0.003810
     2  O   -0.001238   0.232592
     3  O    0.003143   0.009047
     4  O    0.189665   0.085645
     5  P   -0.035464  -0.013813
     6  Ca  -0.005950  -0.028797
     7  Ca  18.245495  -0.006103
     8  Ca  -0.006103  18.391677
 Mulliken atomic charges:
              1
     1  O   -0.720994
     2  O   -1.119589
     3  O   -0.683233
     4  O   -1.346072
     5  P    0.671435
     6  Ca   1.348029
     7  Ca   1.524483
     8  Ca   1.325942
 Sum of Mulliken charges=   1.00000
 Atomic charges with hydrogens summed into heavy atoms:
              1
     1  O   -0.720994
     2  O   -1.119589
     3  O   -0.683233
     4  O   -1.346072
     5  P    0.671435
     6  Ca   1.348029
     7  Ca   1.524483
     8  Ca   1.325942
 Sum of Mulliken charges=   1.00000
 Electronic spatial extent (au):  <R**2>=  2666.2408
 Charge=     1.0000 electrons
 Dipole moment (field-independent basis, Debye):
    X=    -0.3959    Y=    11.4682    Z=     0.0053  Tot=    11.4751
 Quadrupole moment (field-independent basis, Debye-Ang):
   XX=   -58.9857   YY=   -46.8280   ZZ=   -69.1173
   XY=   -17.4452   XZ=     0.0336   YZ=     0.0205
 Traceless Quadrupole moment (field-independent basis, Debye-Ang):
   XX=    -0.6754   YY=    11.4824   ZZ=   -10.8070
   XY=   -17.4452   XZ=     0.0336   YZ=     0.0205
 Octapole moment (field-independent basis, Debye-Ang**2):
  XXX=  -102.6232  YYY=    81.0277  ZZZ=     0.0357  XYY=    36.1162
  XXY=   115.5698  XXZ=     0.0176  XZZ=    -0.3079  YZZ=     8.1765
  YYZ=     0.0695  XYZ=     0.1353
 Hexadecapole moment (field-independent basis, Debye-Ang**3):
 XXXX= -2097.2969 YYYY=  -625.6772 ZZZZ=   -84.6812 XXXY=  -422.7336
 XXXZ=     0.6591 YYYX=    49.2942 YYYZ=     0.1027 ZZZX=     0.1098
 ZZZY=     0.0036 XXYY=  -564.6988 XXZZ=  -384.5362 YYZZ=  -135.9072
 XXYZ=    -0.0630 YYXZ=     0.0572 ZZXY=    -5.3715
 N-N= 8.010446151242D+02 E-N=-7.926595469555D+03  KE= 2.667644302717D+03
 Merz-Kollman atomic radii used.
 Read replacement radii for each type of atom:
 Rad(20) =   1.188000000000D+00
 Atom Element Radius
    1     8    1.40
    2     8    1.40
    3     8    1.40
    4     8    1.40
    5    15    1.80
    6    20    1.19
    7    20    1.19
    8    20    1.19

 **********************************************************************

            Electrostatic Properties Using The SCF Density

 **********************************************************************

       Atomic Center    1 is at   2.941831  0.670457 -0.002422
       Atomic Center    2 is at  -2.838271 -1.416238 -0.000812
       Atomic Center    3 is at   1.670079 -1.507532  0.004058
       Atomic Center    4 is at  -0.829979  0.944381  0.000618
       Atomic Center    5 is at   3.072859 -0.876773 -0.002802
       Atomic Center    6 is at  -0.670481 -1.459999  0.001278
       Atomic Center    7 is at   1.072722  1.951319  0.001798
       Atomic Center    8 is at  -3.084349  0.689833 -0.001552
     822 points will be used for fitting atomic charges
 Fitting point charges to eletrostatic potential
 Charges from ESP fit, RMS=   0.00596 RRMS=   0.03925:
 Charge=   1.00000 Dipole=    -0.7596    11.7999     0.0020 Tot=    11.8243
              1
     1  O   -0.706082
     2  O   -1.466966
     3  O   -0.660091
     4  O   -1.706635
     5  P    0.542726
     6  Ca   1.698868
     7  Ca   1.704420
     8  Ca   1.593760
 -----------------------------------------------------------------

              Electrostatic Properties (Atomic Units)

 -----------------------------------------------------------------
    Center     Electric         -------- Electric Field --------
               Potential          X             Y             Z
 -----------------------------------------------------------------
    1 Atom    -22.189002
    2 Atom    -22.359622
    3 Atom    -22.191371
    4 Atom    -22.280766
    5 Atom    -53.918999
    6 Atom    -80.096820
    7 Atom    -80.008610
    8 Atom    -80.072326
 -----------------------------------------------------------------
 1\1\GINC-N029\SP\RB3LYP\6-31+G(d,p)\Ca3O4P1(1+)\TIMN\12-Jun-2015\0\\# 
 b3lyp/6-31+G(d,p) int=ultrafine pop=(ReadRadii,MK)\\Ca3PO4_105.mol2ccc
 _plusQ.z51105.zip.xyz\\1,1\O,0,2.94183,0.67046,-0.00242\O,0,-2.83827,-
 1.41624,-0.00081\O,0,1.67008,-1.50753,0.00406\O,0,-0.82998,0.94438,0.0
 0062\P,0,3.07286,-0.87677,-0.0028\Ca,0,-0.67048,-1.46,0.00128\Ca,0,1.0
 7272,1.95132,0.0018\Ca,0,-3.08435,0.68983,-0.00155\\Version=EM64T-G03R
 evE.01\State=1-A\HF=-2675.0057858\RMSD=8.555e-05\Thermal=0.\Dipole=-0.
 1557476,4.5119503,0.0020835\PG=C01 [X(Ca3O4P1)]\\@


 LAW OF COMPENSATION:
      NO CALCULATION IS EVER A COMPLETE FAILURE; IT 
      CAN ALWAYS SERVE AS A BAD EXAMPLE.

                                           -- ANON
 Job cpu time:  0 days  0 hours  1 minutes 47.0 seconds.
 File lengths (MBytes):  RWF=     32 Int=      0 D2E=      0 Chk=     11 Scr=      1
 Normal termination of Gaussian 03 at Fri Jun 12 17:36:06 2015.
