 Entering Gaussian System, Link 0=/home/timn/tmp/g03.e01/g03
 Input=Ca3PO4_2.mol2_plusQ.z51441.zip.xyz.gjf
 Output=Ca3PO4_2.mol2_plusQ.z51441.zip.xyz.out
 Initial command:
 /home/timn/tmp/g03.e01/l1.exe /home/timn/tmp/g03.e01/Gau-17404.inp -scrdir=/home/timn/tmp/g03.e01/
 Default is to use a total of   2 processors:
                                2 via shared-memory
                                1 via Linda
 Entering Link 1 = /home/timn/tmp/g03.e01/l1.exe PID=     17405.
  
 Copyright (c) 1988,1990,1992,1993,1995,1998,2003,2004,2007, Gaussian, Inc.
                  All Rights Reserved.
  
 This is the Gaussian(R) 03 program.  It is based on the
 the Gaussian(R) 98 system (copyright 1998, Gaussian, Inc.),
 the Gaussian(R) 94 system (copyright 1995, Gaussian, Inc.),
 the Gaussian 92(TM) system (copyright 1992, Gaussian, Inc.),
 the Gaussian 90(TM) system (copyright 1990, Gaussian, Inc.),
 the Gaussian 88(TM) system (copyright 1988, Gaussian, Inc.),
 the Gaussian 86(TM) system (copyright 1986, Carnegie Mellon
 University), and the Gaussian 82(TM) system (copyright 1983,
 Carnegie Mellon University). Gaussian is a federally registered
 trademark of Gaussian, Inc.
  
 This software contains proprietary and confidential information,
 including trade secrets, belonging to Gaussian, Inc.
  
 This software is provided under written license and may be
 used, copied, transmitted, or stored only in accord with that
 written license.
  
 The following legend is applicable only to US Government
 contracts under FAR:
  
                    RESTRICTED RIGHTS LEGEND
  
 Use, reproduction and disclosure by the US Government is
 subject to restrictions as set forth in subparagraphs (a)
 and (c) of the Commercial Computer Software - Restricted
 Rights clause in FAR 52.227-19.
  
 Gaussian, Inc.
 340 Quinnipiac St., Bldg. 40, Wallingford CT 06492
  
  
 ---------------------------------------------------------------
 Warning -- This program may not be used in any manner that
 competes with the business of Gaussian, Inc. or will provide
 assistance to any competitor of Gaussian, Inc.  The licensee
 of this program is prohibited from giving any competitor of
 Gaussian, Inc. access to this program.  By using this program,
 the user acknowledges that Gaussian, Inc. is engaged in the
 business of creating and licensing software in the field of
 computational chemistry and represents and warrants to the
 licensee that it is not a competitor of Gaussian, Inc. and that
 it will not use this program in any manner prohibited above.
 ---------------------------------------------------------------
  

 Cite this work as:
 Gaussian 03, Revision E.01,
 M. J. Frisch, G. W. Trucks, H. B. Schlegel, G. E. Scuseria, 
 M. A. Robb, J. R. Cheeseman, J. A. Montgomery, Jr., T. Vreven, 
 K. N. Kudin, J. C. Burant, J. M. Millam, S. S. Iyengar, J. Tomasi, 
 V. Barone, B. Mennucci, M. Cossi, G. Scalmani, N. Rega, 
 G. A. Petersson, H. Nakatsuji, M. Hada, M. Ehara, K. Toyota, 
 R. Fukuda, J. Hasegawa, M. Ishida, T. Nakajima, Y. Honda, O. Kitao, 
 H. Nakai, M. Klene, X. Li, J. E. Knox, H. P. Hratchian, J. B. Cross, 
 V. Bakken, C. Adamo, J. Jaramillo, R. Gomperts, R. E. Stratmann, 
 O. Yazyev, A. J. Austin, R. Cammi, C. Pomelli, J. W. Ochterski, 
 P. Y. Ayala, K. Morokuma, G. A. Voth, P. Salvador, J. J. Dannenberg, 
 V. G. Zakrzewski, S. Dapprich, A. D. Daniels, M. C. Strain, 
 O. Farkas, D. K. Malick, A. D. Rabuck, K. Raghavachari, 
 J. B. Foresman, J. V. Ortiz, Q. Cui, A. G. Baboul, S. Clifford, 
 J. Cioslowski, B. B. Stefanov, G. Liu, A. Liashenko, P. Piskorz, 
 I. Komaromi, R. L. Martin, D. J. Fox, T. Keith, M. A. Al-Laham, 
 C. Y. Peng, A. Nanayakkara, M. Challacombe, P. M. W. Gill, 
 B. Johnson, W. Chen, M. W. Wong, C. Gonzalez, and J. A. Pople, 
 Gaussian, Inc., Wallingford CT, 2004.
 
 ******************************************
 Gaussian 03:  EM64T-G03RevE.01 11-Sep-2007
                12-Jun-2015 
 ******************************************
 %nproc=2
 Will use up to    2 processors via shared memory.
 Default route:  MP2=Direct MaxDisk=2000MB
 ----------------------------------------------------
 # b3lyp/6-31+G(d,p) int=ultrafine pop=(ReadRadii,MK)
 ----------------------------------------------------

 Warning!  SCF SP cutoffs with diffuse functions may be unreliable.
 Consider SCF=Tight

 1/38=1/1;
 2/17=6,18=5,40=1/2;
 3/5=1,6=6,7=111,11=2,16=1,25=1,30=1,74=-5,75=5/1,2,3;
 4//1;
 5/5=2,32=1,38=5/2;
 6/7=2,8=2,9=2,10=2,15=8,20=101,28=1/1,2;
 99/5=1,9=1/99;
 ----------------------------------
 Ca3PO4_2.mol2_plusQ.z51441.zip.xyz
 ----------------------------------
 Symbolic Z-matrix:
 Charge =  1 Multiplicity = 1
 O                     1.93712  -0.27682  -0.43447 
 O                    -2.43876   0.79025   0.62176 
 O                    -2.01698  -0.57399   1.0647 
 O                    -2.30276   0.78163  -0.86682 
 P                     2.58244   1.29208   0.00189 
 Ca                    4.03658  -1.04095  -0.00377 
 Ca                   -0.13374   0.55453   0.1117 
 Ca                   -3.91111  -0.77107  -0.26342 
 
                          Input orientation:                          
 ---------------------------------------------------------------------
 Center     Atomic     Atomic              Coordinates (Angstroms)
 Number     Number      Type              X           Y           Z
 ---------------------------------------------------------------------
    1          8             0        1.937120   -0.276820   -0.434470
    2          8             0       -2.438760    0.790250    0.621760
    3          8             0       -2.016980   -0.573990    1.064700
    4          8             0       -2.302760    0.781630   -0.866820
    5         15             0        2.582440    1.292080    0.001890
    6         20             0        4.036580   -1.040950   -0.003770
    7         20             0       -0.133740    0.554530    0.111700
    8         20             0       -3.911110   -0.771070   -0.263420
 ---------------------------------------------------------------------
                    Distance matrix (angstroms):
                    1          2          3          4          5
     1  O    0.000000
     2  O    4.626293   0.000000
     3  O    4.239189   1.495074   0.000000
     4  O    4.391335   1.494805   2.377003   0.000000
     5  P    1.751655   5.084144   5.076066   4.988025   0.000000
     6  Ca   2.275331   6.758299   6.164841   6.652359   2.749106
     7  Ca   2.297369   2.372518   2.393399   2.390340   2.816677
     8  Ca   5.871570   2.321439   2.321739   2.315547   6.818590
                    6          7          8
     6  Ca   0.000000
     7  Ca   4.466594   0.000000
     8  Ca   7.956509   4.020753   0.000000
 Stoichiometry    Ca3O4P(1+)
 Framework group  C1[X(Ca3O4P)]
 Deg. of freedom    18
 Full point group                 C1
 Largest Abelian subgroup         C1      NOp   1
 Largest concise Abelian subgroup C1      NOp   1
                         Standard orientation:                         
 ---------------------------------------------------------------------
 Center     Atomic     Atomic              Coordinates (Angstroms)
 Number     Number      Type              X           Y           Z
 ---------------------------------------------------------------------
    1          8             0        1.937119   -0.276819   -0.434469
    2          8             0       -2.438762    0.790249    0.621761
    3          8             0       -2.016981   -0.573991    1.064701
    4          8             0       -2.302762    0.781629   -0.866819
    5         15             0        2.582438    1.292082    0.001891
    6         20             0        4.036579   -1.040948   -0.003769
    7         20             0       -0.133742    0.554530    0.111701
    8         20             0       -3.911111   -0.771072   -0.263419
 ---------------------------------------------------------------------
 Rotational constants (GHZ):      2.5278168      0.2780832      0.2615774
 Standard basis: 6-31+G(d,p) (6D, 7F)
 There are   180 symmetry adapted basis functions of A   symmetry.
 Integral buffers will be    131072 words long.
 Raffenetti 2 integral format.
 Two-electron integral symmetry is turned on.
   180 basis functions,   424 primitive gaussians,   180 cartesian basis functions
    53 alpha electrons       53 beta electrons
       nuclear repulsion energy       764.0562826481 Hartrees.
 NAtoms=    8 NActive=    8 NUniq=    8 SFac= 7.50D-01 NAtFMM=   80 NAOKFM=F Big=F
 One-electron integrals computed using PRISM.
 NBasis=   180 RedAO= T  NBF=   180
 NBsUse=   180 1.00D-06 NBFU=   180
 Harris functional with IExCor=  402 diagonalized for initial guess.
 ExpMin= 7.10D-03 ExpMax= 3.53D+04 ExpMxC= 5.30D+03 IAcc=3 IRadAn=         5 AccDes= 0.00D+00
 HarFok:  IExCor= 402 AccDes= 0.00D+00 IRadAn=         5 IDoV=1
 ScaDFX=  1.000000  1.000000  1.000000  1.000000
 Initial guess orbital symmetries:
       Occupied  (A) (A) (A) (A) (A) (A) (A) (A) (A) (A) (A) (A)
                 (A) (A) (A) (A) (A) (A) (A) (A) (A) (A) (A) (A)
                 (A) (A) (A) (A) (A) (A) (A) (A) (A) (A) (A) (A)
                 (A) (A) (A) (A) (A) (A) (A) (A) (A) (A) (A) (A)
                 (A) (A) (A) (A) (A)
       Virtual   (A) (A) (A) (A) (A) (A) (A) (A) (A) (A) (A) (A)
                 (A) (A) (A) (A) (A) (A) (A) (A) (A) (A) (A) (A)
                 (A) (A) (A) (A) (A) (A) (A) (A) (A) (A) (A) (A)
                 (A) (A) (A) (A) (A) (A) (A) (A) (A) (A) (A) (A)
                 (A) (A) (A) (A) (A) (A) (A) (A) (A) (A) (A) (A)
                 (A) (A) (A) (A) (A) (A) (A) (A) (A) (A) (A) (A)
                 (A) (A) (A) (A) (A) (A) (A) (A) (A) (A) (A) (A)
                 (A) (A) (A) (A) (A) (A) (A) (A) (A) (A) (A) (A)
                 (A) (A) (A) (A) (A) (A) (A) (A) (A) (A) (A) (A)
                 (A) (A) (A) (A) (A) (A) (A) (A) (A) (A) (A) (A)
                 (A) (A) (A) (A) (A) (A) (A)
 The electronic state of the initial guess is 1-A.
 Requested convergence on RMS density matrix=1.00D-04 within 128 cycles.
 Requested convergence on MAX density matrix=1.00D-02.
 Requested convergence on             energy=1.00D-02.
 No special actions if energy rises.
 EnCoef did     4 forward-backward iterations
 EnCoef did   100 forward-backward iterations
 EnCoef did     5 forward-backward iterations
 EnCoef did     2 forward-backward iterations
 EnCoef did     6 forward-backward iterations
 EnCoef did     2 forward-backward iterations
 EnCoef did     2 forward-backward iterations
 SCF Done:  E(RB+HF-LYP) =  -2674.70661277     A.U. after   12 cycles
             Convg  =    0.5287D-04             -V/T =  2.0027
             S**2   =   0.0000

 **********************************************************************

            Population analysis using the SCF density.

 **********************************************************************

 Orbital symmetries:
       Occupied  (A) (A) (A) (A) (A) (A) (A) (A) (A) (A) (A) (A)
                 (A) (A) (A) (A) (A) (A) (A) (A) (A) (A) (A) (A)
                 (A) (A) (A) (A) (A) (A) (A) (A) (A) (A) (A) (A)
                 (A) (A) (A) (A) (A) (A) (A) (A) (A) (A) (A) (A)
                 (A) (A) (A) (A) (A)
       Virtual   (A) (A) (A) (A) (A) (A) (A) (A) (A) (A) (A) (A)
                 (A) (A) (A) (A) (A) (A) (A) (A) (A) (A) (A) (A)
                 (A) (A) (A) (A) (A) (A) (A) (A) (A) (A) (A) (A)
                 (A) (A) (A) (A) (A) (A) (A) (A) (A) (A) (A) (A)
                 (A) (A) (A) (A) (A) (A) (A) (A) (A) (A) (A) (A)
                 (A) (A) (A) (A) (A) (A) (A) (A) (A) (A) (A) (A)
                 (A) (A) (A) (A) (A) (A) (A) (A) (A) (A) (A) (A)
                 (A) (A) (A) (A) (A) (A) (A) (A) (A) (A) (A) (A)
                 (A) (A) (A) (A) (A) (A) (A) (A) (A) (A) (A) (A)
                 (A) (A) (A) (A) (A) (A) (A) (A) (A) (A) (A) (A)
                 (A) (A) (A) (A) (A) (A) (A)
 The electronic state is 1-A.
 Alpha  occ. eigenvalues -- -145.54806-145.52409-145.47420 -77.16709 -19.38032
 Alpha  occ. eigenvalues --  -19.28598 -19.28300 -19.22283 -15.61660 -15.59349
 Alpha  occ. eigenvalues --  -15.54295 -12.74889 -12.74833 -12.74781 -12.72567
 Alpha  occ. eigenvalues --  -12.72518 -12.72447 -12.67534 -12.67507 -12.67379
 Alpha  occ. eigenvalues --   -6.63297  -4.79762  -4.79460  -4.78904  -1.98627
 Alpha  occ. eigenvalues --   -1.96369  -1.91544  -1.28344  -1.26172  -1.25891
 Alpha  occ. eigenvalues --   -1.23947  -1.23648  -1.23605  -1.22683  -1.19286
 Alpha  occ. eigenvalues --   -1.19164  -1.17452  -1.04012  -1.01486  -0.89083
 Alpha  occ. eigenvalues --   -0.61535  -0.58169  -0.57257  -0.56364  -0.45164
 Alpha  occ. eigenvalues --   -0.44348  -0.42749  -0.42229  -0.42006  -0.39199
 Alpha  occ. eigenvalues --   -0.37401  -0.28430  -0.24123
 Alpha virt. eigenvalues --   -0.22674  -0.20939  -0.14887  -0.13424  -0.13253
 Alpha virt. eigenvalues --   -0.12737  -0.12460  -0.12145  -0.10153  -0.09534
 Alpha virt. eigenvalues --   -0.09063  -0.07796  -0.07453  -0.06667  -0.06550
 Alpha virt. eigenvalues --   -0.05489  -0.05001  -0.04787  -0.04434  -0.04284
 Alpha virt. eigenvalues --   -0.04196  -0.03665  -0.03511  -0.03289  -0.03135
 Alpha virt. eigenvalues --   -0.02937  -0.01074  -0.00083   0.00516   0.00917
 Alpha virt. eigenvalues --    0.01315   0.02082   0.02543   0.02908   0.03664
 Alpha virt. eigenvalues --    0.03905   0.04248   0.04618   0.04899   0.05290
 Alpha virt. eigenvalues --    0.05417   0.05667   0.06529   0.07009   0.07133
 Alpha virt. eigenvalues --    0.07368   0.08286   0.08606   0.09260   0.09974
 Alpha virt. eigenvalues --    0.10354   0.11720   0.13943   0.14141   0.15062
 Alpha virt. eigenvalues --    0.15899   0.16587   0.16708   0.18504   0.20483
 Alpha virt. eigenvalues --    0.21260   0.22207   0.24334   0.24771   0.26306
 Alpha virt. eigenvalues --    0.28635   0.30296   0.32408   0.33354   0.37375
 Alpha virt. eigenvalues --    0.37831   0.39726   0.39967   0.43032   0.43831
 Alpha virt. eigenvalues --    0.45612   0.49399   0.53006   0.59541   0.62831
 Alpha virt. eigenvalues --    0.63470   0.74258   0.76176   0.79126   0.88161
 Alpha virt. eigenvalues --    0.94730   1.01768   1.05080   1.09082   1.09333
 Alpha virt. eigenvalues --    1.10424   1.12378   1.15296   1.19216   1.19958
 Alpha virt. eigenvalues --    1.20039   1.29599   1.33142   1.36968   1.41721
 Alpha virt. eigenvalues --    1.48546   1.52324   1.52955   1.61971   1.68192
 Alpha virt. eigenvalues --    1.73987   1.76164   1.77603   1.79375   1.80639
 Alpha virt. eigenvalues --    1.83095   1.84584   1.85550   1.89074   1.93504
 Alpha virt. eigenvalues --    1.97608   2.20591   2.22412   2.32187   2.42101
 Alpha virt. eigenvalues --    3.04104   3.05425   3.43142   3.94296   3.97789
 Alpha virt. eigenvalues --    4.06476   4.22698
          Condensed to atoms (all electrons):
              1          2          3          4          5          6
     1  O    9.045382  -0.006343   0.006998   0.003216  -0.408991  -0.026768
     2  O   -0.006343   7.951457   0.023655   0.021329  -0.002300  -0.002253
     3  O    0.006998   0.023655   8.444737   0.001423   0.000236   0.002675
     4  O    0.003216   0.021329   0.001423   8.432929   0.003003   0.001018
     5  P   -0.408991  -0.002300   0.000236   0.003003  15.493306   0.294912
     6  Ca  -0.026768  -0.002253   0.002675   0.001018   0.294912  18.714522
     7  Ca   0.069065   0.031391   0.066253   0.076719   0.146693   0.000087
     8  Ca   0.011908   0.010046   0.079379   0.081776  -0.018451  -0.014828
              7          8
     1  O    0.069065   0.011908
     2  O    0.031391   0.010046
     3  O    0.066253   0.079379
     4  O    0.076719   0.081776
     5  P    0.146693  -0.018451
     6  Ca   0.000087  -0.014828
     7  Ca  18.339783   0.001982
     8  Ca   0.001982  18.670224
 Mulliken atomic charges:
              1
     1  O   -0.694466
     2  O   -0.026982
     3  O   -0.625356
     4  O   -0.621414
     5  P   -0.508408
     6  Ca   1.030634
     7  Ca   1.268027
     8  Ca   1.177965
 Sum of Mulliken charges=   1.00000
 Atomic charges with hydrogens summed into heavy atoms:
              1
     1  O   -0.694466
     2  O   -0.026982
     3  O   -0.625356
     4  O   -0.621414
     5  P   -0.508408
     6  Ca   1.030634
     7  Ca   1.268027
     8  Ca   1.177965
 Sum of Mulliken charges=   1.00000
 Electronic spatial extent (au):  <R**2>=  3620.5379
 Charge=     1.0000 electrons
 Dipole moment (field-independent basis, Debye):
    X=    -1.0235    Y=    -7.5988    Z=    -1.3935  Tot=     7.7931
 Quadrupole moment (field-independent basis, Debye-Ang):
   XX=    16.2224   YY=   -75.9681   ZZ=   -83.7342
   XY=    -8.3585   XZ=     3.4760   YZ=     3.4679
 Traceless Quadrupole moment (field-independent basis, Debye-Ang):
   XX=    64.0490   YY=   -28.1415   ZZ=   -35.9076
   XY=    -8.3585   XZ=     3.4760   YZ=     3.4679
 Octapole moment (field-independent basis, Debye-Ang**2):
  XXX=   -49.0221  YYY=   -18.9559  ZZZ=    -7.6360  XYY=    -7.0933
  XXY=  -144.9730  XXZ=   -27.4460  XZZ=    -7.7910  YZZ=    -3.5958
  YYZ=     0.6369  XYZ=    -7.7302
 Hexadecapole moment (field-independent basis, Debye-Ang**3):
 XXXX= -2192.1896 YYYY=  -524.4341 ZZZZ=  -238.4202 XXXY=  -197.0834
 XXXZ=   -32.5977 YYYX=   -49.8534 YYYZ=     5.6361 ZZZX=   -20.0064
 ZZZY=     3.0003 XXYY=  -719.4468 XXZZ=  -750.8208 YYZZ=  -129.4964
 XXYZ=    33.5396 YYXZ=    -4.3911 ZZXY=   -15.6316
 N-N= 7.640562826481D+02 E-N=-7.849818520353D+03  KE= 2.667581594921D+03
 Merz-Kollman atomic radii used.
 Read replacement radii for each type of atom:
 Rad(20) =   1.188000000000D+00
 Atom Element Radius
    1     8    1.40
    2     8    1.40
    3     8    1.40
    4     8    1.40
    5    15    1.80
    6    20    1.19
    7    20    1.19
    8    20    1.19

 **********************************************************************

            Electrostatic Properties Using The SCF Density

 **********************************************************************

       Atomic Center    1 is at   1.937119 -0.276819 -0.434469
       Atomic Center    2 is at  -2.438762  0.790249  0.621761
       Atomic Center    3 is at  -2.016981 -0.573991  1.064701
       Atomic Center    4 is at  -2.302762  0.781629 -0.866819
       Atomic Center    5 is at   2.582438  1.292082  0.001891
       Atomic Center    6 is at   4.036579 -1.040948 -0.003769
       Atomic Center    7 is at  -0.133742  0.554530  0.111701
       Atomic Center    8 is at  -3.911111 -0.771072 -0.263419
     870 points will be used for fitting atomic charges
 Fitting point charges to eletrostatic potential
 Charges from ESP fit, RMS=   0.01549 RRMS=   0.10673:
 Charge=   1.00000 Dipole=    -1.1837    -9.9048    -0.9991 Tot=    10.0252
              1
     1  O   -0.651153
     2  O   -0.141070
     3  O   -0.754321
     4  O   -0.637145
     5  P   -0.667067
     6  Ca   1.082457
     7  Ca   1.552037
     8  Ca   1.216264
 -----------------------------------------------------------------

              Electrostatic Properties (Atomic Units)

 -----------------------------------------------------------------
    Center     Electric         -------- Electric Field --------
               Potential          X             Y             Z
 -----------------------------------------------------------------
    1 Atom    -22.223288
    2 Atom    -22.100078
    3 Atom    -22.194637
    4 Atom    -22.189045
    5 Atom    -54.029584
    6 Atom    -80.011267
    7 Atom    -80.062642
    8 Atom    -80.006380
 -----------------------------------------------------------------
 1\1\GINC-N021\SP\RB3LYP\6-31+G(d,p)\Ca3O4P1(1+)\TIMN\12-Jun-2015\0\\# 
 b3lyp/6-31+G(d,p) int=ultrafine pop=(ReadRadii,MK)\\Ca3PO4_2.mol2_plus
 Q.z51441.zip.xyz\\1,1\O,0,1.93712,-0.27682,-0.43447\O,0,-2.43876,0.790
 25,0.62176\O,0,-2.01698,-0.57399,1.0647\O,0,-2.30276,0.78163,-0.86682\
 P,0,2.58244,1.29208,0.00189\Ca,0,4.03658,-1.04095,-0.00377\Ca,0,-0.133
 74,0.55453,0.1117\Ca,0,-3.91111,-0.77107,-0.26342\\Version=EM64T-G03Re
 vE.01\State=1-A\HF=-2674.7066128\RMSD=5.287e-05\Thermal=0.\Dipole=-0.4
 026918,-2.9896158,-0.5482434\PG=C01 [X(Ca3O4P1)]\\@


 EDUCATION DOESN'T COST 
           ... IT PAYS!

 -- POSTMARK, UNIV. OF MISSISSIPPI, DEC 78
 Job cpu time:  0 days  0 hours  1 minutes 58.0 seconds.
 File lengths (MBytes):  RWF=     32 Int=      0 D2E=      0 Chk=     11 Scr=      1
 Normal termination of Gaussian 03 at Fri Jun 12 17:43:05 2015.
