 Entering Gaussian System, Link 0=/home/timn/tmp/g03.e01/g03
 Input=Ca3PO4_44.mol2cc_plusQ.z51457.zip.xyz.gjf
 Output=Ca3PO4_44.mol2cc_plusQ.z51457.zip.xyz.out
 Initial command:
 /home/timn/tmp/g03.e01/l1.exe /home/timn/tmp/g03.e01/Gau-13758.inp -scrdir=/home/timn/tmp/g03.e01/
 Default is to use a total of   2 processors:
                                2 via shared-memory
                                1 via Linda
 Entering Link 1 = /home/timn/tmp/g03.e01/l1.exe PID=     13759.
  
 Copyright (c) 1988,1990,1992,1993,1995,1998,2003,2004,2007, Gaussian, Inc.
                  All Rights Reserved.
  
 This is the Gaussian(R) 03 program.  It is based on the
 the Gaussian(R) 98 system (copyright 1998, Gaussian, Inc.),
 the Gaussian(R) 94 system (copyright 1995, Gaussian, Inc.),
 the Gaussian 92(TM) system (copyright 1992, Gaussian, Inc.),
 the Gaussian 90(TM) system (copyright 1990, Gaussian, Inc.),
 the Gaussian 88(TM) system (copyright 1988, Gaussian, Inc.),
 the Gaussian 86(TM) system (copyright 1986, Carnegie Mellon
 University), and the Gaussian 82(TM) system (copyright 1983,
 Carnegie Mellon University). Gaussian is a federally registered
 trademark of Gaussian, Inc.
  
 This software contains proprietary and confidential information,
 including trade secrets, belonging to Gaussian, Inc.
  
 This software is provided under written license and may be
 used, copied, transmitted, or stored only in accord with that
 written license.
  
 The following legend is applicable only to US Government
 contracts under FAR:
  
                    RESTRICTED RIGHTS LEGEND
  
 Use, reproduction and disclosure by the US Government is
 subject to restrictions as set forth in subparagraphs (a)
 and (c) of the Commercial Computer Software - Restricted
 Rights clause in FAR 52.227-19.
  
 Gaussian, Inc.
 340 Quinnipiac St., Bldg. 40, Wallingford CT 06492
  
  
 ---------------------------------------------------------------
 Warning -- This program may not be used in any manner that
 competes with the business of Gaussian, Inc. or will provide
 assistance to any competitor of Gaussian, Inc.  The licensee
 of this program is prohibited from giving any competitor of
 Gaussian, Inc. access to this program.  By using this program,
 the user acknowledges that Gaussian, Inc. is engaged in the
 business of creating and licensing software in the field of
 computational chemistry and represents and warrants to the
 licensee that it is not a competitor of Gaussian, Inc. and that
 it will not use this program in any manner prohibited above.
 ---------------------------------------------------------------
  

 Cite this work as:
 Gaussian 03, Revision E.01,
 M. J. Frisch, G. W. Trucks, H. B. Schlegel, G. E. Scuseria, 
 M. A. Robb, J. R. Cheeseman, J. A. Montgomery, Jr., T. Vreven, 
 K. N. Kudin, J. C. Burant, J. M. Millam, S. S. Iyengar, J. Tomasi, 
 V. Barone, B. Mennucci, M. Cossi, G. Scalmani, N. Rega, 
 G. A. Petersson, H. Nakatsuji, M. Hada, M. Ehara, K. Toyota, 
 R. Fukuda, J. Hasegawa, M. Ishida, T. Nakajima, Y. Honda, O. Kitao, 
 H. Nakai, M. Klene, X. Li, J. E. Knox, H. P. Hratchian, J. B. Cross, 
 V. Bakken, C. Adamo, J. Jaramillo, R. Gomperts, R. E. Stratmann, 
 O. Yazyev, A. J. Austin, R. Cammi, C. Pomelli, J. W. Ochterski, 
 P. Y. Ayala, K. Morokuma, G. A. Voth, P. Salvador, J. J. Dannenberg, 
 V. G. Zakrzewski, S. Dapprich, A. D. Daniels, M. C. Strain, 
 O. Farkas, D. K. Malick, A. D. Rabuck, K. Raghavachari, 
 J. B. Foresman, J. V. Ortiz, Q. Cui, A. G. Baboul, S. Clifford, 
 J. Cioslowski, B. B. Stefanov, G. Liu, A. Liashenko, P. Piskorz, 
 I. Komaromi, R. L. Martin, D. J. Fox, T. Keith, M. A. Al-Laham, 
 C. Y. Peng, A. Nanayakkara, M. Challacombe, P. M. W. Gill, 
 B. Johnson, W. Chen, M. W. Wong, C. Gonzalez, and J. A. Pople, 
 Gaussian, Inc., Wallingford CT, 2004.
 
 ******************************************
 Gaussian 03:  EM64T-G03RevE.01 11-Sep-2007
                12-Jun-2015 
 ******************************************
 %nproc=2
 Will use up to    2 processors via shared memory.
 Default route:  MP2=Direct MaxDisk=2000MB
 ----------------------------------------------------
 # b3lyp/6-31+G(d,p) int=ultrafine pop=(ReadRadii,MK)
 ----------------------------------------------------

 Warning!  SCF SP cutoffs with diffuse functions may be unreliable.
 Consider SCF=Tight

 1/38=1/1;
 2/17=6,18=5,40=1/2;
 3/5=1,6=6,7=111,11=2,16=1,25=1,30=1,74=-5,75=5/1,2,3;
 4//1;
 5/5=2,32=1,38=5/2;
 6/7=2,8=2,9=2,10=2,15=8,20=101,28=1/1,2;
 99/5=1,9=1/99;
 -------------------------------------
 Ca3PO4_44.mol2cc_plusQ.z51457.zip.xyz
 -------------------------------------
 Symbolic Z-matrix:
 Charge =  1 Multiplicity = 1
 O                     1.74075  -1.7079   -0.00008 
 O                    -2.04555  -0.88933  -0.78515 
 O                     2.25636   0.78034   0.00001 
 O                    -2.04623  -0.88929   0.7853 
 P                     2.85665  -0.63838  -0.00053 
 Ca                   -0.46214  -2.23985   0.00041 
 Ca                   -2.5277    1.17286  -0.00051 
 Ca                    0.88523   2.62825   0.00047 
 
                          Input orientation:                          
 ---------------------------------------------------------------------
 Center     Atomic     Atomic              Coordinates (Angstroms)
 Number     Number      Type              X           Y           Z
 ---------------------------------------------------------------------
    1          8             0        1.740750   -1.707900   -0.000080
    2          8             0       -2.045550   -0.889330   -0.785150
    3          8             0        2.256360    0.780340    0.000010
    4          8             0       -2.046230   -0.889290    0.785300
    5         15             0        2.856650   -0.638380   -0.000530
    6         20             0       -0.462140   -2.239850    0.000410
    7         20             0       -2.527700    1.172860   -0.000510
    8         20             0        0.885230    2.628250    0.000470
 ---------------------------------------------------------------------
                    Distance matrix (angstroms):
                    1          2          3          4          5
     1  O    0.000000
     2  O    3.952526   0.000000
     3  O    2.541101   4.680887   0.000000
     4  O    3.953247   1.570450   4.681520   0.000000
     5  P    1.545673   4.970932   1.540492   4.971792   0.000000
     6  Ca   2.266207   2.224454   4.063470   2.224726   3.684980
     7  Ca   5.149606   2.258485   4.800136   2.258711   5.680829
     8  Ca   4.419741   4.645432   2.301037   4.645697   3.815412
                    6          7          8
     6  Ca   0.000000
     7  Ca   3.989126   0.000000
     8  Ca   5.051119   3.710290   0.000000
 Stoichiometry    Ca3O4P(1+)
 Framework group  C1[X(Ca3O4P)]
 Deg. of freedom    18
 Full point group                 C1
 Largest Abelian subgroup         C1      NOp   1
 Largest concise Abelian subgroup C1      NOp   1
                         Standard orientation:                         
 ---------------------------------------------------------------------
 Center     Atomic     Atomic              Coordinates (Angstroms)
 Number     Number      Type              X           Y           Z
 ---------------------------------------------------------------------
    1          8             0        1.740750   -1.707899   -0.000081
    2          8             0       -2.045551   -0.889333   -0.785151
    3          8             0        2.256357    0.780342    0.000009
    4          8             0       -2.046231   -0.889293    0.785299
    5         15             0        2.856649   -0.638378   -0.000531
    6         20             0       -0.462139   -2.239851    0.000409
    7         20             0       -2.527703    1.172857   -0.000511
    8         20             0        0.885226    2.628250    0.000469
 ---------------------------------------------------------------------
 Rotational constants (GHZ):      0.7828843      0.6078320      0.3515603
 Standard basis: 6-31+G(d,p) (6D, 7F)
 There are   180 symmetry adapted basis functions of A   symmetry.
 Integral buffers will be    131072 words long.
 Raffenetti 2 integral format.
 Two-electron integral symmetry is turned on.
   180 basis functions,   424 primitive gaussians,   180 cartesian basis functions
    53 alpha electrons       53 beta electrons
       nuclear repulsion energy       774.7787626472 Hartrees.
 NAtoms=    8 NActive=    8 NUniq=    8 SFac= 7.50D-01 NAtFMM=   80 NAOKFM=F Big=F
 One-electron integrals computed using PRISM.
 NBasis=   180 RedAO= T  NBF=   180
 NBsUse=   180 1.00D-06 NBFU=   180
 Harris functional with IExCor=  402 diagonalized for initial guess.
 ExpMin= 7.10D-03 ExpMax= 3.53D+04 ExpMxC= 5.30D+03 IAcc=3 IRadAn=         5 AccDes= 0.00D+00
 HarFok:  IExCor= 402 AccDes= 0.00D+00 IRadAn=         5 IDoV=1
 ScaDFX=  1.000000  1.000000  1.000000  1.000000
 Initial guess orbital symmetries:
       Occupied  (A) (A) (A) (A) (A) (A) (A) (A) (A) (A) (A) (A)
                 (A) (A) (A) (A) (A) (A) (A) (A) (A) (A) (A) (A)
                 (A) (A) (A) (A) (A) (A) (A) (A) (A) (A) (A) (A)
                 (A) (A) (A) (A) (A) (A) (A) (A) (A) (A) (A) (A)
                 (A) (A) (A) (A) (A)
       Virtual   (A) (A) (A) (A) (A) (A) (A) (A) (A) (A) (A) (A)
                 (A) (A) (A) (A) (A) (A) (A) (A) (A) (A) (A) (A)
                 (A) (A) (A) (A) (A) (A) (A) (A) (A) (A) (A) (A)
                 (A) (A) (A) (A) (A) (A) (A) (A) (A) (A) (A) (A)
                 (A) (A) (A) (A) (A) (A) (A) (A) (A) (A) (A) (A)
                 (A) (A) (A) (A) (A) (A) (A) (A) (A) (A) (A) (A)
                 (A) (A) (A) (A) (A) (A) (A) (A) (A) (A) (A) (A)
                 (A) (A) (A) (A) (A) (A) (A) (A) (A) (A) (A) (A)
                 (A) (A) (A) (A) (A) (A) (A) (A) (A) (A) (A) (A)
                 (A) (A) (A) (A) (A) (A) (A) (A) (A) (A) (A) (A)
                 (A) (A) (A) (A) (A) (A) (A)
 The electronic state of the initial guess is 1-A.
 Requested convergence on RMS density matrix=1.00D-04 within 128 cycles.
 Requested convergence on MAX density matrix=1.00D-02.
 Requested convergence on             energy=1.00D-02.
 No special actions if energy rises.
 EnCoef did     4 forward-backward iterations
 EnCoef did   100 forward-backward iterations
 SCF Done:  E(RB+HF-LYP) =  -2674.90063733     A.U. after   10 cycles
             Convg  =    0.2230D-04             -V/T =  2.0027
             S**2   =   0.0000

 **********************************************************************

            Population analysis using the SCF density.

 **********************************************************************

 Orbital symmetries:
       Occupied  (A) (A) (A) (A) (A) (A) (A) (A) (A) (A) (A) (A)
                 (A) (A) (A) (A) (A) (A) (A) (A) (A) (A) (A) (A)
                 (A) (A) (A) (A) (A) (A) (A) (A) (A) (A) (A) (A)
                 (A) (A) (A) (A) (A) (A) (A) (A) (A) (A) (A) (A)
                 (A) (A) (A) (A) (A)
       Virtual   (A) (A) (A) (A) (A) (A) (A) (A) (A) (A) (A) (A)
                 (A) (A) (A) (A) (A) (A) (A) (A) (A) (A) (A) (A)
                 (A) (A) (A) (A) (A) (A) (A) (A) (A) (A) (A) (A)
                 (A) (A) (A) (A) (A) (A) (A) (A) (A) (A) (A) (A)
                 (A) (A) (A) (A) (A) (A) (A) (A) (A) (A) (A) (A)
                 (A) (A) (A) (A) (A) (A) (A) (A) (A) (A) (A) (A)
                 (A) (A) (A) (A) (A) (A) (A) (A) (A) (A) (A) (A)
                 (A) (A) (A) (A) (A) (A) (A) (A) (A) (A) (A) (A)
                 (A) (A) (A) (A) (A) (A) (A) (A) (A) (A) (A) (A)
                 (A) (A) (A) (A) (A) (A) (A) (A) (A) (A) (A) (A)
                 (A) (A) (A) (A) (A) (A) (A)
 The electronic state is 1-A.
 Alpha  occ. eigenvalues -- -145.51409-145.50956-145.49494 -77.29439 -19.27283
 Alpha  occ. eigenvalues --  -19.27147 -19.23963 -19.23929 -15.58398 -15.57830
 Alpha  occ. eigenvalues --  -15.56468 -12.71593 -12.71578 -12.71467 -12.71063
 Alpha  occ. eigenvalues --  -12.71048 -12.70902 -12.69686 -12.69654 -12.69540
 Alpha  occ. eigenvalues --   -6.74926  -4.91371  -4.91151  -4.90703  -1.95528
 Alpha  occ. eigenvalues --   -1.95024  -1.93678  -1.23156  -1.23030  -1.22963
 Alpha  occ. eigenvalues --   -1.22711  -1.22659  -1.22630  -1.21319  -1.21154
 Alpha  occ. eigenvalues --   -1.20985  -1.13244  -1.07948  -1.06512  -0.87737
 Alpha  occ. eigenvalues --   -0.67205  -0.56772  -0.52052  -0.51927  -0.47329
 Alpha  occ. eigenvalues --   -0.46451  -0.45148  -0.44571  -0.43334  -0.39978
 Alpha  occ. eigenvalues --   -0.35755  -0.32201  -0.27374
 Alpha virt. eigenvalues --   -0.19208  -0.18705  -0.17852  -0.14891  -0.13674
 Alpha virt. eigenvalues --   -0.12170  -0.11966  -0.10034  -0.09275  -0.08010
 Alpha virt. eigenvalues --   -0.07803  -0.07423  -0.06922  -0.06781  -0.05864
 Alpha virt. eigenvalues --   -0.05478  -0.05326  -0.05247  -0.04992  -0.04599
 Alpha virt. eigenvalues --   -0.04386  -0.04266  -0.04160  -0.03408  -0.03141
 Alpha virt. eigenvalues --   -0.03061  -0.02811  -0.02743  -0.01628  -0.00943
 Alpha virt. eigenvalues --    0.00160   0.02192   0.02561   0.03335   0.03775
 Alpha virt. eigenvalues --    0.03915   0.04414   0.04615   0.05273   0.06093
 Alpha virt. eigenvalues --    0.06138   0.06747   0.06962   0.07386   0.08106
 Alpha virt. eigenvalues --    0.08723   0.08856   0.09101   0.10250   0.11062
 Alpha virt. eigenvalues --    0.11151   0.12147   0.12560   0.13639   0.15133
 Alpha virt. eigenvalues --    0.16261   0.16310   0.18005   0.18485   0.19608
 Alpha virt. eigenvalues --    0.20857   0.21482   0.23756   0.24022   0.27052
 Alpha virt. eigenvalues --    0.28240   0.30319   0.32820   0.33154   0.34699
 Alpha virt. eigenvalues --    0.36700   0.36912   0.38554   0.38584   0.41693
 Alpha virt. eigenvalues --    0.48112   0.48861   0.55880   0.57793   0.59250
 Alpha virt. eigenvalues --    0.65108   0.74599   0.78648   0.84205   0.91763
 Alpha virt. eigenvalues --    0.99812   1.06145   1.07956   1.08644   1.09916
 Alpha virt. eigenvalues --    1.11079   1.12316   1.15631   1.17471   1.22328
 Alpha virt. eigenvalues --    1.25155   1.25634   1.27070   1.39468   1.40585
 Alpha virt. eigenvalues --    1.48782   1.50597   1.55937   1.57381   1.65944
 Alpha virt. eigenvalues --    1.66410   1.68428   1.71593   1.73335   1.75853
 Alpha virt. eigenvalues --    1.83384   1.85132   1.86980   1.88049   1.88246
 Alpha virt. eigenvalues --    1.91171   2.09161   2.18310   2.18753   2.54161
 Alpha virt. eigenvalues --    2.68931   3.01913   3.40392   3.81625   3.89725
 Alpha virt. eigenvalues --    3.94790   4.05886
          Condensed to atoms (all electrons):
              1          2          3          4          5          6
     1  O    8.868608  -0.000085  -0.069264  -0.000095  -0.159030   0.073976
     2  O   -0.000085   8.565218   0.001755  -0.073827  -0.000319   0.107302
     3  O   -0.069264   0.001755   8.936277   0.001749  -0.169781  -0.002879
     4  O   -0.000095  -0.073827   0.001749   8.566004  -0.000346   0.107309
     5  P   -0.159030  -0.000319  -0.169781  -0.000346  14.753756  -0.060402
     6  Ca   0.073976   0.107302  -0.002879   0.107309  -0.060402  18.261191
     7  Ca  -0.008925   0.059855  -0.026272   0.059782   0.049439   0.006843
     8  Ca   0.006834  -0.018502  -0.044432  -0.018454  -0.091242   0.061050
              7          8
     1  O   -0.008925   0.006834
     2  O    0.059855  -0.018502
     3  O   -0.026272  -0.044432
     4  O    0.059782  -0.018454
     5  P    0.049439  -0.091242
     6  Ca   0.006843   0.061050
     7  Ca  18.649199   0.297051
     8  Ca   0.297051  19.221564
 Mulliken atomic charges:
              1
     1  O   -0.712018
     2  O   -0.641397
     3  O   -0.627153
     4  O   -0.642123
     5  P    0.677924
     6  Ca   1.445610
     7  Ca   0.913027
     8  Ca   0.586131
 Sum of Mulliken charges=   1.00000
 Atomic charges with hydrogens summed into heavy atoms:
              1
     1  O   -0.712018
     2  O   -0.641397
     3  O   -0.627153
     4  O   -0.642123
     5  P    0.677924
     6  Ca   1.445610
     7  Ca   0.913027
     8  Ca   0.586131
 Sum of Mulliken charges=   1.00000
 Electronic spatial extent (au):  <R**2>=  2720.4710
 Charge=     1.0000 electrons
 Dipole moment (field-independent basis, Debye):
    X=    -1.8212    Y=     0.6458    Z=    -0.0020  Tot=     1.9323
 Quadrupole moment (field-independent basis, Debye-Ang):
   XX=   -62.3509   YY=   -34.6008   ZZ=   -80.2295
   XY=    -0.0411   XZ=     0.0165   YZ=    -0.0033
 Traceless Quadrupole moment (field-independent basis, Debye-Ang):
   XX=    -3.2905   YY=    24.4596   ZZ=   -21.1691
   XY=    -0.0411   XZ=     0.0165   YZ=    -0.0033
 Octapole moment (field-independent basis, Debye-Ang**2):
  XXX=   -68.8719  YYY=   -89.6935  ZZZ=    -0.0021  XYY=     7.3762
  XXY=    55.9440  XXZ=    -0.0381  XZZ=     7.9131  YZZ=   -16.9662
  YYZ=     0.0281  XYZ=     0.0134
 Hexadecapole moment (field-independent basis, Debye-Ang**3):
 XXXX= -1660.3037 YYYY= -1196.0180 ZZZZ=  -176.7369 XXXY=  -145.6689
 XXXZ=     0.1413 YYYX=   224.2794 YYYZ=    -0.0291 ZZZX=     0.0231
 ZZZY=    -0.0222 XXYY=  -531.8108 XXZZ=  -344.5479 YYZZ=  -282.9914
 XXYZ=    -0.0172 YYXZ=     0.0308 ZZXY=     3.2784
 N-N= 7.747787626472D+02 E-N=-7.871349353073D+03  KE= 2.667647482124D+03
 Merz-Kollman atomic radii used.
 Read replacement radii for each type of atom:
 Rad(20) =   1.188000000000D+00
 Atom Element Radius
    1     8    1.40
    2     8    1.40
    3     8    1.40
    4     8    1.40
    5    15    1.80
    6    20    1.19
    7    20    1.19
    8    20    1.19

 **********************************************************************

            Electrostatic Properties Using The SCF Density

 **********************************************************************

       Atomic Center    1 is at   1.740750 -1.707899 -0.000081
       Atomic Center    2 is at  -2.045551 -0.889333 -0.785151
       Atomic Center    3 is at   2.256357  0.780342  0.000009
       Atomic Center    4 is at  -2.046231 -0.889293  0.785299
       Atomic Center    5 is at   2.856649 -0.638378 -0.000531
       Atomic Center    6 is at  -0.462139 -2.239851  0.000409
       Atomic Center    7 is at  -2.527703  1.172857 -0.000511
       Atomic Center    8 is at   0.885226  2.628250  0.000469
     865 points will be used for fitting atomic charges
 Fitting point charges to eletrostatic potential
 Charges from ESP fit, RMS=   0.02651 RRMS=   0.17712:
 Charge=   1.00000 Dipole=    -2.3140     3.1297    -0.0021 Tot=     3.8922
              1
     1  O   -0.708380
     2  O   -0.661570
     3  O   -0.254640
     4  O   -0.662377
     5  P    0.372376
     6  Ca   1.587504
     7  Ca   0.846082
     8  Ca   0.481004
 -----------------------------------------------------------------

              Electrostatic Properties (Atomic Units)

 -----------------------------------------------------------------
    Center     Electric         -------- Electric Field --------
               Potential          X             Y             Z
 -----------------------------------------------------------------
    1 Atom    -22.189629
    2 Atom    -22.232030
    3 Atom    -22.193304
    4 Atom    -22.233010
    5 Atom    -53.922392
    6 Atom    -80.031365
    7 Atom    -80.047783
    8 Atom    -80.029458
 -----------------------------------------------------------------
 1\1\GINC-N029\SP\RB3LYP\6-31+G(d,p)\Ca3O4P1(1+)\TIMN\12-Jun-2015\0\\# 
 b3lyp/6-31+G(d,p) int=ultrafine pop=(ReadRadii,MK)\\Ca3PO4_44.mol2cc_p
 lusQ.z51457.zip.xyz\\1,1\O,0,1.74075,-1.7079,-0.00008\O,0,-2.04555,-0.
 88933,-0.78515\O,0,2.25636,0.78034,0.00001\O,0,-2.04623,-0.88929,0.785
 3\P,0,2.85665,-0.63838,-0.00053\Ca,0,-0.46214,-2.23985,0.00041\Ca,0,-2
 .5277,1.17286,-0.00051\Ca,0,0.88523,2.62825,0.00047\\Version=EM64T-G03
 RevE.01\State=1-A\HF=-2674.9006373\RMSD=2.230e-05\Thermal=0.\Dipole=-0
 .7165051,0.2540667,-0.0008025\PG=C01 [X(Ca3O4P1)]\\@


 A successful marriage requires falling in love
 many times, always with the same person.
                           -- Mignon McLaughlin
 Job cpu time:  0 days  0 hours  1 minutes 44.8 seconds.
 File lengths (MBytes):  RWF=     32 Int=      0 D2E=      0 Chk=     11 Scr=      1
 Normal termination of Gaussian 03 at Fri Jun 12 17:43:38 2015.
