 Entering Gaussian System, Link 0=/home/timn/tmp/g03.e01/g03
 Input=Ca3PO4_173.mol2c_plusQ.z51180.zip.xyz.gjf
 Output=Ca3PO4_173.mol2c_plusQ.z51180.zip.xyz.out
 Initial command:
 /home/timn/tmp/g03.e01/l1.exe /home/timn/tmp/g03.e01/Gau-13666.inp -scrdir=/home/timn/tmp/g03.e01/
 Default is to use a total of   2 processors:
                                2 via shared-memory
                                1 via Linda
 Entering Link 1 = /home/timn/tmp/g03.e01/l1.exe PID=     13667.
  
 Copyright (c) 1988,1990,1992,1993,1995,1998,2003,2004,2007, Gaussian, Inc.
                  All Rights Reserved.
  
 This is the Gaussian(R) 03 program.  It is based on the
 the Gaussian(R) 98 system (copyright 1998, Gaussian, Inc.),
 the Gaussian(R) 94 system (copyright 1995, Gaussian, Inc.),
 the Gaussian 92(TM) system (copyright 1992, Gaussian, Inc.),
 the Gaussian 90(TM) system (copyright 1990, Gaussian, Inc.),
 the Gaussian 88(TM) system (copyright 1988, Gaussian, Inc.),
 the Gaussian 86(TM) system (copyright 1986, Carnegie Mellon
 University), and the Gaussian 82(TM) system (copyright 1983,
 Carnegie Mellon University). Gaussian is a federally registered
 trademark of Gaussian, Inc.
  
 This software contains proprietary and confidential information,
 including trade secrets, belonging to Gaussian, Inc.
  
 This software is provided under written license and may be
 used, copied, transmitted, or stored only in accord with that
 written license.
  
 The following legend is applicable only to US Government
 contracts under FAR:
  
                    RESTRICTED RIGHTS LEGEND
  
 Use, reproduction and disclosure by the US Government is
 subject to restrictions as set forth in subparagraphs (a)
 and (c) of the Commercial Computer Software - Restricted
 Rights clause in FAR 52.227-19.
  
 Gaussian, Inc.
 340 Quinnipiac St., Bldg. 40, Wallingford CT 06492
  
  
 ---------------------------------------------------------------
 Warning -- This program may not be used in any manner that
 competes with the business of Gaussian, Inc. or will provide
 assistance to any competitor of Gaussian, Inc.  The licensee
 of this program is prohibited from giving any competitor of
 Gaussian, Inc. access to this program.  By using this program,
 the user acknowledges that Gaussian, Inc. is engaged in the
 business of creating and licensing software in the field of
 computational chemistry and represents and warrants to the
 licensee that it is not a competitor of Gaussian, Inc. and that
 it will not use this program in any manner prohibited above.
 ---------------------------------------------------------------
  

 Cite this work as:
 Gaussian 03, Revision E.01,
 M. J. Frisch, G. W. Trucks, H. B. Schlegel, G. E. Scuseria, 
 M. A. Robb, J. R. Cheeseman, J. A. Montgomery, Jr., T. Vreven, 
 K. N. Kudin, J. C. Burant, J. M. Millam, S. S. Iyengar, J. Tomasi, 
 V. Barone, B. Mennucci, M. Cossi, G. Scalmani, N. Rega, 
 G. A. Petersson, H. Nakatsuji, M. Hada, M. Ehara, K. Toyota, 
 R. Fukuda, J. Hasegawa, M. Ishida, T. Nakajima, Y. Honda, O. Kitao, 
 H. Nakai, M. Klene, X. Li, J. E. Knox, H. P. Hratchian, J. B. Cross, 
 V. Bakken, C. Adamo, J. Jaramillo, R. Gomperts, R. E. Stratmann, 
 O. Yazyev, A. J. Austin, R. Cammi, C. Pomelli, J. W. Ochterski, 
 P. Y. Ayala, K. Morokuma, G. A. Voth, P. Salvador, J. J. Dannenberg, 
 V. G. Zakrzewski, S. Dapprich, A. D. Daniels, M. C. Strain, 
 O. Farkas, D. K. Malick, A. D. Rabuck, K. Raghavachari, 
 J. B. Foresman, J. V. Ortiz, Q. Cui, A. G. Baboul, S. Clifford, 
 J. Cioslowski, B. B. Stefanov, G. Liu, A. Liashenko, P. Piskorz, 
 I. Komaromi, R. L. Martin, D. J. Fox, T. Keith, M. A. Al-Laham, 
 C. Y. Peng, A. Nanayakkara, M. Challacombe, P. M. W. Gill, 
 B. Johnson, W. Chen, M. W. Wong, C. Gonzalez, and J. A. Pople, 
 Gaussian, Inc., Wallingford CT, 2004.
 
 ******************************************
 Gaussian 03:  EM64T-G03RevE.01 11-Sep-2007
                12-Jun-2015 
 ******************************************
 %nproc=2
 Will use up to    2 processors via shared memory.
 Default route:  MP2=Direct MaxDisk=2000MB
 ----------------------------------------------------
 # b3lyp/6-31+G(d,p) int=ultrafine pop=(ReadRadii,MK)
 ----------------------------------------------------

 Warning!  SCF SP cutoffs with diffuse functions may be unreliable.
 Consider SCF=Tight

 1/38=1/1;
 2/17=6,18=5,40=1/2;
 3/5=1,6=6,7=111,11=2,16=1,25=1,30=1,74=-5,75=5/1,2,3;
 4//1;
 5/5=2,32=1,38=5/2;
 6/7=2,8=2,9=2,10=2,15=8,20=101,28=1/1,2;
 99/5=1,9=1/99;
 -------------------------------------
 Ca3PO4_173.mol2c_plusQ.z51180.zip.xyz
 -------------------------------------
 Symbolic Z-matrix:
 Charge =  1 Multiplicity = 1
 O                     1.91474  -0.00004  -1.24133 
 O                    -1.03766   1.32127   0.10176 
 O                    -1.03716  -1.32111   0.10195 
 O                     2.66537   0.00029   0.13552 
 P                    -0.93298   0.00044   1.27275 
 Ca                    1.21535  -1.71714   0.02033 
 Ca                    1.21486   1.71711   0.01994 
 Ca                   -2.73259  -0.00046  -0.63399 
 
                          Input orientation:                          
 ---------------------------------------------------------------------
 Center     Atomic     Atomic              Coordinates (Angstroms)
 Number     Number      Type              X           Y           Z
 ---------------------------------------------------------------------
    1          8             0        1.914740   -0.000040   -1.241330
    2          8             0       -1.037660    1.321270    0.101760
    3          8             0       -1.037160   -1.321110    0.101950
    4          8             0        2.665370    0.000290    0.135520
    5         15             0       -0.932980    0.000440    1.272750
    6         20             0        1.215350   -1.717140    0.020330
    7         20             0        1.214860    1.717110    0.019940
    8         20             0       -2.732590   -0.000460   -0.633990
 ---------------------------------------------------------------------
                    Distance matrix (angstroms):
                    1          2          3          4          5
     1  O    0.000000
     2  O    3.502344   0.000000
     3  O    3.501905   2.642380   0.000000
     4  O    1.568171   3.931737   3.931406   0.000000
     5  P    3.798698   1.768267   1.768649   3.773780   0.000000
     6  Ca   2.242625   3.783467   2.288515   2.250643   3.022244
     7  Ca   2.242596   2.288500   3.782737   2.250513   3.021540
     8  Ca   4.686847   2.271802   2.271609   5.452533   2.621880
                    6          7          8
     6  Ca   0.000000
     7  Ca   3.434250   0.000000
     8  Ca   4.354464   4.354312   0.000000
 Stoichiometry    Ca3O4P(1+)
 Framework group  C1[X(Ca3O4P)]
 Deg. of freedom    18
 Full point group                 C1
 Largest Abelian subgroup         C1      NOp   1
 Largest concise Abelian subgroup C1      NOp   1
                         Standard orientation:                         
 ---------------------------------------------------------------------
 Center     Atomic     Atomic              Coordinates (Angstroms)
 Number     Number      Type              X           Y           Z
 ---------------------------------------------------------------------
    1          8             0        1.914740   -0.000045   -1.241330
    2          8             0       -1.037657    1.321271    0.101760
    3          8             0       -1.037163   -1.321109    0.101950
    4          8             0        2.665370    0.000284    0.135520
    5         15             0       -0.932980    0.000441    1.272750
    6         20             0        1.215346   -1.717143    0.020330
    7         20             0        1.214863    1.717107    0.019940
    8         20             0       -2.732590   -0.000455   -0.633990
 ---------------------------------------------------------------------
 Rotational constants (GHZ):      1.3194175      0.6814693      0.5367402
 Standard basis: 6-31+G(d,p) (6D, 7F)
 There are   180 symmetry adapted basis functions of A   symmetry.
 Integral buffers will be    131072 words long.
 Raffenetti 2 integral format.
 Two-electron integral symmetry is turned on.
   180 basis functions,   424 primitive gaussians,   180 cartesian basis functions
    53 alpha electrons       53 beta electrons
       nuclear repulsion energy       878.4582132059 Hartrees.
 NAtoms=    8 NActive=    8 NUniq=    8 SFac= 7.50D-01 NAtFMM=   80 NAOKFM=F Big=F
 One-electron integrals computed using PRISM.
 NBasis=   180 RedAO= T  NBF=   180
 NBsUse=   180 1.00D-06 NBFU=   180
 Harris functional with IExCor=  402 diagonalized for initial guess.
 ExpMin= 7.10D-03 ExpMax= 3.53D+04 ExpMxC= 5.30D+03 IAcc=3 IRadAn=         5 AccDes= 0.00D+00
 HarFok:  IExCor= 402 AccDes= 0.00D+00 IRadAn=         5 IDoV=1
 ScaDFX=  1.000000  1.000000  1.000000  1.000000
 Initial guess orbital symmetries:
       Occupied  (A) (A) (A) (A) (A) (A) (A) (A) (A) (A) (A) (A)
                 (A) (A) (A) (A) (A) (A) (A) (A) (A) (A) (A) (A)
                 (A) (A) (A) (A) (A) (A) (A) (A) (A) (A) (A) (A)
                 (A) (A) (A) (A) (A) (A) (A) (A) (A) (A) (A) (A)
                 (A) (A) (A) (A) (A)
       Virtual   (A) (A) (A) (A) (A) (A) (A) (A) (A) (A) (A) (A)
                 (A) (A) (A) (A) (A) (A) (A) (A) (A) (A) (A) (A)
                 (A) (A) (A) (A) (A) (A) (A) (A) (A) (A) (A) (A)
                 (A) (A) (A) (A) (A) (A) (A) (A) (A) (A) (A) (A)
                 (A) (A) (A) (A) (A) (A) (A) (A) (A) (A) (A) (A)
                 (A) (A) (A) (A) (A) (A) (A) (A) (A) (A) (A) (A)
                 (A) (A) (A) (A) (A) (A) (A) (A) (A) (A) (A) (A)
                 (A) (A) (A) (A) (A) (A) (A) (A) (A) (A) (A) (A)
                 (A) (A) (A) (A) (A) (A) (A) (A) (A) (A) (A) (A)
                 (A) (A) (A) (A) (A) (A) (A) (A) (A) (A) (A) (A)
                 (A) (A) (A) (A) (A) (A) (A)
 The electronic state of the initial guess is 1-A.
 Requested convergence on RMS density matrix=1.00D-04 within 128 cycles.
 Requested convergence on MAX density matrix=1.00D-02.
 Requested convergence on             energy=1.00D-02.
 No special actions if energy rises.
 SCF Done:  E(RB+HF-LYP) =  -2674.87506993     A.U. after   10 cycles
             Convg  =    0.2134D-04             -V/T =  2.0027
             S**2   =   0.0000

 **********************************************************************

            Population analysis using the SCF density.

 **********************************************************************

 Orbital symmetries:
       Occupied  (A) (A) (A) (A) (A) (A) (A) (A) (A) (A) (A) (A)
                 (A) (A) (A) (A) (A) (A) (A) (A) (A) (A) (A) (A)
                 (A) (A) (A) (A) (A) (A) (A) (A) (A) (A) (A) (A)
                 (A) (A) (A) (A) (A) (A) (A) (A) (A) (A) (A) (A)
                 (A) (A) (A) (A) (A)
       Virtual   (A) (A) (A) (A) (A) (A) (A) (A) (A) (A) (A) (A)
                 (A) (A) (A) (A) (A) (A) (A) (A) (A) (A) (A) (A)
                 (A) (A) (A) (A) (A) (A) (A) (A) (A) (A) (A) (A)
                 (A) (A) (A) (A) (A) (A) (A) (A) (A) (A) (A) (A)
                 (A) (A) (A) (A) (A) (A) (A) (A) (A) (A) (A) (A)
                 (A) (A) (A) (A) (A) (A) (A) (A) (A) (A) (A) (A)
                 (A) (A) (A) (A) (A) (A) (A) (A) (A) (A) (A) (A)
                 (A) (A) (A) (A) (A) (A) (A) (A) (A) (A) (A) (A)
                 (A) (A) (A) (A) (A) (A) (A) (A) (A) (A) (A) (A)
                 (A) (A) (A) (A) (A) (A) (A) (A) (A) (A) (A) (A)
                 (A) (A) (A) (A) (A) (A) (A)
 The electronic state is 1-A.
 Alpha  occ. eigenvalues -- -145.54264-145.47999-145.47996 -77.19274 -19.21436
 Alpha  occ. eigenvalues --  -19.21418 -19.21071 -19.21062 -15.61064 -15.54865
 Alpha  occ. eigenvalues --  -15.54862 -12.74286 -12.74218 -12.74218 -12.68105
 Alpha  occ. eigenvalues --  -12.68102 -12.68065 -12.68062 -12.67947 -12.67944
 Alpha  occ. eigenvalues --   -6.65474  -4.81971  -4.81714  -4.81053  -1.98039
 Alpha  occ. eigenvalues --   -1.92134  -1.92081  -1.25714  -1.25443  -1.25204
 Alpha  occ. eigenvalues --   -1.20877  -1.19867  -1.19780  -1.19552  -1.19548
 Alpha  occ. eigenvalues --   -1.19047  -1.03839  -1.02409  -0.98927  -0.84872
 Alpha  occ. eigenvalues --   -0.62501  -0.47223  -0.46775  -0.45023  -0.44343
 Alpha  occ. eigenvalues --   -0.43469  -0.41723  -0.41647  -0.37155  -0.36898
 Alpha  occ. eigenvalues --   -0.31996  -0.30083  -0.25944
 Alpha virt. eigenvalues --   -0.21893  -0.16792  -0.16514  -0.13553  -0.12576
 Alpha virt. eigenvalues --   -0.11118  -0.09709  -0.09304  -0.08112  -0.08039
 Alpha virt. eigenvalues --   -0.07025  -0.06879  -0.06369  -0.05857  -0.05177
 Alpha virt. eigenvalues --   -0.05119  -0.04782  -0.04575  -0.04229  -0.03965
 Alpha virt. eigenvalues --   -0.03908  -0.03477  -0.03290  -0.03271  -0.02869
 Alpha virt. eigenvalues --   -0.02648  -0.02557  -0.00966   0.00484   0.00990
 Alpha virt. eigenvalues --    0.01568   0.02985   0.03976   0.04535   0.04614
 Alpha virt. eigenvalues --    0.04777   0.05251   0.06156   0.06802   0.06902
 Alpha virt. eigenvalues --    0.07589   0.07642   0.08561   0.08861   0.08915
 Alpha virt. eigenvalues --    0.09860   0.10755   0.10865   0.11959   0.11969
 Alpha virt. eigenvalues --    0.15326   0.15758   0.16325   0.17659   0.18399
 Alpha virt. eigenvalues --    0.20101   0.21636   0.22637   0.23859   0.24029
 Alpha virt. eigenvalues --    0.24083   0.26014   0.27470   0.28030   0.32354
 Alpha virt. eigenvalues --    0.32802   0.33766   0.36417   0.38652   0.39091
 Alpha virt. eigenvalues --    0.39365   0.40578   0.42074   0.44864   0.52103
 Alpha virt. eigenvalues --    0.53763   0.60369   0.61825   0.64759   0.66168
 Alpha virt. eigenvalues --    0.67750   0.73917   0.83957   0.86544   0.88016
 Alpha virt. eigenvalues --    0.96559   1.14063   1.15014   1.16073   1.18334
 Alpha virt. eigenvalues --    1.18687   1.19266   1.19976   1.21122   1.22321
 Alpha virt. eigenvalues --    1.25561   1.26628   1.35345   1.52700   1.53643
 Alpha virt. eigenvalues --    1.54699   1.56814   1.62590   1.70698   1.75406
 Alpha virt. eigenvalues --    1.76549   1.80064   1.80079   1.81101   1.81792
 Alpha virt. eigenvalues --    1.83862   1.86159   1.88870   1.91356   1.91607
 Alpha virt. eigenvalues --    1.93647   1.99225   2.21330   2.23100   2.25433
 Alpha virt. eigenvalues --    2.38993   3.05909   3.48497   4.00281   4.08059
 Alpha virt. eigenvalues --    4.09657   4.16684
          Condensed to atoms (all electrons):
              1          2          3          4          5          6
     1  O    8.466212   0.029760   0.029760  -0.007423  -0.078300   0.098595
     2  O    0.029760   9.073969   0.074440  -0.011678  -0.524262   0.012561
     3  O    0.029760   0.074440   9.073687  -0.011681  -0.523995   0.087118
     4  O   -0.007423  -0.011678  -0.011681   8.476247   0.000611   0.110564
     5  P   -0.078300  -0.524262  -0.523995   0.000611  16.335284   0.001994
     6  Ca   0.098595   0.012561   0.087118   0.110564   0.001994  18.296793
     7  Ca   0.098608   0.087104   0.012560   0.110579   0.002102  -0.034767
     8  Ca   0.007899   0.080259   0.080344  -0.007697   0.141169  -0.008364
              7          8
     1  O    0.098608   0.007899
     2  O    0.087104   0.080259
     3  O    0.012560   0.080344
     4  O    0.110579  -0.007697
     5  P    0.002102   0.141169
     6  Ca  -0.034767  -0.008364
     7  Ca  18.296870  -0.008381
     8  Ca  -0.008381  18.281979
 Mulliken atomic charges:
              1
     1  O   -0.645111
     2  O   -0.822154
     3  O   -0.822232
     4  O   -0.659523
     5  P   -0.354604
     6  Ca   1.435507
     7  Ca   1.435325
     8  Ca   1.432793
 Sum of Mulliken charges=   1.00000
 Atomic charges with hydrogens summed into heavy atoms:
              1
     1  O   -0.645111
     2  O   -0.822154
     3  O   -0.822232
     4  O   -0.659523
     5  P   -0.354604
     6  Ca   1.435507
     7  Ca   1.435325
     8  Ca   1.432793
 Sum of Mulliken charges=   1.00000
 Electronic spatial extent (au):  <R**2>=  1960.6064
 Charge=     1.0000 electrons
 Dipole moment (field-independent basis, Debye):
    X=    -6.8809    Y=    -0.0055    Z=    -3.7351  Tot=     7.8293
 Quadrupole moment (field-independent basis, Debye-Ang):
   XX=   -44.9270   YY=   -37.8870   ZZ=   -77.2423
   XY=     0.0019   XZ=    23.2476   YZ=    -0.0039
 Traceless Quadrupole moment (field-independent basis, Debye-Ang):
   XX=     8.4251   YY=    15.4651   ZZ=   -23.8902
   XY=     0.0019   XZ=    23.2476   YZ=    -0.0039
 Octapole moment (field-independent basis, Debye-Ang**2):
  XXX=  -184.1587  YYY=    -0.0115  ZZZ=   -22.6271  XYY=    79.6154
  XXY=    -0.0579  XXZ=   -42.1734  XZZ=   -13.5502  YZZ=    -0.0063
  YYZ=    -5.9485  XYZ=    -0.0165
 Hexadecapole moment (field-independent basis, Debye-Ang**3):
 XXXX= -1121.7039 YYYY=  -408.2154 ZZZZ=  -338.6539 XXXY=     0.0292
 XXXZ=   194.0720 YYYX=    -0.0206 YYYZ=    -0.0240 ZZZX=    75.2196
 ZZZY=    -0.0183 XXYY=  -247.4581 XXZZ=  -284.1387 YYZZ=  -138.4028
 XXYZ=     0.0021 YYXZ=    17.9155 ZZXY=     0.0005
 N-N= 8.784582132059D+02 E-N=-8.081772105798D+03  KE= 2.667644714330D+03
 Merz-Kollman atomic radii used.
 Read replacement radii for each type of atom:
 Rad(20) =   1.188000000000D+00
 Atom Element Radius
    1     8    1.40
    2     8    1.40
    3     8    1.40
    4     8    1.40
    5    15    1.80
    6    20    1.19
    7    20    1.19
    8    20    1.19

 **********************************************************************

            Electrostatic Properties Using The SCF Density

 **********************************************************************

       Atomic Center    1 is at   1.914740 -0.000045 -1.241330
       Atomic Center    2 is at  -1.037657  1.321271  0.101760
       Atomic Center    3 is at  -1.037163 -1.321109  0.101950
       Atomic Center    4 is at   2.665370  0.000284  0.135520
       Atomic Center    5 is at  -0.932980  0.000441  1.272750
       Atomic Center    6 is at   1.215346 -1.717143  0.020330
       Atomic Center    7 is at   1.214863  1.717107  0.019940
       Atomic Center    8 is at  -2.732590 -0.000455 -0.633990
     738 points will be used for fitting atomic charges
 Fitting point charges to eletrostatic potential
 Charges from ESP fit, RMS=   0.00821 RRMS=   0.05280:
 Charge=   1.00000 Dipole=    -7.5520    -0.0058    -3.9032 Tot=     8.5011
              1
     1  O   -0.772648
     2  O   -0.981657
     3  O   -0.981837
     4  O   -0.847880
     5  P   -0.402688
     6  Ca   1.694821
     7  Ca   1.694758
     8  Ca   1.597130
 -----------------------------------------------------------------

              Electrostatic Properties (Atomic Units)

 -----------------------------------------------------------------
    Center     Electric         -------- Electric Field --------
               Potential          X             Y             Z
 -----------------------------------------------------------------
    1 Atom    -22.258832
    2 Atom    -22.249371
    3 Atom    -22.248963
    4 Atom    -22.258794
    5 Atom    -54.022275
    6 Atom    -80.060203
    7 Atom    -80.060256
    8 Atom    -79.999233
 -----------------------------------------------------------------
 1\1\GINC-N030\SP\RB3LYP\6-31+G(d,p)\Ca3O4P1(1+)\TIMN\12-Jun-2015\0\\# 
 b3lyp/6-31+G(d,p) int=ultrafine pop=(ReadRadii,MK)\\Ca3PO4_173.mol2c_p
 lusQ.z51180.zip.xyz\\1,1\O,0,1.91474,-0.00004,-1.24133\O,0,-1.03766,1.
 32127,0.10176\O,0,-1.03716,-1.32111,0.10195\O,0,2.66537,0.00029,0.1355
 2\P,0,-0.93298,0.00044,1.27275\Ca,0,1.21535,-1.71714,0.02033\Ca,0,1.21
 486,1.71711,0.01994\Ca,0,-2.73259,-0.00046,-0.63399\\Version=EM64T-G03
 RevE.01\State=1-A\HF=-2674.8750699\RMSD=2.134e-05\Thermal=0.\Dipole=-2
 .7071482,-0.0021635,-1.4695102\PG=C01 [X(Ca3O4P1)]\\@


 I CLAIM NOT TO HAVE CONTROLLED EVENTS,
 BUT CONFESS PLAINLY THAT EVENTS HAVE CONTROLLED ME.

                                         A. LINCOLN
 Job cpu time:  0 days  0 hours  1 minutes 59.5 seconds.
 File lengths (MBytes):  RWF=     32 Int=      0 D2E=      0 Chk=     11 Scr=      1
 Normal termination of Gaussian 03 at Fri Jun 12 17:39:52 2015.
