 Entering Gaussian System, Link 0=/home/timn/tmp/g03.e01/g03
 Input=Ca3PO4_186.mol2c_plusQ.z51194.zip.xyz.gjf
 Output=Ca3PO4_186.mol2c_plusQ.z51194.zip.xyz.out
 Initial command:
 /home/timn/tmp/g03.e01/l1.exe /home/timn/tmp/g03.e01/Gau-13730.inp -scrdir=/home/timn/tmp/g03.e01/
 Default is to use a total of   2 processors:
                                2 via shared-memory
                                1 via Linda
 Entering Link 1 = /home/timn/tmp/g03.e01/l1.exe PID=     13731.
  
 Copyright (c) 1988,1990,1992,1993,1995,1998,2003,2004,2007, Gaussian, Inc.
                  All Rights Reserved.
  
 This is the Gaussian(R) 03 program.  It is based on the
 the Gaussian(R) 98 system (copyright 1998, Gaussian, Inc.),
 the Gaussian(R) 94 system (copyright 1995, Gaussian, Inc.),
 the Gaussian 92(TM) system (copyright 1992, Gaussian, Inc.),
 the Gaussian 90(TM) system (copyright 1990, Gaussian, Inc.),
 the Gaussian 88(TM) system (copyright 1988, Gaussian, Inc.),
 the Gaussian 86(TM) system (copyright 1986, Carnegie Mellon
 University), and the Gaussian 82(TM) system (copyright 1983,
 Carnegie Mellon University). Gaussian is a federally registered
 trademark of Gaussian, Inc.
  
 This software contains proprietary and confidential information,
 including trade secrets, belonging to Gaussian, Inc.
  
 This software is provided under written license and may be
 used, copied, transmitted, or stored only in accord with that
 written license.
  
 The following legend is applicable only to US Government
 contracts under FAR:
  
                    RESTRICTED RIGHTS LEGEND
  
 Use, reproduction and disclosure by the US Government is
 subject to restrictions as set forth in subparagraphs (a)
 and (c) of the Commercial Computer Software - Restricted
 Rights clause in FAR 52.227-19.
  
 Gaussian, Inc.
 340 Quinnipiac St., Bldg. 40, Wallingford CT 06492
  
  
 ---------------------------------------------------------------
 Warning -- This program may not be used in any manner that
 competes with the business of Gaussian, Inc. or will provide
 assistance to any competitor of Gaussian, Inc.  The licensee
 of this program is prohibited from giving any competitor of
 Gaussian, Inc. access to this program.  By using this program,
 the user acknowledges that Gaussian, Inc. is engaged in the
 business of creating and licensing software in the field of
 computational chemistry and represents and warrants to the
 licensee that it is not a competitor of Gaussian, Inc. and that
 it will not use this program in any manner prohibited above.
 ---------------------------------------------------------------
  

 Cite this work as:
 Gaussian 03, Revision E.01,
 M. J. Frisch, G. W. Trucks, H. B. Schlegel, G. E. Scuseria, 
 M. A. Robb, J. R. Cheeseman, J. A. Montgomery, Jr., T. Vreven, 
 K. N. Kudin, J. C. Burant, J. M. Millam, S. S. Iyengar, J. Tomasi, 
 V. Barone, B. Mennucci, M. Cossi, G. Scalmani, N. Rega, 
 G. A. Petersson, H. Nakatsuji, M. Hada, M. Ehara, K. Toyota, 
 R. Fukuda, J. Hasegawa, M. Ishida, T. Nakajima, Y. Honda, O. Kitao, 
 H. Nakai, M. Klene, X. Li, J. E. Knox, H. P. Hratchian, J. B. Cross, 
 V. Bakken, C. Adamo, J. Jaramillo, R. Gomperts, R. E. Stratmann, 
 O. Yazyev, A. J. Austin, R. Cammi, C. Pomelli, J. W. Ochterski, 
 P. Y. Ayala, K. Morokuma, G. A. Voth, P. Salvador, J. J. Dannenberg, 
 V. G. Zakrzewski, S. Dapprich, A. D. Daniels, M. C. Strain, 
 O. Farkas, D. K. Malick, A. D. Rabuck, K. Raghavachari, 
 J. B. Foresman, J. V. Ortiz, Q. Cui, A. G. Baboul, S. Clifford, 
 J. Cioslowski, B. B. Stefanov, G. Liu, A. Liashenko, P. Piskorz, 
 I. Komaromi, R. L. Martin, D. J. Fox, T. Keith, M. A. Al-Laham, 
 C. Y. Peng, A. Nanayakkara, M. Challacombe, P. M. W. Gill, 
 B. Johnson, W. Chen, M. W. Wong, C. Gonzalez, and J. A. Pople, 
 Gaussian, Inc., Wallingford CT, 2004.
 
 ******************************************
 Gaussian 03:  EM64T-G03RevE.01 11-Sep-2007
                12-Jun-2015 
 ******************************************
 %nproc=2
 Will use up to    2 processors via shared memory.
 Default route:  MP2=Direct MaxDisk=2000MB
 ----------------------------------------------------
 # b3lyp/6-31+G(d,p) int=ultrafine pop=(ReadRadii,MK)
 ----------------------------------------------------

 Warning!  SCF SP cutoffs with diffuse functions may be unreliable.
 Consider SCF=Tight

 1/38=1/1;
 2/17=6,18=5,40=1/2;
 3/5=1,6=6,7=111,11=2,16=1,25=1,30=1,74=-5,75=5/1,2,3;
 4//1;
 5/5=2,32=1,38=5/2;
 6/7=2,8=2,9=2,10=2,15=8,20=101,28=1/1,2;
 99/5=1,9=1/99;
 -------------------------------------
 Ca3PO4_186.mol2c_plusQ.z51194.zip.xyz
 -------------------------------------
 Symbolic Z-matrix:
 Charge =  1 Multiplicity = 1
 O                    -1.20612   0.85844   0.9227 
 O                    -0.13939  -1.47376   0.92314 
 O                     1.34717   0.61591   0.92154 
 O                    -0.00107  -0.00023  -1.71216 
 P                     0.00107   0.00047   1.71819 
 Ca                    0.18372   1.93688  -0.57057 
 Ca                   -1.76999  -0.80932  -0.56931 
 Ca                    1.58523  -1.12805  -0.57084 
 
                          Input orientation:                          
 ---------------------------------------------------------------------
 Center     Atomic     Atomic              Coordinates (Angstroms)
 Number     Number      Type              X           Y           Z
 ---------------------------------------------------------------------
    1          8             0       -1.206120    0.858440    0.922700
    2          8             0       -0.139390   -1.473760    0.923140
    3          8             0        1.347170    0.615910    0.921540
    4          8             0       -0.001070   -0.000230   -1.712160
    5         15             0        0.001070    0.000470    1.718190
    6         20             0        0.183720    1.936880   -0.570570
    7         20             0       -1.769990   -0.809320   -0.569310
    8         20             0        1.585230   -1.128050   -0.570840
 ---------------------------------------------------------------------
                    Distance matrix (angstroms):
                    1          2          3          4          5
     1  O    0.000000
     2  O    2.564580   0.000000
     3  O    2.564783   2.564485   0.000000
     4  O    3.021911   3.022454   3.022210   0.000000
     5  P    1.681138   1.680829   1.680893   3.430351   0.000000
     6  Ca   2.307497   3.737383   2.307590   2.256052   3.003576
     7  Ca   2.307697   2.308191   3.737727   2.256061   3.004175
     8  Ca   3.737438   2.307771   2.307654   2.256310   3.003794
                    6          7          8
     6  Ca   0.000000
     7  Ca   3.370252   0.000000
     8  Ca   3.370167   3.370325   0.000000
 Stoichiometry    Ca3O4P(1+)
 Framework group  C1[X(Ca3O4P)]
 Deg. of freedom    18
 Full point group                 C1
 Largest Abelian subgroup         C1      NOp   1
 Largest concise Abelian subgroup C1      NOp   1
                         Standard orientation:                         
 ---------------------------------------------------------------------
 Center     Atomic     Atomic              Coordinates (Angstroms)
 Number     Number      Type              X           Y           Z
 ---------------------------------------------------------------------
    1          8             0       -1.180358    0.893530    0.922698
    2          8             0       -0.182661   -1.469026    0.923138
    3          8             0        1.364697    0.576033    0.921538
    4          8             0       -0.001076   -0.000200   -1.712162
    5         15             0        0.001084    0.000437    1.718188
    6         20             0        0.240589    1.930640   -0.570572
    7         20             0       -1.793020   -0.756930   -0.569312
    8         20             0        1.551378   -1.174173   -0.570842
 ---------------------------------------------------------------------
 Rotational constants (GHZ):      1.0154825      1.0154099      0.9038819
 Standard basis: 6-31+G(d,p) (6D, 7F)
 There are   180 symmetry adapted basis functions of A   symmetry.
 Integral buffers will be    131072 words long.
 Raffenetti 2 integral format.
 Two-electron integral symmetry is turned on.
   180 basis functions,   424 primitive gaussians,   180 cartesian basis functions
    53 alpha electrons       53 beta electrons
       nuclear repulsion energy       952.7234546559 Hartrees.
 NAtoms=    8 NActive=    8 NUniq=    8 SFac= 7.50D-01 NAtFMM=   80 NAOKFM=F Big=F
 One-electron integrals computed using PRISM.
 NBasis=   180 RedAO= T  NBF=   180
 NBsUse=   180 1.00D-06 NBFU=   180
 Harris functional with IExCor=  402 diagonalized for initial guess.
 ExpMin= 7.10D-03 ExpMax= 3.53D+04 ExpMxC= 5.30D+03 IAcc=3 IRadAn=         5 AccDes= 0.00D+00
 HarFok:  IExCor= 402 AccDes= 0.00D+00 IRadAn=         5 IDoV=1
 ScaDFX=  1.000000  1.000000  1.000000  1.000000
 Initial guess orbital symmetries:
       Occupied  (A) (A) (A) (A) (A) (A) (A) (A) (A) (A) (A) (A)
                 (A) (A) (A) (A) (A) (A) (A) (A) (A) (A) (A) (A)
                 (A) (A) (A) (A) (A) (A) (A) (A) (A) (A) (A) (A)
                 (A) (A) (A) (A) (A) (A) (A) (A) (A) (A) (A) (A)
                 (A) (A) (A) (A) (A)
       Virtual   (A) (A) (A) (A) (A) (A) (A) (A) (A) (A) (A) (A)
                 (A) (A) (A) (A) (A) (A) (A) (A) (A) (A) (A) (A)
                 (A) (A) (A) (A) (A) (A) (A) (A) (A) (A) (A) (A)
                 (A) (A) (A) (A) (A) (A) (A) (A) (A) (A) (A) (A)
                 (A) (A) (A) (A) (A) (A) (A) (A) (A) (A) (A) (A)
                 (A) (A) (A) (A) (A) (A) (A) (A) (A) (A) (A) (A)
                 (A) (A) (A) (A) (A) (A) (A) (A) (A) (A) (A) (A)
                 (A) (A) (A) (A) (A) (A) (A) (A) (A) (A) (A) (A)
                 (A) (A) (A) (A) (A) (A) (A) (A) (A) (A) (A) (A)
                 (A) (A) (A) (A) (A) (A) (A) (A) (A) (A) (A) (A)
                 (A) (A) (A) (A) (A) (A) (A)
 The electronic state of the initial guess is 1-A.
 Requested convergence on RMS density matrix=1.00D-04 within 128 cycles.
 Requested convergence on MAX density matrix=1.00D-02.
 Requested convergence on             energy=1.00D-02.
 No special actions if energy rises.
 SCF Done:  E(RB+HF-LYP) =  -2675.07103786     A.U. after    8 cycles
             Convg  =    0.8280D-04             -V/T =  2.0028
             S**2   =   0.0000

 **********************************************************************

            Population analysis using the SCF density.

 **********************************************************************

 Orbital symmetries:
       Occupied  (A) (A) (A) (A) (A) (A) (A) (A) (A) (A) (A) (A)
                 (A) (A) (A) (A) (A) (A) (A) (A) (A) (A) (A) (A)
                 (A) (A) (A) (A) (A) (A) (A) (A) (A) (A) (A) (A)
                 (A) (A) (A) (A) (A) (A) (A) (A) (A) (A) (A) (A)
                 (A) (A) (A) (A) (A)
       Virtual   (A) (A) (A) (A) (A) (A) (A) (A) (A) (A) (A) (A)
                 (A) (A) (A) (A) (A) (A) (A) (A) (A) (A) (A) (A)
                 (A) (A) (A) (A) (A) (A) (A) (A) (A) (A) (A) (A)
                 (A) (A) (A) (A) (A) (A) (A) (A) (A) (A) (A) (A)
                 (A) (A) (A) (A) (A) (A) (A) (A) (A) (A) (A) (A)
                 (A) (A) (A) (A) (A) (A) (A) (A) (A) (A) (A) (A)
                 (A) (A) (A) (A) (A) (A) (A) (A) (A) (A) (A) (A)
                 (A) (A) (A) (A) (A) (A) (A) (A) (A) (A) (A) (A)
                 (A) (A) (A) (A) (A) (A) (A) (A) (A) (A) (A) (A)
                 (A) (A) (A) (A) (A) (A) (A) (A) (A) (A) (A) (A)
                 (A) (A) (A) (A) (A) (A) (A)
 The electronic state is 1-A.
 Alpha  occ. eigenvalues -- -145.49642-145.49637-145.49632 -77.25056 -19.21232
 Alpha  occ. eigenvalues --  -19.21230 -19.21207 -19.15942 -15.56476 -15.56473
 Alpha  occ. eigenvalues --  -15.56467 -12.69673 -12.69672 -12.69666 -12.69651
 Alpha  occ. eigenvalues --  -12.69649 -12.69643 -12.69603 -12.69602 -12.69596
 Alpha  occ. eigenvalues --   -6.70086  -4.86434  -4.86434  -4.85898  -1.93824
 Alpha  occ. eigenvalues --   -1.93741  -1.93737  -1.22378  -1.21697  -1.21695
 Alpha  occ. eigenvalues --   -1.21307  -1.21140  -1.21066  -1.21064  -1.20644
 Alpha  occ. eigenvalues --   -1.20641  -1.06762  -1.00362  -1.00350  -0.90940
 Alpha  occ. eigenvalues --   -0.62642  -0.50530  -0.50527  -0.47963  -0.43359
 Alpha  occ. eigenvalues --   -0.43357  -0.38346  -0.38339  -0.38177  -0.36136
 Alpha  occ. eigenvalues --   -0.36135  -0.34592  -0.30859
 Alpha virt. eigenvalues --   -0.19950  -0.18028  -0.18025  -0.12556  -0.12553
 Alpha virt. eigenvalues --   -0.10894  -0.09478  -0.09477  -0.08339  -0.07772
 Alpha virt. eigenvalues --   -0.06545  -0.06114  -0.06114  -0.04765  -0.04715
 Alpha virt. eigenvalues --   -0.04715  -0.04672  -0.04474  -0.04473  -0.04004
 Alpha virt. eigenvalues --   -0.04003  -0.03232  -0.02943  -0.02943  -0.02358
 Alpha virt. eigenvalues --   -0.02357  -0.00867   0.01028   0.02176   0.02616
 Alpha virt. eigenvalues --    0.02617   0.04574   0.04575   0.05228   0.06003
 Alpha virt. eigenvalues --    0.06005   0.06293   0.06294   0.07291   0.07293
 Alpha virt. eigenvalues --    0.07382   0.07663   0.07666   0.07823   0.08469
 Alpha virt. eigenvalues --    0.10685   0.10687   0.11334   0.11803   0.13656
 Alpha virt. eigenvalues --    0.15680   0.15681   0.19890   0.19892   0.20368
 Alpha virt. eigenvalues --    0.22085   0.22090   0.23484   0.23993   0.25319
 Alpha virt. eigenvalues --    0.25960   0.25964   0.30034   0.31448   0.31453
 Alpha virt. eigenvalues --    0.35744   0.36002   0.36007   0.37867   0.39080
 Alpha virt. eigenvalues --    0.39085   0.39776   0.45826   0.45835   0.53631
 Alpha virt. eigenvalues --    0.53633   0.55851   0.63367   0.63371   0.67680
 Alpha virt. eigenvalues --    0.82894   0.86950   0.86961   0.94105   0.94114
 Alpha virt. eigenvalues --    1.14553   1.16754   1.16757   1.18032   1.20778
 Alpha virt. eigenvalues --    1.21968   1.21975   1.23406   1.23408   1.28215
 Alpha virt. eigenvalues --    1.34164   1.34177   1.36429   1.54461   1.54470
 Alpha virt. eigenvalues --    1.57773   1.68374   1.71622   1.73143   1.73150
 Alpha virt. eigenvalues --    1.77481   1.77485   1.87077   1.87365   1.87372
 Alpha virt. eigenvalues --    1.88070   1.92078   1.92081   1.93333   1.98437
 Alpha virt. eigenvalues --    1.98441   2.03012   2.03021   2.14777   2.38178
 Alpha virt. eigenvalues --    2.55154   2.55179   3.54376   4.05619   4.14278
 Alpha virt. eigenvalues --    4.14289   4.31211
          Condensed to atoms (all electrons):
              1          2          3          4          5          6
     1  O    8.965683   0.058648   0.058699   0.023992  -0.200785   0.059910
     2  O    0.058648   8.966094   0.058753   0.023949  -0.200993   0.006270
     3  O    0.058699   0.058753   8.966093   0.023984  -0.201098   0.059862
     4  O    0.023992   0.023949   0.023984   8.852653  -0.039953   0.122101
     5  P   -0.200785  -0.200993  -0.201098  -0.039953  14.443363   0.033697
     6  Ca   0.059910   0.006270   0.059862   0.122101   0.033697  18.397016
     7  Ca   0.059844   0.059805   0.006198   0.122151   0.033774  -0.047640
     8  Ca   0.006196   0.059833   0.059820   0.122141   0.033881  -0.047737
              7          8
     1  O    0.059844   0.006196
     2  O    0.059805   0.059833
     3  O    0.006198   0.059820
     4  O    0.122151   0.122141
     5  P    0.033774   0.033881
     6  Ca  -0.047640  -0.047737
     7  Ca  18.396806  -0.047610
     8  Ca  -0.047610  18.396910
 Mulliken atomic charges:
              1
     1  O   -1.032186
     2  O   -1.032360
     3  O   -1.032311
     4  O   -1.251017
     5  P    1.098114
     6  Ca   1.416521
     7  Ca   1.416672
     8  Ca   1.416566
 Sum of Mulliken charges=   1.00000
 Atomic charges with hydrogens summed into heavy atoms:
              1
     1  O   -1.032186
     2  O   -1.032360
     3  O   -1.032311
     4  O   -1.251017
     5  P    1.098114
     6  Ca   1.416521
     7  Ca   1.416672
     8  Ca   1.416566
 Sum of Mulliken charges=   1.00000
 Electronic spatial extent (au):  <R**2>=  1510.0898
 Charge=     1.0000 electrons
 Dipole moment (field-independent basis, Debye):
    X=    -0.0056    Y=    -0.0029    Z=    -8.2303  Tot=     8.2303
 Quadrupole moment (field-independent basis, Debye-Ang):
   XX=   -40.0323   YY=   -40.0350   ZZ=   -90.0203
   XY=     0.0017   XZ=    -0.0258   YZ=    -0.0028
 Traceless Quadrupole moment (field-independent basis, Debye-Ang):
   XX=    16.6636   YY=    16.6609   ZZ=   -33.3244
   XY=     0.0017   XZ=    -0.0258   YZ=    -0.0028
 Octapole moment (field-independent basis, Debye-Ang**2):
  XXX=   -21.4029  YYY=    54.5368  ZZZ=    -1.6880  XYY=    21.2903
  XXY=   -54.5939  XXZ=   -46.6559  XZZ=     0.0467  YZZ=     0.0128
  YYZ=   -46.6891  XYZ=     0.0240
 Hexadecapole moment (field-independent basis, Debye-Ang**3):
 XXXX=  -416.0132 YYYY=  -416.0000 ZZZZ=  -721.8417 XXXY=     0.0377
 XXXZ=     5.5214 YYYX=    -0.0022 YYYZ=   -14.3949 ZZZX=    -0.1213
 ZZZY=    -0.0351 XXYY=  -138.6672 XXZZ=  -187.6112 YYZZ=  -187.5961
 XXYZ=    14.3700 YYXZ=    -5.6497 ZZXY=    -0.0096
 N-N= 9.527234546559D+02 E-N=-8.229921895819D+03  KE= 2.667694703998D+03
 Merz-Kollman atomic radii used.
 Read replacement radii for each type of atom:
 Rad(20) =   1.188000000000D+00
 Atom Element Radius
    1     8    1.40
    2     8    1.40
    3     8    1.40
    4     8    1.40
    5    15    1.80
    6    20    1.19
    7    20    1.19
    8    20    1.19

 **********************************************************************

            Electrostatic Properties Using The SCF Density

 **********************************************************************

       Atomic Center    1 is at  -1.180358  0.893530  0.922698
       Atomic Center    2 is at  -0.182661 -1.469026  0.923138
       Atomic Center    3 is at   1.364697  0.576033  0.921538
       Atomic Center    4 is at  -0.001076 -0.000200 -1.712162
       Atomic Center    5 is at   0.001084  0.000437  1.718188
       Atomic Center    6 is at   0.240589  1.930640 -0.570572
       Atomic Center    7 is at  -1.793020 -0.756930 -0.569312
       Atomic Center    8 is at   1.551378 -1.174173 -0.570842
     673 points will be used for fitting atomic charges
 Fitting point charges to eletrostatic potential
 Charges from ESP fit, RMS=   0.00632 RRMS=   0.03868:
 Charge=   1.00000 Dipole=    -0.0211     0.0060    -8.4389 Tot=     8.4390
              1
     1  O   -0.943438
     2  O   -0.942850
     3  O   -0.944696
     4  O   -1.634795
     5  P    0.512275
     6  Ca   1.652313
     7  Ca   1.651184
     8  Ca   1.650006
 -----------------------------------------------------------------

              Electrostatic Properties (Atomic Units)

 -----------------------------------------------------------------
    Center     Electric         -------- Electric Field --------
               Potential          X             Y             Z
 -----------------------------------------------------------------
    1 Atom    -22.250955
    2 Atom    -22.251460
    3 Atom    -22.251394
    4 Atom    -22.290805
    5 Atom    -53.968058
    6 Atom    -80.043321
    7 Atom    -80.043260
    8 Atom    -80.043280
 -----------------------------------------------------------------
 1\1\GINC-N035\SP\RB3LYP\6-31+G(d,p)\Ca3O4P1(1+)\TIMN\12-Jun-2015\0\\# 
 b3lyp/6-31+G(d,p) int=ultrafine pop=(ReadRadii,MK)\\Ca3PO4_186.mol2c_p
 lusQ.z51194.zip.xyz\\1,1\O,0,-1.20612,0.85844,0.9227\O,0,-0.13939,-1.4
 7376,0.92314\O,0,1.34717,0.61591,0.92154\O,0,-0.00107,-0.00023,-1.7121
 6\P,0,0.00107,0.00047,1.71819\Ca,0,0.18372,1.93688,-0.57057\Ca,0,-1.76
 999,-0.80932,-0.56931\Ca,0,1.58523,-1.12805,-0.57084\\Version=EM64T-G0
 3RevE.01\State=1-A\HF=-2675.0710379\RMSD=8.280e-05\Thermal=0.\Dipole=-
 0.0021513,-0.0012141,-3.2380675\PG=C01 [X(Ca3O4P1)]\\@


 BUT 'GLORY' DOESN'T MEAN 'A NICE KNOCK DOWN ARGUMENT', ALICE OBJECTED.
 WHEN I USE A WORD, HUMPTY DUMPTY SAID, IN A RATHER SCORNFUL TONE,
 IT MEANS JUST WHAT I CHOOSE IT TO MEAN....
 NEITHER MORE NOR LESS....
 THE QUESTION IS, SAID ALICE,
 WHETHER YOU CAN MAKE WORDS MEAN SO MANY DIFFERENT THINGS...
 THE QUESTION IS, SAID HUMPTY DUMPTY,
 WHICH IS TO BE MASTER....
 THAT IS ALL.....

 ALICE THROUGH THE LOOKING GLASS
 Job cpu time:  0 days  0 hours  1 minutes 43.0 seconds.
 File lengths (MBytes):  RWF=     32 Int=      0 D2E=      0 Chk=     11 Scr=      1
 Normal termination of Gaussian 03 at Fri Jun 12 17:40:23 2015.
