 Entering Gaussian System, Link 0=/home/timn/tmp/g03.e01/g03
 Input=Ca3PO4_64.mol2c_plusQ.z51479.zip.xyz.gjf
 Output=Ca3PO4_64.mol2c_plusQ.z51479.zip.xyz.out
 Initial command:
 /home/timn/tmp/g03.e01/l1.exe /home/timn/tmp/g03.e01/Gau-19333.inp -scrdir=/home/timn/tmp/g03.e01/
 Default is to use a total of   2 processors:
                                2 via shared-memory
                                1 via Linda
 Entering Link 1 = /home/timn/tmp/g03.e01/l1.exe PID=     19334.
  
 Copyright (c) 1988,1990,1992,1993,1995,1998,2003,2004,2007, Gaussian, Inc.
                  All Rights Reserved.
  
 This is the Gaussian(R) 03 program.  It is based on the
 the Gaussian(R) 98 system (copyright 1998, Gaussian, Inc.),
 the Gaussian(R) 94 system (copyright 1995, Gaussian, Inc.),
 the Gaussian 92(TM) system (copyright 1992, Gaussian, Inc.),
 the Gaussian 90(TM) system (copyright 1990, Gaussian, Inc.),
 the Gaussian 88(TM) system (copyright 1988, Gaussian, Inc.),
 the Gaussian 86(TM) system (copyright 1986, Carnegie Mellon
 University), and the Gaussian 82(TM) system (copyright 1983,
 Carnegie Mellon University). Gaussian is a federally registered
 trademark of Gaussian, Inc.
  
 This software contains proprietary and confidential information,
 including trade secrets, belonging to Gaussian, Inc.
  
 This software is provided under written license and may be
 used, copied, transmitted, or stored only in accord with that
 written license.
  
 The following legend is applicable only to US Government
 contracts under FAR:
  
                    RESTRICTED RIGHTS LEGEND
  
 Use, reproduction and disclosure by the US Government is
 subject to restrictions as set forth in subparagraphs (a)
 and (c) of the Commercial Computer Software - Restricted
 Rights clause in FAR 52.227-19.
  
 Gaussian, Inc.
 340 Quinnipiac St., Bldg. 40, Wallingford CT 06492
  
  
 ---------------------------------------------------------------
 Warning -- This program may not be used in any manner that
 competes with the business of Gaussian, Inc. or will provide
 assistance to any competitor of Gaussian, Inc.  The licensee
 of this program is prohibited from giving any competitor of
 Gaussian, Inc. access to this program.  By using this program,
 the user acknowledges that Gaussian, Inc. is engaged in the
 business of creating and licensing software in the field of
 computational chemistry and represents and warrants to the
 licensee that it is not a competitor of Gaussian, Inc. and that
 it will not use this program in any manner prohibited above.
 ---------------------------------------------------------------
  

 Cite this work as:
 Gaussian 03, Revision E.01,
 M. J. Frisch, G. W. Trucks, H. B. Schlegel, G. E. Scuseria, 
 M. A. Robb, J. R. Cheeseman, J. A. Montgomery, Jr., T. Vreven, 
 K. N. Kudin, J. C. Burant, J. M. Millam, S. S. Iyengar, J. Tomasi, 
 V. Barone, B. Mennucci, M. Cossi, G. Scalmani, N. Rega, 
 G. A. Petersson, H. Nakatsuji, M. Hada, M. Ehara, K. Toyota, 
 R. Fukuda, J. Hasegawa, M. Ishida, T. Nakajima, Y. Honda, O. Kitao, 
 H. Nakai, M. Klene, X. Li, J. E. Knox, H. P. Hratchian, J. B. Cross, 
 V. Bakken, C. Adamo, J. Jaramillo, R. Gomperts, R. E. Stratmann, 
 O. Yazyev, A. J. Austin, R. Cammi, C. Pomelli, J. W. Ochterski, 
 P. Y. Ayala, K. Morokuma, G. A. Voth, P. Salvador, J. J. Dannenberg, 
 V. G. Zakrzewski, S. Dapprich, A. D. Daniels, M. C. Strain, 
 O. Farkas, D. K. Malick, A. D. Rabuck, K. Raghavachari, 
 J. B. Foresman, J. V. Ortiz, Q. Cui, A. G. Baboul, S. Clifford, 
 J. Cioslowski, B. B. Stefanov, G. Liu, A. Liashenko, P. Piskorz, 
 I. Komaromi, R. L. Martin, D. J. Fox, T. Keith, M. A. Al-Laham, 
 C. Y. Peng, A. Nanayakkara, M. Challacombe, P. M. W. Gill, 
 B. Johnson, W. Chen, M. W. Wong, C. Gonzalez, and J. A. Pople, 
 Gaussian, Inc., Wallingford CT, 2004.
 
 ******************************************
 Gaussian 03:  EM64T-G03RevE.01 11-Sep-2007
                12-Jun-2015 
 ******************************************
 %nproc=2
 Will use up to    2 processors via shared memory.
 Default route:  MP2=Direct MaxDisk=2000MB
 ----------------------------------------------------
 # b3lyp/6-31+G(d,p) int=ultrafine pop=(ReadRadii,MK)
 ----------------------------------------------------

 Warning!  SCF SP cutoffs with diffuse functions may be unreliable.
 Consider SCF=Tight

 1/38=1/1;
 2/17=6,18=5,40=1/2;
 3/5=1,6=6,7=111,11=2,16=1,25=1,30=1,74=-5,75=5/1,2,3;
 4//1;
 5/5=2,32=1,38=5/2;
 6/7=2,8=2,9=2,10=2,15=8,20=101,28=1/1,2;
 99/5=1,9=1/99;
 ------------------------------------
 Ca3PO4_64.mol2c_plusQ.z51479.zip.xyz
 ------------------------------------
 Symbolic Z-matrix:
 Charge =  1 Multiplicity = 1
 O                    -0.13628  -1.47493   0.92103 
 O                    -1.20861   0.85475   0.9225 
 O                     1.3447    0.61816   0.92324 
 O                    -0.0003    0.00091  -1.7118 
 P                     0.00017  -0.00143   1.71771 
 Ca                   -1.76788  -0.81282  -0.57028 
 Ca                    0.1796    1.93794  -0.56908 
 Ca                    1.58835  -1.12361  -0.57091 
 
                          Input orientation:                          
 ---------------------------------------------------------------------
 Center     Atomic     Atomic              Coordinates (Angstroms)
 Number     Number      Type              X           Y           Z
 ---------------------------------------------------------------------
    1          8             0       -0.136280   -1.474930    0.921030
    2          8             0       -1.208610    0.854750    0.922500
    3          8             0        1.344700    0.618160    0.923240
    4          8             0       -0.000300    0.000910   -1.711800
    5         15             0        0.000170   -0.001430    1.717710
    6         20             0       -1.767880   -0.812820   -0.570280
    7         20             0        0.179600    1.937940   -0.569080
    8         20             0        1.588350   -1.123610   -0.570910
 ---------------------------------------------------------------------
                    Distance matrix (angstroms):
                    1          2          3          4          5
     1  O    0.000000
     2  O    2.564625   0.000000
     3  O    2.564046   2.564248   0.000000
     4  O    3.021322   3.021356   3.022161   0.000000
     5  P    1.680631   1.681235   1.680130   3.429511   0.000000
     6  Ca   2.307491   2.306938   3.737173   2.256006   3.003207
     7  Ca   3.737364   2.307648   2.307877   2.256160   3.003791
     8  Ca   2.307306   3.737267   2.307729   2.256099   3.003229
                    6          7          8
     6  Ca   0.000000
     7  Ca   3.370365   0.000000
     8  Ca   3.370589   3.370114   0.000000
 Stoichiometry    Ca3O4P(1+)
 Framework group  C1[X(Ca3O4P)]
 Deg. of freedom    18
 Full point group                 C1
 Largest Abelian subgroup         C1      NOp   1
 Largest concise Abelian subgroup C1      NOp   1
                         Standard orientation:                         
 ---------------------------------------------------------------------
 Center     Atomic     Atomic              Coordinates (Angstroms)
 Number     Number      Type              X           Y           Z
 ---------------------------------------------------------------------
    1          8             0       -0.145789   -1.474019    0.921030
    2          8             0       -1.203073    0.862527    0.922500
    3          8             0        1.348658    0.609477    0.923240
    4          8             0       -0.000294    0.000913   -1.711800
    5         15             0        0.000161   -0.001430    1.717710
    6         20             0       -1.773085   -0.801402   -0.570280
    7         20             0        0.192093    1.936743   -0.569080
    8         20             0        1.581071   -1.133828   -0.570910
 ---------------------------------------------------------------------
 Rotational constants (GHZ):      1.0157258      1.0156052      0.9038759
 Standard basis: 6-31+G(d,p) (6D, 7F)
 There are   180 symmetry adapted basis functions of A   symmetry.
 Integral buffers will be    131072 words long.
 Raffenetti 2 integral format.
 Two-electron integral symmetry is turned on.
   180 basis functions,   424 primitive gaussians,   180 cartesian basis functions
    53 alpha electrons       53 beta electrons
       nuclear repulsion energy       952.8053944970 Hartrees.
 NAtoms=    8 NActive=    8 NUniq=    8 SFac= 7.50D-01 NAtFMM=   80 NAOKFM=F Big=F
 One-electron integrals computed using PRISM.
 NBasis=   180 RedAO= T  NBF=   180
 NBsUse=   180 1.00D-06 NBFU=   180
 Harris functional with IExCor=  402 diagonalized for initial guess.
 ExpMin= 7.10D-03 ExpMax= 3.53D+04 ExpMxC= 5.30D+03 IAcc=3 IRadAn=         5 AccDes= 0.00D+00
 HarFok:  IExCor= 402 AccDes= 0.00D+00 IRadAn=         5 IDoV=1
 ScaDFX=  1.000000  1.000000  1.000000  1.000000
 Initial guess orbital symmetries:
       Occupied  (A) (A) (A) (A) (A) (A) (A) (A) (A) (A) (A) (A)
                 (A) (A) (A) (A) (A) (A) (A) (A) (A) (A) (A) (A)
                 (A) (A) (A) (A) (A) (A) (A) (A) (A) (A) (A) (A)
                 (A) (A) (A) (A) (A) (A) (A) (A) (A) (A) (A) (A)
                 (A) (A) (A) (A) (A)
       Virtual   (A) (A) (A) (A) (A) (A) (A) (A) (A) (A) (A) (A)
                 (A) (A) (A) (A) (A) (A) (A) (A) (A) (A) (A) (A)
                 (A) (A) (A) (A) (A) (A) (A) (A) (A) (A) (A) (A)
                 (A) (A) (A) (A) (A) (A) (A) (A) (A) (A) (A) (A)
                 (A) (A) (A) (A) (A) (A) (A) (A) (A) (A) (A) (A)
                 (A) (A) (A) (A) (A) (A) (A) (A) (A) (A) (A) (A)
                 (A) (A) (A) (A) (A) (A) (A) (A) (A) (A) (A) (A)
                 (A) (A) (A) (A) (A) (A) (A) (A) (A) (A) (A) (A)
                 (A) (A) (A) (A) (A) (A) (A) (A) (A) (A) (A) (A)
                 (A) (A) (A) (A) (A) (A) (A) (A) (A) (A) (A) (A)
                 (A) (A) (A) (A) (A) (A) (A)
 The electronic state of the initial guess is 1-A.
 Requested convergence on RMS density matrix=1.00D-04 within 128 cycles.
 Requested convergence on MAX density matrix=1.00D-02.
 Requested convergence on             energy=1.00D-02.
 No special actions if energy rises.
 SCF Done:  E(RB+HF-LYP) =  -2675.07103709     A.U. after    8 cycles
             Convg  =    0.8223D-04             -V/T =  2.0028
             S**2   =   0.0000

 **********************************************************************

            Population analysis using the SCF density.

 **********************************************************************

 Orbital symmetries:
       Occupied  (A) (A) (A) (A) (A) (A) (A) (A) (A) (A) (A) (A)
                 (A) (A) (A) (A) (A) (A) (A) (A) (A) (A) (A) (A)
                 (A) (A) (A) (A) (A) (A) (A) (A) (A) (A) (A) (A)
                 (A) (A) (A) (A) (A) (A) (A) (A) (A) (A) (A) (A)
                 (A) (A) (A) (A) (A)
       Virtual   (A) (A) (A) (A) (A) (A) (A) (A) (A) (A) (A) (A)
                 (A) (A) (A) (A) (A) (A) (A) (A) (A) (A) (A) (A)
                 (A) (A) (A) (A) (A) (A) (A) (A) (A) (A) (A) (A)
                 (A) (A) (A) (A) (A) (A) (A) (A) (A) (A) (A) (A)
                 (A) (A) (A) (A) (A) (A) (A) (A) (A) (A) (A) (A)
                 (A) (A) (A) (A) (A) (A) (A) (A) (A) (A) (A) (A)
                 (A) (A) (A) (A) (A) (A) (A) (A) (A) (A) (A) (A)
                 (A) (A) (A) (A) (A) (A) (A) (A) (A) (A) (A) (A)
                 (A) (A) (A) (A) (A) (A) (A) (A) (A) (A) (A) (A)
                 (A) (A) (A) (A) (A) (A) (A) (A) (A) (A) (A) (A)
                 (A) (A) (A) (A) (A) (A) (A)
 The electronic state is 1-A.
 Alpha  occ. eigenvalues -- -145.49641-145.49636-145.49623 -77.25048 -19.21268
 Alpha  occ. eigenvalues --  -19.21216 -19.21178 -19.15934 -15.56475 -15.56472
 Alpha  occ. eigenvalues --  -15.56459 -12.69672 -12.69671 -12.69657 -12.69650
 Alpha  occ. eigenvalues --  -12.69648 -12.69635 -12.69602 -12.69601 -12.69588
 Alpha  occ. eigenvalues --   -6.70079  -4.86428  -4.86428  -4.85891  -1.93821
 Alpha  occ. eigenvalues --   -1.93740  -1.93731  -1.22376  -1.21696  -1.21690
 Alpha  occ. eigenvalues --   -1.21304  -1.21136  -1.21064  -1.21059  -1.20643
 Alpha  occ. eigenvalues --   -1.20635  -1.06769  -1.00380  -1.00342  -0.90933
 Alpha  occ. eigenvalues --   -0.62640  -0.50539  -0.50527  -0.47967  -0.43364
 Alpha  occ. eigenvalues --   -0.43359  -0.38355  -0.38334  -0.38179  -0.36132
 Alpha  occ. eigenvalues --   -0.36127  -0.34584  -0.30850
 Alpha virt. eigenvalues --   -0.19948  -0.18028  -0.18023  -0.12557  -0.12550
 Alpha virt. eigenvalues --   -0.10893  -0.09478  -0.09476  -0.08338  -0.07771
 Alpha virt. eigenvalues --   -0.06545  -0.06113  -0.06113  -0.04764  -0.04713
 Alpha virt. eigenvalues --   -0.04712  -0.04672  -0.04471  -0.04470  -0.04004
 Alpha virt. eigenvalues --   -0.04002  -0.03231  -0.02943  -0.02942  -0.02356
 Alpha virt. eigenvalues --   -0.02353  -0.00865   0.01029   0.02177   0.02618
 Alpha virt. eigenvalues --    0.02619   0.04576   0.04577   0.05229   0.06005
 Alpha virt. eigenvalues --    0.06007   0.06294   0.06295   0.07292   0.07296
 Alpha virt. eigenvalues --    0.07382   0.07661   0.07672   0.07824   0.08476
 Alpha virt. eigenvalues --    0.10683   0.10689   0.11342   0.11804   0.13668
 Alpha virt. eigenvalues --    0.15681   0.15685   0.19892   0.19895   0.20376
 Alpha virt. eigenvalues --    0.22086   0.22097   0.23495   0.23995   0.25322
 Alpha virt. eigenvalues --    0.25965   0.25970   0.30039   0.31452   0.31461
 Alpha virt. eigenvalues --    0.35746   0.36005   0.36012   0.37872   0.39085
 Alpha virt. eigenvalues --    0.39098   0.39782   0.45833   0.45846   0.53634
 Alpha virt. eigenvalues --    0.53640   0.55847   0.63375   0.63382   0.67694
 Alpha virt. eigenvalues --    0.82904   0.86968   0.86976   0.94119   0.94148
 Alpha virt. eigenvalues --    1.14557   1.16755   1.16767   1.18035   1.20796
 Alpha virt. eigenvalues --    1.21961   1.21978   1.23405   1.23412   1.28213
 Alpha virt. eigenvalues --    1.34169   1.34194   1.36428   1.54461   1.54477
 Alpha virt. eigenvalues --    1.57773   1.68383   1.71623   1.73137   1.73159
 Alpha virt. eigenvalues --    1.77478   1.77488   1.87080   1.87373   1.87388
 Alpha virt. eigenvalues --    1.88079   1.92088   1.92093   1.93353   1.98446
 Alpha virt. eigenvalues --    1.98451   2.03029   2.03046   2.14819   2.38236
 Alpha virt. eigenvalues --    2.55174   2.55258   3.54382   4.05637   4.14273
 Alpha virt. eigenvalues --    4.14307   4.31247
          Condensed to atoms (all electrons):
              1          2          3          4          5          6
     1  O    8.966158   0.058751   0.059007   0.023986  -0.201651   0.059892
     2  O    0.058751   8.965474   0.058854   0.023971  -0.201101   0.059990
     3  O    0.059007   0.058854   8.967304   0.024001  -0.202254   0.006298
     4  O    0.023986   0.023971   0.024001   8.852521  -0.040010   0.122067
     5  P   -0.201651  -0.201101  -0.202254  -0.040010  14.445393   0.033589
     6  Ca   0.059892   0.059990   0.006298   0.122067   0.033589  18.397001
     7  Ca   0.006149   0.059862   0.059669   0.122157   0.033889  -0.047585
     8  Ca   0.059794   0.006150   0.059688   0.122189   0.034065  -0.047705
              7          8
     1  O    0.006149   0.059794
     2  O    0.059862   0.006150
     3  O    0.059669   0.059688
     4  O    0.122157   0.122189
     5  P    0.033889   0.034065
     6  Ca  -0.047585  -0.047705
     7  Ca  18.396964  -0.047640
     8  Ca  -0.047640  18.397042
 Mulliken atomic charges:
              1
     1  O   -1.032085
     2  O   -1.031949
     3  O   -1.032567
     4  O   -1.250882
     5  P    1.098081
     6  Ca   1.416453
     7  Ca   1.416533
     8  Ca   1.416416
 Sum of Mulliken charges=   1.00000
 Atomic charges with hydrogens summed into heavy atoms:
              1
     1  O   -1.032085
     2  O   -1.031949
     3  O   -1.032567
     4  O   -1.250882
     5  P    1.098081
     6  Ca   1.416453
     7  Ca   1.416533
     8  Ca   1.416416
 Sum of Mulliken charges=   1.00000
 Electronic spatial extent (au):  <R**2>=  1509.9041
 Charge=     1.0000 electrons
 Dipole moment (field-independent basis, Debye):
    X=     0.0015    Y=     0.0083    Z=    -8.2279  Tot=     8.2279
 Quadrupole moment (field-independent basis, Debye-Ang):
   XX=   -40.0252   YY=   -40.0379   ZZ=   -90.0246
   XY=     0.0058   XZ=    -0.0111   YZ=     0.0225
 Traceless Quadrupole moment (field-independent basis, Debye-Ang):
   XX=    16.6707   YY=    16.6580   ZZ=   -33.3287
   XY=     0.0058   XZ=    -0.0111   YZ=     0.0225
 Octapole moment (field-independent basis, Debye-Ang**2):
  XXX=   -17.0935  YYY=    56.1411  ZZZ=    -1.7014  XYY=    17.1218
  XXY=   -56.0020  XXZ=   -46.6859  XZZ=     0.0081  YZZ=    -0.0509
  YYZ=   -46.6152  XYZ=     0.0166
 Hexadecapole moment (field-independent basis, Debye-Ang**3):
 XXXX=  -415.9919 YYYY=  -415.9567 ZZZZ=  -721.6439 XXXY=     0.0323
 XXXZ=     4.5003 YYYX=     0.0517 YYYZ=   -14.6556 ZZZX=    -0.0134
 ZZZY=     0.1285 XXYY=  -138.6951 XXZZ=  -187.5732 YYZZ=  -187.5802
 XXYZ=    14.7931 YYXZ=    -4.5181 ZZXY=    -0.0054
 N-N= 9.528053944970D+02 E-N=-8.230085148979D+03  KE= 2.667696065522D+03
 Merz-Kollman atomic radii used.
 Read replacement radii for each type of atom:
 Rad(20) =   1.188000000000D+00
 Atom Element Radius
    1     8    1.40
    2     8    1.40
    3     8    1.40
    4     8    1.40
    5    15    1.80
    6    20    1.19
    7    20    1.19
    8    20    1.19

 **********************************************************************

            Electrostatic Properties Using The SCF Density

 **********************************************************************

       Atomic Center    1 is at  -0.145789 -1.474019  0.921030
       Atomic Center    2 is at  -1.203073  0.862527  0.922500
       Atomic Center    3 is at   1.348658  0.609477  0.923240
       Atomic Center    4 is at  -0.000294  0.000913 -1.711800
       Atomic Center    5 is at   0.000161 -0.001430  1.717710
       Atomic Center    6 is at  -1.773085 -0.801402 -0.570280
       Atomic Center    7 is at   0.192093  1.936743 -0.569080
       Atomic Center    8 is at   1.581071 -1.133828 -0.570910
     670 points will be used for fitting atomic charges
 Fitting point charges to eletrostatic potential
 Charges from ESP fit, RMS=   0.00627 RRMS=   0.03839:
 Charge=   1.00000 Dipole=    -0.0276     0.0272    -8.4198 Tot=     8.4199
              1
     1  O   -0.942644
     2  O   -0.942625
     3  O   -0.945656
     4  O   -1.636814
     5  P    0.512759
     6  Ca   1.651705
     7  Ca   1.653381
     8  Ca   1.649893
 -----------------------------------------------------------------

              Electrostatic Properties (Atomic Units)

 -----------------------------------------------------------------
    Center     Electric         -------- Electric Field --------
               Potential          X             Y             Z
 -----------------------------------------------------------------
    1 Atom    -22.251124
    2 Atom    -22.250427
    3 Atom    -22.252162
    4 Atom    -22.290660
    5 Atom    -53.968060
    6 Atom    -80.043351
    7 Atom    -80.043260
    8 Atom    -80.043313
 -----------------------------------------------------------------
 1\1\GINC-N022\SP\RB3LYP\6-31+G(d,p)\Ca3O4P1(1+)\TIMN\12-Jun-2015\0\\# 
 b3lyp/6-31+G(d,p) int=ultrafine pop=(ReadRadii,MK)\\Ca3PO4_64.mol2c_pl
 usQ.z51479.zip.xyz\\1,1\O,0,-0.13628,-1.47493,0.92103\O,0,-1.20861,0.8
 5475,0.9225\O,0,1.3447,0.61816,0.92324\O,0,-0.0003,0.00091,-1.7118\P,0
 ,0.00017,-0.00143,1.71771\Ca,0,-1.76788,-0.81282,-0.57028\Ca,0,0.1796,
 1.93794,-0.56908\Ca,0,1.58835,-1.12361,-0.57091\\Version=EM64T-G03RevE
 .01\State=1-A\HF=-2675.0710371\RMSD=8.223e-05\Thermal=0.\Dipole=0.0005
 699,0.0032627,-3.2371188\PG=C01 [X(Ca3O4P1)]\\@


 THE SECRET OF SUCCESS IN LIFE IS TO EAT WHAT YOU LIKE, AND LET THE FOOD
 FIGHT IT OUT INSIDE YOU. -- FROM A FORTUNE COOKIE
 Job cpu time:  0 days  0 hours  1 minutes 42.5 seconds.
 File lengths (MBytes):  RWF=     32 Int=      0 D2E=      0 Chk=     11 Scr=      1
 Normal termination of Gaussian 03 at Fri Jun 12 17:44:33 2015.
