 Entering Gaussian System, Link 0=/home/timn/tmp/g03.e01/g03
 Input=Ca3PO4_54.mol2c_plusQ.z51468.zip.xyz.gjf
 Output=Ca3PO4_54.mol2c_plusQ.z51468.zip.xyz.out
 Initial command:
 /home/timn/tmp/g03.e01/l1.exe /home/timn/tmp/g03.e01/Gau-16394.inp -scrdir=/home/timn/tmp/g03.e01/
 Default is to use a total of   2 processors:
                                2 via shared-memory
                                1 via Linda
 Entering Link 1 = /home/timn/tmp/g03.e01/l1.exe PID=     16395.
  
 Copyright (c) 1988,1990,1992,1993,1995,1998,2003,2004,2007, Gaussian, Inc.
                  All Rights Reserved.
  
 This is the Gaussian(R) 03 program.  It is based on the
 the Gaussian(R) 98 system (copyright 1998, Gaussian, Inc.),
 the Gaussian(R) 94 system (copyright 1995, Gaussian, Inc.),
 the Gaussian 92(TM) system (copyright 1992, Gaussian, Inc.),
 the Gaussian 90(TM) system (copyright 1990, Gaussian, Inc.),
 the Gaussian 88(TM) system (copyright 1988, Gaussian, Inc.),
 the Gaussian 86(TM) system (copyright 1986, Carnegie Mellon
 University), and the Gaussian 82(TM) system (copyright 1983,
 Carnegie Mellon University). Gaussian is a federally registered
 trademark of Gaussian, Inc.
  
 This software contains proprietary and confidential information,
 including trade secrets, belonging to Gaussian, Inc.
  
 This software is provided under written license and may be
 used, copied, transmitted, or stored only in accord with that
 written license.
  
 The following legend is applicable only to US Government
 contracts under FAR:
  
                    RESTRICTED RIGHTS LEGEND
  
 Use, reproduction and disclosure by the US Government is
 subject to restrictions as set forth in subparagraphs (a)
 and (c) of the Commercial Computer Software - Restricted
 Rights clause in FAR 52.227-19.
  
 Gaussian, Inc.
 340 Quinnipiac St., Bldg. 40, Wallingford CT 06492
  
  
 ---------------------------------------------------------------
 Warning -- This program may not be used in any manner that
 competes with the business of Gaussian, Inc. or will provide
 assistance to any competitor of Gaussian, Inc.  The licensee
 of this program is prohibited from giving any competitor of
 Gaussian, Inc. access to this program.  By using this program,
 the user acknowledges that Gaussian, Inc. is engaged in the
 business of creating and licensing software in the field of
 computational chemistry and represents and warrants to the
 licensee that it is not a competitor of Gaussian, Inc. and that
 it will not use this program in any manner prohibited above.
 ---------------------------------------------------------------
  

 Cite this work as:
 Gaussian 03, Revision E.01,
 M. J. Frisch, G. W. Trucks, H. B. Schlegel, G. E. Scuseria, 
 M. A. Robb, J. R. Cheeseman, J. A. Montgomery, Jr., T. Vreven, 
 K. N. Kudin, J. C. Burant, J. M. Millam, S. S. Iyengar, J. Tomasi, 
 V. Barone, B. Mennucci, M. Cossi, G. Scalmani, N. Rega, 
 G. A. Petersson, H. Nakatsuji, M. Hada, M. Ehara, K. Toyota, 
 R. Fukuda, J. Hasegawa, M. Ishida, T. Nakajima, Y. Honda, O. Kitao, 
 H. Nakai, M. Klene, X. Li, J. E. Knox, H. P. Hratchian, J. B. Cross, 
 V. Bakken, C. Adamo, J. Jaramillo, R. Gomperts, R. E. Stratmann, 
 O. Yazyev, A. J. Austin, R. Cammi, C. Pomelli, J. W. Ochterski, 
 P. Y. Ayala, K. Morokuma, G. A. Voth, P. Salvador, J. J. Dannenberg, 
 V. G. Zakrzewski, S. Dapprich, A. D. Daniels, M. C. Strain, 
 O. Farkas, D. K. Malick, A. D. Rabuck, K. Raghavachari, 
 J. B. Foresman, J. V. Ortiz, Q. Cui, A. G. Baboul, S. Clifford, 
 J. Cioslowski, B. B. Stefanov, G. Liu, A. Liashenko, P. Piskorz, 
 I. Komaromi, R. L. Martin, D. J. Fox, T. Keith, M. A. Al-Laham, 
 C. Y. Peng, A. Nanayakkara, M. Challacombe, P. M. W. Gill, 
 B. Johnson, W. Chen, M. W. Wong, C. Gonzalez, and J. A. Pople, 
 Gaussian, Inc., Wallingford CT, 2004.
 
 ******************************************
 Gaussian 03:  EM64T-G03RevE.01 11-Sep-2007
                12-Jun-2015 
 ******************************************
 %nproc=2
 Will use up to    2 processors via shared memory.
 Default route:  MP2=Direct MaxDisk=2000MB
 ----------------------------------------------------
 # b3lyp/6-31+G(d,p) int=ultrafine pop=(ReadRadii,MK)
 ----------------------------------------------------

 Warning!  SCF SP cutoffs with diffuse functions may be unreliable.
 Consider SCF=Tight

 1/38=1/1;
 2/17=6,18=5,40=1/2;
 3/5=1,6=6,7=111,11=2,16=1,25=1,30=1,74=-5,75=5/1,2,3;
 4//1;
 5/5=2,32=1,38=5/2;
 6/7=2,8=2,9=2,10=2,15=8,20=101,28=1/1,2;
 99/5=1,9=1/99;
 ------------------------------------
 Ca3PO4_54.mol2c_plusQ.z51468.zip.xyz
 ------------------------------------
 Symbolic Z-matrix:
 Charge =  1 Multiplicity = 1
 O                    -1.56537   0.97761   0.00088 
 O                     1.12237  -0.45037   0.77898 
 O                     1.12201  -0.44997  -0.77874 
 O                    -3.07018  -0.98012  -0.0013 
 P                    -3.07683   0.55846   0.00022 
 Ca                    0.66189   1.78826  -0.00024 
 Ca                    3.38038  -0.36522  -0.00011 
 Ca                   -0.77818  -1.48074   0.00026 
 
                          Input orientation:                          
 ---------------------------------------------------------------------
 Center     Atomic     Atomic              Coordinates (Angstroms)
 Number     Number      Type              X           Y           Z
 ---------------------------------------------------------------------
    1          8             0       -1.565370    0.977610    0.000880
    2          8             0        1.122370   -0.450370    0.778980
    3          8             0        1.122010   -0.449970   -0.778740
    4          8             0       -3.070180   -0.980120   -0.001300
    5         15             0       -3.076830    0.558460    0.000220
    6         20             0        0.661890    1.788260   -0.000240
    7         20             0        3.380380   -0.365220   -0.000110
    8         20             0       -0.778180   -1.480740    0.000260
 ---------------------------------------------------------------------
                    Distance matrix (angstroms):
                    1          2          3          4          5
     1  O    0.000000
     2  O    3.141419   0.000000
     3  O    3.141306   1.557720   0.000000
     4  O    2.469244   4.297319   4.296502   0.000000
     5  P    1.568502   4.388335   4.387934   1.538595   0.000000
     6  Ca   2.370199   2.414682   2.414010   4.646749   3.935789
     7  Ca   5.124806   2.390155   2.390331   6.479802   6.522940
     8  Ca   2.581308   2.297859   2.297836   2.346036   3.072805
                    6          7          8
     6  Ca   0.000000
     7  Ca   3.468092   0.000000
     8  Ca   3.572137   4.305579   0.000000
 Stoichiometry    Ca3O4P(1+)
 Framework group  C1[X(Ca3O4P)]
 Deg. of freedom    18
 Full point group                 C1
 Largest Abelian subgroup         C1      NOp   1
 Largest concise Abelian subgroup C1      NOp   1
                         Standard orientation:                         
 ---------------------------------------------------------------------
 Center     Atomic     Atomic              Coordinates (Angstroms)
 Number     Number      Type              X           Y           Z
 ---------------------------------------------------------------------
    1          8             0       -1.565370    0.977609    0.000879
    2          8             0        1.122370   -0.450371    0.778979
    3          8             0        1.122010   -0.449971   -0.778741
    4          8             0       -3.070180   -0.980120   -0.001301
    5         15             0       -3.076830    0.558460    0.000219
    6         20             0        0.661891    1.788259   -0.000241
    7         20             0        3.380380   -0.365222   -0.000111
    8         20             0       -0.778180   -1.480741    0.000259
 ---------------------------------------------------------------------
 Rotational constants (GHZ):      1.7612540      0.4853834      0.3919713
 Standard basis: 6-31+G(d,p) (6D, 7F)
 There are   180 symmetry adapted basis functions of A   symmetry.
 Integral buffers will be    131072 words long.
 Raffenetti 2 integral format.
 Two-electron integral symmetry is turned on.
   180 basis functions,   424 primitive gaussians,   180 cartesian basis functions
    53 alpha electrons       53 beta electrons
       nuclear repulsion energy       836.3697874469 Hartrees.
 NAtoms=    8 NActive=    8 NUniq=    8 SFac= 7.50D-01 NAtFMM=   80 NAOKFM=F Big=F
 One-electron integrals computed using PRISM.
 NBasis=   180 RedAO= T  NBF=   180
 NBsUse=   180 1.00D-06 NBFU=   180
 Harris functional with IExCor=  402 diagonalized for initial guess.
 ExpMin= 7.10D-03 ExpMax= 3.53D+04 ExpMxC= 5.30D+03 IAcc=3 IRadAn=         5 AccDes= 0.00D+00
 HarFok:  IExCor= 402 AccDes= 0.00D+00 IRadAn=         5 IDoV=1
 ScaDFX=  1.000000  1.000000  1.000000  1.000000
 Initial guess orbital symmetries:
       Occupied  (A) (A) (A) (A) (A) (A) (A) (A) (A) (A) (A) (A)
                 (A) (A) (A) (A) (A) (A) (A) (A) (A) (A) (A) (A)
                 (A) (A) (A) (A) (A) (A) (A) (A) (A) (A) (A) (A)
                 (A) (A) (A) (A) (A) (A) (A) (A) (A) (A) (A) (A)
                 (A) (A) (A) (A) (A)
       Virtual   (A) (A) (A) (A) (A) (A) (A) (A) (A) (A) (A) (A)
                 (A) (A) (A) (A) (A) (A) (A) (A) (A) (A) (A) (A)
                 (A) (A) (A) (A) (A) (A) (A) (A) (A) (A) (A) (A)
                 (A) (A) (A) (A) (A) (A) (A) (A) (A) (A) (A) (A)
                 (A) (A) (A) (A) (A) (A) (A) (A) (A) (A) (A) (A)
                 (A) (A) (A) (A) (A) (A) (A) (A) (A) (A) (A) (A)
                 (A) (A) (A) (A) (A) (A) (A) (A) (A) (A) (A) (A)
                 (A) (A) (A) (A) (A) (A) (A) (A) (A) (A) (A) (A)
                 (A) (A) (A) (A) (A) (A) (A) (A) (A) (A) (A) (A)
                 (A) (A) (A) (A) (A) (A) (A) (A) (A) (A) (A) (A)
                 (A) (A) (A) (A) (A) (A) (A)
 The electronic state of the initial guess is 1-A.
 Requested convergence on RMS density matrix=1.00D-04 within 128 cycles.
 Requested convergence on MAX density matrix=1.00D-02.
 Requested convergence on             energy=1.00D-02.
 No special actions if energy rises.
 EnCoef did    10 forward-backward iterations
 EnCoef did     6 forward-backward iterations
 EnCoef did     1 forward-backward iterations
 SCF Done:  E(RB+HF-LYP) =  -2674.91831217     A.U. after   12 cycles
             Convg  =    0.9090D-04             -V/T =  2.0027
             S**2   =   0.0000

 **********************************************************************

            Population analysis using the SCF density.

 **********************************************************************

 Orbital symmetries:
       Occupied  (A) (A) (A) (A) (A) (A) (A) (A) (A) (A) (A) (A)
                 (A) (A) (A) (A) (A) (A) (A) (A) (A) (A) (A) (A)
                 (A) (A) (A) (A) (A) (A) (A) (A) (A) (A) (A) (A)
                 (A) (A) (A) (A) (A) (A) (A) (A) (A) (A) (A) (A)
                 (A) (A) (A) (A) (A)
       Virtual   (A) (A) (A) (A) (A) (A) (A) (A) (A) (A) (A) (A)
                 (A) (A) (A) (A) (A) (A) (A) (A) (A) (A) (A) (A)
                 (A) (A) (A) (A) (A) (A) (A) (A) (A) (A) (A) (A)
                 (A) (A) (A) (A) (A) (A) (A) (A) (A) (A) (A) (A)
                 (A) (A) (A) (A) (A) (A) (A) (A) (A) (A) (A) (A)
                 (A) (A) (A) (A) (A) (A) (A) (A) (A) (A) (A) (A)
                 (A) (A) (A) (A) (A) (A) (A) (A) (A) (A) (A) (A)
                 (A) (A) (A) (A) (A) (A) (A) (A) (A) (A) (A) (A)
                 (A) (A) (A) (A) (A) (A) (A) (A) (A) (A) (A) (A)
                 (A) (A) (A) (A) (A) (A) (A) (A) (A) (A) (A) (A)
                 (A) (A) (A) (A) (A) (A) (A)
 The electronic state is 1-A.
 Alpha  occ. eigenvalues -- -145.53436-145.51421-145.50729 -77.31502 -19.29652
 Alpha  occ. eigenvalues --  -19.29201 -19.29194 -19.28812 -15.60290 -15.58310
 Alpha  occ. eigenvalues --  -15.57682 -12.73520 -12.73517 -12.73363 -12.71517
 Alpha  occ. eigenvalues --  -12.71473 -12.71437 -12.70877 -12.70850 -12.70784
 Alpha  occ. eigenvalues --   -6.77094  -4.93525  -4.93302  -4.92878  -1.97444
 Alpha  occ. eigenvalues --   -1.95436  -1.94745  -1.25578  -1.25270  -1.25103
 Alpha  occ. eigenvalues --   -1.23250  -1.22953  -1.22834  -1.22135  -1.22102
 Alpha  occ. eigenvalues --   -1.22079  -1.15587  -1.12511  -1.09595  -0.92878
 Alpha  occ. eigenvalues --   -0.68772  -0.57749  -0.55039  -0.54192  -0.52603
 Alpha  occ. eigenvalues --   -0.52055  -0.51158  -0.46639  -0.45186  -0.42509
 Alpha  occ. eigenvalues --   -0.40161  -0.38625  -0.25349
 Alpha virt. eigenvalues --   -0.21378  -0.19576  -0.19322  -0.16488  -0.13938
 Alpha virt. eigenvalues --   -0.12055  -0.12044  -0.11081  -0.10763  -0.10641
 Alpha virt. eigenvalues --   -0.09525  -0.07754  -0.07581  -0.07279  -0.06563
 Alpha virt. eigenvalues --   -0.06114  -0.05855  -0.05445  -0.04945  -0.04822
 Alpha virt. eigenvalues --   -0.04647  -0.04640  -0.04442  -0.03946  -0.03461
 Alpha virt. eigenvalues --   -0.03317  -0.03295  -0.03065  -0.02228  -0.00938
 Alpha virt. eigenvalues --    0.01279   0.01377   0.02097   0.02741   0.03217
 Alpha virt. eigenvalues --    0.03329   0.03464   0.04745   0.05069   0.05198
 Alpha virt. eigenvalues --    0.05326   0.06040   0.06145   0.06546   0.07198
 Alpha virt. eigenvalues --    0.07383   0.07585   0.08199   0.08632   0.09966
 Alpha virt. eigenvalues --    0.10983   0.11595   0.13069   0.14058   0.14412
 Alpha virt. eigenvalues --    0.15414   0.15767   0.16756   0.17579   0.20646
 Alpha virt. eigenvalues --    0.20986   0.22546   0.23508   0.23829   0.27956
 Alpha virt. eigenvalues --    0.29628   0.30813   0.31234   0.32587   0.33688
 Alpha virt. eigenvalues --    0.34474   0.36906   0.38666   0.43541   0.44905
 Alpha virt. eigenvalues --    0.46805   0.51107   0.54090   0.56442   0.56697
 Alpha virt. eigenvalues --    0.61597   0.64195   0.79463   0.87952   0.94396
 Alpha virt. eigenvalues --    1.01905   1.04074   1.06851   1.09535   1.09635
 Alpha virt. eigenvalues --    1.11001   1.11494   1.12761   1.15739   1.19780
 Alpha virt. eigenvalues --    1.20458   1.25958   1.32460   1.37775   1.44417
 Alpha virt. eigenvalues --    1.45500   1.46770   1.55124   1.60160   1.65626
 Alpha virt. eigenvalues --    1.66329   1.68654   1.71524   1.73348   1.76010
 Alpha virt. eigenvalues --    1.79104   1.81558   1.82790   1.83582   1.86683
 Alpha virt. eigenvalues --    1.90943   2.04034   2.14678   2.15744   2.50474
 Alpha virt. eigenvalues --    2.67519   2.98815   3.38761   3.86024   3.89166
 Alpha virt. eigenvalues --    4.00414   4.06523
          Condensed to atoms (all electrons):
              1          2          3          4          5          6
     1  O    8.954710   0.009084   0.009138  -0.082703  -0.147680  -0.020570
     2  O    0.009084   8.676217   0.017894  -0.001148  -0.010054  -0.087456
     3  O    0.009138   0.017894   8.676315  -0.001142  -0.010047  -0.087542
     4  O   -0.082703  -0.001148  -0.001142   8.535801   0.117741  -0.000203
     5  P   -0.147680  -0.010054  -0.010047   0.117741  14.379823   0.032660
     6  Ca  -0.020570  -0.087456  -0.087542  -0.000203   0.032660  18.944556
     7  Ca  -0.013002  -0.096098  -0.096212   0.002032   0.000603   0.339001
     8  Ca   0.019637   0.057347   0.057296   0.071147  -0.008530   0.062711
              7          8
     1  O   -0.013002   0.019637
     2  O   -0.096098   0.057347
     3  O   -0.096212   0.057296
     4  O    0.002032   0.071147
     5  P    0.000603  -0.008530
     6  Ca   0.339001   0.062711
     7  Ca  19.119311   0.065715
     8  Ca   0.065715  18.314028
 Mulliken atomic charges:
              1
     1  O   -0.728614
     2  O   -0.565786
     3  O   -0.565699
     4  O   -0.641525
     5  P    0.645484
     6  Ca   0.816842
     7  Ca   0.678650
     8  Ca   1.360648
 Sum of Mulliken charges=   1.00000
 Atomic charges with hydrogens summed into heavy atoms:
              1
     1  O   -0.728614
     2  O   -0.565786
     3  O   -0.565699
     4  O   -0.641525
     5  P    0.645484
     6  Ca   0.816842
     7  Ca   0.678650
     8  Ca   1.360648
 Sum of Mulliken charges=   1.00000
 Electronic spatial extent (au):  <R**2>=  2474.3780
 Charge=     1.0000 electrons
 Dipole moment (field-independent basis, Debye):
    X=     1.6460    Y=    -2.6737    Z=     0.0017  Tot=     3.1397
 Quadrupole moment (field-independent basis, Debye-Ang):
   XX=   -66.1648   YY=   -58.6671   ZZ=   -81.1582
   XY=    -6.3421   XZ=    -0.0093   YZ=    -0.0105
 Traceless Quadrupole moment (field-independent basis, Debye-Ang):
   XX=     2.4986   YY=     9.9962   ZZ=   -12.4948
   XY=    -6.3421   XZ=    -0.0093   YZ=    -0.0105
 Octapole moment (field-independent basis, Debye-Ang**2):
  XXX=    41.7780  YYY=   -34.1058  ZZZ=     0.0088  XYY=   -25.1191
  XXY=   -24.7525  XXZ=     0.0323  XZZ=   -26.4201  YZZ=    -8.4720
  YYZ=     0.0059  XYZ=     0.0275
 Hexadecapole moment (field-independent basis, Debye-Ang**3):
 XXXX= -2449.9782 YYYY=  -640.8207 ZZZZ=  -188.6951 XXXY=  -219.2964
 XXXZ=    -0.0663 YYYX=    -7.3578 YYYZ=    -0.0161 ZZZX=     0.0128
 ZZZY=    -0.0064 XXYY=  -625.3689 XXZZ=  -475.8539 YYZZ=  -150.8760
 XXYZ=    -0.0521 YYXZ=    -0.0034 ZZXY=    -6.6309
 N-N= 8.363697874469D+02 E-N=-7.992320189228D+03  KE= 2.667677510022D+03
 Merz-Kollman atomic radii used.
 Read replacement radii for each type of atom:
 Rad(20) =   1.188000000000D+00
 Atom Element Radius
    1     8    1.40
    2     8    1.40
    3     8    1.40
    4     8    1.40
    5    15    1.80
    6    20    1.19
    7    20    1.19
    8    20    1.19

 **********************************************************************

            Electrostatic Properties Using The SCF Density

 **********************************************************************

       Atomic Center    1 is at  -1.565370  0.977609  0.000879
       Atomic Center    2 is at   1.122370 -0.450371  0.778979
       Atomic Center    3 is at   1.122010 -0.449971 -0.778741
       Atomic Center    4 is at  -3.070180 -0.980120 -0.001301
       Atomic Center    5 is at  -3.076830  0.558460  0.000219
       Atomic Center    6 is at   0.661891  1.788259 -0.000241
       Atomic Center    7 is at   3.380380 -0.365222 -0.000111
       Atomic Center    8 is at  -0.778180 -1.480741  0.000259
     791 points will be used for fitting atomic charges
 Fitting point charges to eletrostatic potential
 Charges from ESP fit, RMS=   0.02377 RRMS=   0.15174:
 Charge=   1.00000 Dipole=     6.9718    -0.5174     0.0016 Tot=     6.9910
              1
     1  O   -0.140893
     2  O   -0.683671
     3  O   -0.683268
     4  O   -0.570648
     5  P    0.158201
     6  Ca   0.721302
     7  Ca   0.657307
     8  Ca   1.541669
 -----------------------------------------------------------------

              Electrostatic Properties (Atomic Units)

 -----------------------------------------------------------------
    Center     Electric         -------- Electric Field --------
               Potential          X             Y             Z
 -----------------------------------------------------------------
    1 Atom    -22.165227
    2 Atom    -22.180924
    3 Atom    -22.180807
    4 Atom    -22.175744
    5 Atom    -53.901402
    6 Atom    -80.026701
    7 Atom    -80.039824
    8 Atom    -80.005372
 -----------------------------------------------------------------
 1\1\GINC-N028\SP\RB3LYP\6-31+G(d,p)\Ca3O4P1(1+)\TIMN\12-Jun-2015\0\\# 
 b3lyp/6-31+G(d,p) int=ultrafine pop=(ReadRadii,MK)\\Ca3PO4_54.mol2c_pl
 usQ.z51468.zip.xyz\\1,1\O,0,-1.56537,0.97761,0.00088\O,0,1.12237,-0.45
 037,0.77898\O,0,1.12201,-0.44997,-0.77874\O,0,-3.07018,-0.98012,-0.001
 3\P,0,-3.07683,0.55846,0.00022\Ca,0,0.66189,1.78826,-0.00024\Ca,0,3.38
 038,-0.36522,-0.00011\Ca,0,-0.77818,-1.48074,0.00026\\Version=EM64T-G0
 3RevE.01\State=1-A\HF=-2674.9183122\RMSD=9.090e-05\Thermal=0.\Dipole=0
 .647573,-1.0519056,0.000663\PG=C01 [X(Ca3O4P1)]\\@


 Spring appears, and we are once more children.
                                  -- Anonymous
 Job cpu time:  0 days  0 hours  2 minutes 11.9 seconds.
 File lengths (MBytes):  RWF=     32 Int=      0 D2E=      0 Chk=     11 Scr=      1
 Normal termination of Gaussian 03 at Fri Jun 12 17:44:40 2015.
