 Entering Gaussian System, Link 0=/home/timn/tmp/g03.e01/g03
 Input=Ca3PO4_26.mol2_plusQ.z51437.zip.xyz.gjf
 Output=Ca3PO4_26.mol2_plusQ.z51437.zip.xyz.out
 Initial command:
 /home/timn/tmp/g03.e01/l1.exe /home/timn/tmp/g03.e01/Gau-13884.inp -scrdir=/home/timn/tmp/g03.e01/
 Default is to use a total of   2 processors:
                                2 via shared-memory
                                1 via Linda
 Entering Link 1 = /home/timn/tmp/g03.e01/l1.exe PID=     13885.
  
 Copyright (c) 1988,1990,1992,1993,1995,1998,2003,2004,2007, Gaussian, Inc.
                  All Rights Reserved.
  
 This is the Gaussian(R) 03 program.  It is based on the
 the Gaussian(R) 98 system (copyright 1998, Gaussian, Inc.),
 the Gaussian(R) 94 system (copyright 1995, Gaussian, Inc.),
 the Gaussian 92(TM) system (copyright 1992, Gaussian, Inc.),
 the Gaussian 90(TM) system (copyright 1990, Gaussian, Inc.),
 the Gaussian 88(TM) system (copyright 1988, Gaussian, Inc.),
 the Gaussian 86(TM) system (copyright 1986, Carnegie Mellon
 University), and the Gaussian 82(TM) system (copyright 1983,
 Carnegie Mellon University). Gaussian is a federally registered
 trademark of Gaussian, Inc.
  
 This software contains proprietary and confidential information,
 including trade secrets, belonging to Gaussian, Inc.
  
 This software is provided under written license and may be
 used, copied, transmitted, or stored only in accord with that
 written license.
  
 The following legend is applicable only to US Government
 contracts under FAR:
  
                    RESTRICTED RIGHTS LEGEND
  
 Use, reproduction and disclosure by the US Government is
 subject to restrictions as set forth in subparagraphs (a)
 and (c) of the Commercial Computer Software - Restricted
 Rights clause in FAR 52.227-19.
  
 Gaussian, Inc.
 340 Quinnipiac St., Bldg. 40, Wallingford CT 06492
  
  
 ---------------------------------------------------------------
 Warning -- This program may not be used in any manner that
 competes with the business of Gaussian, Inc. or will provide
 assistance to any competitor of Gaussian, Inc.  The licensee
 of this program is prohibited from giving any competitor of
 Gaussian, Inc. access to this program.  By using this program,
 the user acknowledges that Gaussian, Inc. is engaged in the
 business of creating and licensing software in the field of
 computational chemistry and represents and warrants to the
 licensee that it is not a competitor of Gaussian, Inc. and that
 it will not use this program in any manner prohibited above.
 ---------------------------------------------------------------
  

 Cite this work as:
 Gaussian 03, Revision E.01,
 M. J. Frisch, G. W. Trucks, H. B. Schlegel, G. E. Scuseria, 
 M. A. Robb, J. R. Cheeseman, J. A. Montgomery, Jr., T. Vreven, 
 K. N. Kudin, J. C. Burant, J. M. Millam, S. S. Iyengar, J. Tomasi, 
 V. Barone, B. Mennucci, M. Cossi, G. Scalmani, N. Rega, 
 G. A. Petersson, H. Nakatsuji, M. Hada, M. Ehara, K. Toyota, 
 R. Fukuda, J. Hasegawa, M. Ishida, T. Nakajima, Y. Honda, O. Kitao, 
 H. Nakai, M. Klene, X. Li, J. E. Knox, H. P. Hratchian, J. B. Cross, 
 V. Bakken, C. Adamo, J. Jaramillo, R. Gomperts, R. E. Stratmann, 
 O. Yazyev, A. J. Austin, R. Cammi, C. Pomelli, J. W. Ochterski, 
 P. Y. Ayala, K. Morokuma, G. A. Voth, P. Salvador, J. J. Dannenberg, 
 V. G. Zakrzewski, S. Dapprich, A. D. Daniels, M. C. Strain, 
 O. Farkas, D. K. Malick, A. D. Rabuck, K. Raghavachari, 
 J. B. Foresman, J. V. Ortiz, Q. Cui, A. G. Baboul, S. Clifford, 
 J. Cioslowski, B. B. Stefanov, G. Liu, A. Liashenko, P. Piskorz, 
 I. Komaromi, R. L. Martin, D. J. Fox, T. Keith, M. A. Al-Laham, 
 C. Y. Peng, A. Nanayakkara, M. Challacombe, P. M. W. Gill, 
 B. Johnson, W. Chen, M. W. Wong, C. Gonzalez, and J. A. Pople, 
 Gaussian, Inc., Wallingford CT, 2004.
 
 ******************************************
 Gaussian 03:  EM64T-G03RevE.01 11-Sep-2007
                12-Jun-2015 
 ******************************************
 %nproc=2
 Will use up to    2 processors via shared memory.
 Default route:  MP2=Direct MaxDisk=2000MB
 ----------------------------------------------------
 # b3lyp/6-31+G(d,p) int=ultrafine pop=(ReadRadii,MK)
 ----------------------------------------------------

 Warning!  SCF SP cutoffs with diffuse functions may be unreliable.
 Consider SCF=Tight

 1/38=1/1;
 2/17=6,18=5,40=1/2;
 3/5=1,6=6,7=111,11=2,16=1,25=1,30=1,74=-5,75=5/1,2,3;
 4//1;
 5/5=2,32=1,38=5/2;
 6/7=2,8=2,9=2,10=2,15=8,20=101,28=1/1,2;
 99/5=1,9=1/99;
 -----------------------------------
 Ca3PO4_26.mol2_plusQ.z51437.zip.xyz
 -----------------------------------
 Symbolic Z-matrix:
 Charge =  1 Multiplicity = 1
 O                     1.36316   0.57965   0.92187 
 O                    -0.18036  -1.46901   0.92294 
 O                    -1.18238   0.89219   0.92196 
 O                    -0.00019  -0.0014   -1.71185 
 P                     0.00032   0.00207   1.71804 
 Ca                   -1.79139  -0.76102  -0.56922 
 Ca                    1.55404  -1.17176  -0.56928 
 Ca                    0.23702   1.93065  -0.572 
 
                          Input orientation:                          
 ---------------------------------------------------------------------
 Center     Atomic     Atomic              Coordinates (Angstroms)
 Number     Number      Type              X           Y           Z
 ---------------------------------------------------------------------
    1          8             0        1.363160    0.579650    0.921870
    2          8             0       -0.180360   -1.469010    0.922940
    3          8             0       -1.182380    0.892190    0.921960
    4          8             0       -0.000190   -0.001400   -1.711850
    5         15             0        0.000320    0.002070    1.718040
    6         20             0       -1.791390   -0.761020   -0.569220
    7         20             0        1.554040   -1.171760   -0.569280
    8         20             0        0.237020    1.930650   -0.572000
 ---------------------------------------------------------------------
                    Distance matrix (angstroms):
                    1          2          3          4          5
     1  O    0.000000
     2  O    2.565046   0.000000
     3  O    2.564655   2.565017   0.000000
     4  O    3.022056   3.021334   3.022091   0.000000
     5  P    1.680720   1.681935   1.680725   3.429892   0.000000
     6  Ca   3.737905   2.307208   2.308163   2.256330   3.004012
     7  Ca   2.308116   2.307211   3.737871   2.256289   3.003957
     8  Ca   2.307605   3.737210   2.307599   2.255736   3.003287
                    6          7          8
     6  Ca   0.000000
     7  Ca   3.370550   0.000000
     8  Ca   3.370392   3.370385   0.000000
 Stoichiometry    Ca3O4P(1+)
 Framework group  C1[X(Ca3O4P)]
 Deg. of freedom    18
 Full point group                 C1
 Largest Abelian subgroup         C1      NOp   1
 Largest concise Abelian subgroup C1      NOp   1
                         Standard orientation:                         
 ---------------------------------------------------------------------
 Center     Atomic     Atomic              Coordinates (Angstroms)
 Number     Number      Type              X           Y           Z
 ---------------------------------------------------------------------
    1          8             0        1.374703    0.551715    0.921870
    2          8             0       -0.210298   -1.465023    0.922940
    3          8             0       -1.163929    0.916131    0.921960
    4          8             0       -0.000219   -0.001395   -1.711850
    5         15             0        0.000362    0.002064    1.718040
    6         20             0       -1.806546   -0.724308   -0.569220
    7         20             0        1.529807   -1.203225   -0.569280
    8         20             0        0.276365    1.925413   -0.572000
 ---------------------------------------------------------------------
 Rotational constants (GHZ):      1.0155015      1.0154837      0.9037587
 Standard basis: 6-31+G(d,p) (6D, 7F)
 There are   180 symmetry adapted basis functions of A   symmetry.
 Integral buffers will be    131072 words long.
 Raffenetti 2 integral format.
 Two-electron integral symmetry is turned on.
   180 basis functions,   424 primitive gaussians,   180 cartesian basis functions
    53 alpha electrons       53 beta electrons
       nuclear repulsion energy       952.7145174046 Hartrees.
 NAtoms=    8 NActive=    8 NUniq=    8 SFac= 7.50D-01 NAtFMM=   80 NAOKFM=F Big=F
 One-electron integrals computed using PRISM.
 NBasis=   180 RedAO= T  NBF=   180
 NBsUse=   180 1.00D-06 NBFU=   180
 Harris functional with IExCor=  402 diagonalized for initial guess.
 ExpMin= 7.10D-03 ExpMax= 3.53D+04 ExpMxC= 5.30D+03 IAcc=3 IRadAn=         5 AccDes= 0.00D+00
 HarFok:  IExCor= 402 AccDes= 0.00D+00 IRadAn=         5 IDoV=1
 ScaDFX=  1.000000  1.000000  1.000000  1.000000
 Initial guess orbital symmetries:
       Occupied  (A) (A) (A) (A) (A) (A) (A) (A) (A) (A) (A) (A)
                 (A) (A) (A) (A) (A) (A) (A) (A) (A) (A) (A) (A)
                 (A) (A) (A) (A) (A) (A) (A) (A) (A) (A) (A) (A)
                 (A) (A) (A) (A) (A) (A) (A) (A) (A) (A) (A) (A)
                 (A) (A) (A) (A) (A)
       Virtual   (A) (A) (A) (A) (A) (A) (A) (A) (A) (A) (A) (A)
                 (A) (A) (A) (A) (A) (A) (A) (A) (A) (A) (A) (A)
                 (A) (A) (A) (A) (A) (A) (A) (A) (A) (A) (A) (A)
                 (A) (A) (A) (A) (A) (A) (A) (A) (A) (A) (A) (A)
                 (A) (A) (A) (A) (A) (A) (A) (A) (A) (A) (A) (A)
                 (A) (A) (A) (A) (A) (A) (A) (A) (A) (A) (A) (A)
                 (A) (A) (A) (A) (A) (A) (A) (A) (A) (A) (A) (A)
                 (A) (A) (A) (A) (A) (A) (A) (A) (A) (A) (A) (A)
                 (A) (A) (A) (A) (A) (A) (A) (A) (A) (A) (A) (A)
                 (A) (A) (A) (A) (A) (A) (A) (A) (A) (A) (A) (A)
                 (A) (A) (A) (A) (A) (A) (A)
 The electronic state of the initial guess is 1-A.
 Requested convergence on RMS density matrix=1.00D-04 within 128 cycles.
 Requested convergence on MAX density matrix=1.00D-02.
 Requested convergence on             energy=1.00D-02.
 No special actions if energy rises.
 SCF Done:  E(RB+HF-LYP) =  -2675.07103777     A.U. after    8 cycles
             Convg  =    0.8200D-04             -V/T =  2.0028
             S**2   =   0.0000

 **********************************************************************

            Population analysis using the SCF density.

 **********************************************************************

 Orbital symmetries:
       Occupied  (A) (A) (A) (A) (A) (A) (A) (A) (A) (A) (A) (A)
                 (A) (A) (A) (A) (A) (A) (A) (A) (A) (A) (A) (A)
                 (A) (A) (A) (A) (A) (A) (A) (A) (A) (A) (A) (A)
                 (A) (A) (A) (A) (A) (A) (A) (A) (A) (A) (A) (A)
                 (A) (A) (A) (A) (A)
       Virtual   (A) (A) (A) (A) (A) (A) (A) (A) (A) (A) (A) (A)
                 (A) (A) (A) (A) (A) (A) (A) (A) (A) (A) (A) (A)
                 (A) (A) (A) (A) (A) (A) (A) (A) (A) (A) (A) (A)
                 (A) (A) (A) (A) (A) (A) (A) (A) (A) (A) (A) (A)
                 (A) (A) (A) (A) (A) (A) (A) (A) (A) (A) (A) (A)
                 (A) (A) (A) (A) (A) (A) (A) (A) (A) (A) (A) (A)
                 (A) (A) (A) (A) (A) (A) (A) (A) (A) (A) (A) (A)
                 (A) (A) (A) (A) (A) (A) (A) (A) (A) (A) (A) (A)
                 (A) (A) (A) (A) (A) (A) (A) (A) (A) (A) (A) (A)
                 (A) (A) (A) (A) (A) (A) (A) (A) (A) (A) (A) (A)
                 (A) (A) (A) (A) (A) (A) (A)
 The electronic state is 1-A.
 Alpha  occ. eigenvalues -- -145.49637-145.49632-145.49631 -77.25055 -19.21252
 Alpha  occ. eigenvalues --  -19.21251 -19.21160 -19.15932 -15.56471 -15.56467
 Alpha  occ. eigenvalues --  -15.56466 -12.69667 -12.69666 -12.69666 -12.69645
 Alpha  occ. eigenvalues --  -12.69644 -12.69642 -12.69597 -12.69597 -12.69596
 Alpha  occ. eigenvalues --   -6.70084  -4.86433  -4.86433  -4.85896  -1.93820
 Alpha  occ. eigenvalues --   -1.93735  -1.93735  -1.22373  -1.21692  -1.21691
 Alpha  occ. eigenvalues --   -1.21302  -1.21136  -1.21062  -1.21060  -1.20638
 Alpha  occ. eigenvalues --   -1.20638  -1.06753  -1.00374  -1.00327  -0.90930
 Alpha  occ. eigenvalues --   -0.62641  -0.50529  -0.50517  -0.47956  -0.43355
 Alpha  occ. eigenvalues --   -0.43352  -0.38353  -0.38326  -0.38175  -0.36129
 Alpha  occ. eigenvalues --   -0.36125  -0.34583  -0.30858
 Alpha virt. eigenvalues --   -0.19948  -0.18025  -0.18024  -0.12553  -0.12551
 Alpha virt. eigenvalues --   -0.10892  -0.09477  -0.09476  -0.08337  -0.07770
 Alpha virt. eigenvalues --   -0.06545  -0.06113  -0.06113  -0.04764  -0.04716
 Alpha virt. eigenvalues --   -0.04714  -0.04672  -0.04474  -0.04472  -0.04003
 Alpha virt. eigenvalues --   -0.04003  -0.03231  -0.02943  -0.02943  -0.02359
 Alpha virt. eigenvalues --   -0.02356  -0.00866   0.01028   0.02177   0.02618
 Alpha virt. eigenvalues --    0.02619   0.04575   0.04576   0.05229   0.06004
 Alpha virt. eigenvalues --    0.06005   0.06295   0.06295   0.07292   0.07297
 Alpha virt. eigenvalues --    0.07383   0.07666   0.07670   0.07824   0.08467
 Alpha virt. eigenvalues --    0.10687   0.10688   0.11333   0.11806   0.13662
 Alpha virt. eigenvalues --    0.15683   0.15683   0.19891   0.19893   0.20374
 Alpha virt. eigenvalues --    0.22088   0.22094   0.23486   0.23995   0.25321
 Alpha virt. eigenvalues --    0.25958   0.25971   0.30034   0.31451   0.31458
 Alpha virt. eigenvalues --    0.35747   0.36005   0.36008   0.37871   0.39075
 Alpha virt. eigenvalues --    0.39090   0.39780   0.45833   0.45834   0.53631
 Alpha virt. eigenvalues --    0.53634   0.55847   0.63370   0.63373   0.67682
 Alpha virt. eigenvalues --    0.82901   0.86955   0.86970   0.94090   0.94121
 Alpha virt. eigenvalues --    1.14558   1.16753   1.16771   1.18031   1.20795
 Alpha virt. eigenvalues --    1.21960   1.21985   1.23408   1.23417   1.28213
 Alpha virt. eigenvalues --    1.34156   1.34198   1.36436   1.54453   1.54480
 Alpha virt. eigenvalues --    1.57772   1.68384   1.71621   1.73136   1.73163
 Alpha virt. eigenvalues --    1.77476   1.77491   1.87085   1.87377   1.87387
 Alpha virt. eigenvalues --    1.88081   1.92069   1.92080   1.93330   1.98433
 Alpha virt. eigenvalues --    1.98450   2.03031   2.03033   2.14791   2.38158
 Alpha virt. eigenvalues --    2.55088   2.55193   3.54380   4.05632   4.14263
 Alpha virt. eigenvalues --    4.14314   4.31235
          Condensed to atoms (all electrons):
              1          2          3          4          5          6
     1  O    8.966299   0.058570   0.058833   0.023986  -0.201107   0.006250
     2  O    0.058570   8.964680   0.058567   0.023929  -0.200047   0.060005
     3  O    0.058833   0.058567   8.966312   0.023993  -0.201098   0.059795
     4  O    0.023986   0.023929   0.023993   8.852489  -0.039968   0.122124
     5  P   -0.201107  -0.200047  -0.201098  -0.039968  14.443002   0.033643
     6  Ca   0.006250   0.060005   0.059795   0.122124   0.033643  18.396804
     7  Ca   0.059811   0.060017   0.006256   0.122127   0.033641  -0.047545
     8  Ca   0.059716   0.006161   0.059715   0.122241   0.034062  -0.047706
              7          8
     1  O    0.059811   0.059716
     2  O    0.060017   0.006161
     3  O    0.006256   0.059715
     4  O    0.122127   0.122241
     5  P    0.033641   0.034062
     6  Ca  -0.047545  -0.047706
     7  Ca  18.396815  -0.047722
     8  Ca  -0.047722  18.397103
 Mulliken atomic charges:
              1
     1  O   -1.032358
     2  O   -1.031883
     3  O   -1.032373
     4  O   -1.250921
     5  P    1.097872
     6  Ca   1.416631
     7  Ca   1.416601
     8  Ca   1.416431
 Sum of Mulliken charges=   1.00000
 Atomic charges with hydrogens summed into heavy atoms:
              1
     1  O   -1.032358
     2  O   -1.031883
     3  O   -1.032373
     4  O   -1.250921
     5  P    1.097872
     6  Ca   1.416631
     7  Ca   1.416601
     8  Ca   1.416431
 Sum of Mulliken charges=   1.00000
 Electronic spatial extent (au):  <R**2>=  1510.1185
 Charge=     1.0000 electrons
 Dipole moment (field-independent basis, Debye):
    X=    -0.0024    Y=    -0.0134    Z=    -8.2284  Tot=     8.2284
 Quadrupole moment (field-independent basis, Debye-Ang):
   XX=   -40.0297   YY=   -40.0430   ZZ=   -90.0153
   XY=    -0.0019   XZ=    -0.0071   YZ=    -0.0455
 Traceless Quadrupole moment (field-independent basis, Debye-Ang):
   XX=    16.6663   YY=    16.6530   ZZ=   -33.3193
   XY=    -0.0019   XZ=    -0.0071   YZ=    -0.0455
 Octapole moment (field-independent basis, Debye-Ang**2):
  XXX=   -24.3357  YYY=    53.1786  ZZZ=    -1.6845  XYY=    24.3005
  XXY=   -53.3744  XXZ=   -46.6149  XZZ=     0.0118  YZZ=     0.0717
  YYZ=   -46.7224  XYZ=    -0.0146
 Hexadecapole moment (field-independent basis, Debye-Ang**3):
 XXXX=  -415.9950 YYYY=  -416.2377 ZZZZ=  -721.6792 XXXY=     0.0071
 XXXZ=     6.3744 YYYX=    -0.0426 YYYZ=   -14.2080 ZZZX=    -0.0316
 ZZZY=    -0.1861 XXYY=  -138.6573 XXZZ=  -187.6289 YYZZ=  -187.5767
 XXYZ=    13.9878 YYXZ=    -6.4101 ZZXY=     0.0072
 N-N= 9.527145174046D+02 E-N=-8.229900429128D+03  KE= 2.667692997002D+03
 Merz-Kollman atomic radii used.
 Read replacement radii for each type of atom:
 Rad(20) =   1.188000000000D+00
 Atom Element Radius
    1     8    1.40
    2     8    1.40
    3     8    1.40
    4     8    1.40
    5    15    1.80
    6    20    1.19
    7    20    1.19
    8    20    1.19

 **********************************************************************

            Electrostatic Properties Using The SCF Density

 **********************************************************************

       Atomic Center    1 is at   1.374703  0.551715  0.921870
       Atomic Center    2 is at  -0.210298 -1.465023  0.922940
       Atomic Center    3 is at  -1.163929  0.916131  0.921960
       Atomic Center    4 is at  -0.000219 -0.001395 -1.711850
       Atomic Center    5 is at   0.000362  0.002064  1.718040
       Atomic Center    6 is at  -1.806546 -0.724308 -0.569220
       Atomic Center    7 is at   1.529807 -1.203225 -0.569280
       Atomic Center    8 is at   0.276365  1.925413 -0.572000
     670 points will be used for fitting atomic charges
 Fitting point charges to eletrostatic potential
 Charges from ESP fit, RMS=   0.00623 RRMS=   0.03819:
 Charge=   1.00000 Dipole=    -0.0008     0.0135    -8.4388 Tot=     8.4388
              1
     1  O   -0.945165
     2  O   -0.947068
     3  O   -0.944955
     4  O   -1.635193
     5  P    0.515986
     6  Ca   1.651731
     7  Ca   1.651624
     8  Ca   1.653040
 -----------------------------------------------------------------

              Electrostatic Properties (Atomic Units)

 -----------------------------------------------------------------
    Center     Electric         -------- Electric Field --------
               Potential          X             Y             Z
 -----------------------------------------------------------------
    1 Atom    -22.251807
    2 Atom    -22.250043
    3 Atom    -22.251793
    4 Atom    -22.290569
    5 Atom    -53.967973
    6 Atom    -80.043261
    7 Atom    -80.043270
    8 Atom    -80.043376
 -----------------------------------------------------------------
 1\1\GINC-N030\SP\RB3LYP\6-31+G(d,p)\Ca3O4P1(1+)\TIMN\12-Jun-2015\0\\# 
 b3lyp/6-31+G(d,p) int=ultrafine pop=(ReadRadii,MK)\\Ca3PO4_26.mol2_plu
 sQ.z51437.zip.xyz\\1,1\O,0,1.36316,0.57965,0.92187\O,0,-0.18036,-1.469
 01,0.92294\O,0,-1.18238,0.89219,0.92196\O,0,-0.00019,-0.0014,-1.71185\
 P,0,0.00032,0.00207,1.71804\Ca,0,-1.79139,-0.76102,-0.56922\Ca,0,1.554
 04,-1.17176,-0.56928\Ca,0,0.23702,1.93065,-0.572\\Version=EM64T-G03Rev
 E.01\State=1-A\HF=-2675.0710378\RMSD=8.200e-05\Thermal=0.\Dipole=-0.00
 08459,-0.005272,-3.2372926\PG=C01 [X(Ca3O4P1)]\\@


 QUHEN THE CAUSS IS TAKEN AWAY THE EFFECT WANISHETH.
 -- PROVERBS AND REASONS OF THE YEAR 1585
           AS REPRINTED IN PAISLEY MAGAZINE 1828.
 Job cpu time:  0 days  0 hours  1 minutes 43.9 seconds.
 File lengths (MBytes):  RWF=     32 Int=      0 D2E=      0 Chk=     11 Scr=      1
 Normal termination of Gaussian 03 at Fri Jun 12 17:42:43 2015.
