 Entering Gaussian System, Link 0=/home/timn/tmp/g03.e01/g03
 Input=Ca3PO4_115.mol2_plusQ.z51116.zip.xyz.gjf
 Output=Ca3PO4_115.mol2_plusQ.z51116.zip.xyz.out
 Initial command:
 /home/timn/tmp/g03.e01/l1.exe /home/timn/tmp/g03.e01/Gau-16769.inp -scrdir=/home/timn/tmp/g03.e01/
 Default is to use a total of   2 processors:
                                2 via shared-memory
                                1 via Linda
 Entering Link 1 = /home/timn/tmp/g03.e01/l1.exe PID=     16770.
  
 Copyright (c) 1988,1990,1992,1993,1995,1998,2003,2004,2007, Gaussian, Inc.
                  All Rights Reserved.
  
 This is the Gaussian(R) 03 program.  It is based on the
 the Gaussian(R) 98 system (copyright 1998, Gaussian, Inc.),
 the Gaussian(R) 94 system (copyright 1995, Gaussian, Inc.),
 the Gaussian 92(TM) system (copyright 1992, Gaussian, Inc.),
 the Gaussian 90(TM) system (copyright 1990, Gaussian, Inc.),
 the Gaussian 88(TM) system (copyright 1988, Gaussian, Inc.),
 the Gaussian 86(TM) system (copyright 1986, Carnegie Mellon
 University), and the Gaussian 82(TM) system (copyright 1983,
 Carnegie Mellon University). Gaussian is a federally registered
 trademark of Gaussian, Inc.
  
 This software contains proprietary and confidential information,
 including trade secrets, belonging to Gaussian, Inc.
  
 This software is provided under written license and may be
 used, copied, transmitted, or stored only in accord with that
 written license.
  
 The following legend is applicable only to US Government
 contracts under FAR:
  
                    RESTRICTED RIGHTS LEGEND
  
 Use, reproduction and disclosure by the US Government is
 subject to restrictions as set forth in subparagraphs (a)
 and (c) of the Commercial Computer Software - Restricted
 Rights clause in FAR 52.227-19.
  
 Gaussian, Inc.
 340 Quinnipiac St., Bldg. 40, Wallingford CT 06492
  
  
 ---------------------------------------------------------------
 Warning -- This program may not be used in any manner that
 competes with the business of Gaussian, Inc. or will provide
 assistance to any competitor of Gaussian, Inc.  The licensee
 of this program is prohibited from giving any competitor of
 Gaussian, Inc. access to this program.  By using this program,
 the user acknowledges that Gaussian, Inc. is engaged in the
 business of creating and licensing software in the field of
 computational chemistry and represents and warrants to the
 licensee that it is not a competitor of Gaussian, Inc. and that
 it will not use this program in any manner prohibited above.
 ---------------------------------------------------------------
  

 Cite this work as:
 Gaussian 03, Revision E.01,
 M. J. Frisch, G. W. Trucks, H. B. Schlegel, G. E. Scuseria, 
 M. A. Robb, J. R. Cheeseman, J. A. Montgomery, Jr., T. Vreven, 
 K. N. Kudin, J. C. Burant, J. M. Millam, S. S. Iyengar, J. Tomasi, 
 V. Barone, B. Mennucci, M. Cossi, G. Scalmani, N. Rega, 
 G. A. Petersson, H. Nakatsuji, M. Hada, M. Ehara, K. Toyota, 
 R. Fukuda, J. Hasegawa, M. Ishida, T. Nakajima, Y. Honda, O. Kitao, 
 H. Nakai, M. Klene, X. Li, J. E. Knox, H. P. Hratchian, J. B. Cross, 
 V. Bakken, C. Adamo, J. Jaramillo, R. Gomperts, R. E. Stratmann, 
 O. Yazyev, A. J. Austin, R. Cammi, C. Pomelli, J. W. Ochterski, 
 P. Y. Ayala, K. Morokuma, G. A. Voth, P. Salvador, J. J. Dannenberg, 
 V. G. Zakrzewski, S. Dapprich, A. D. Daniels, M. C. Strain, 
 O. Farkas, D. K. Malick, A. D. Rabuck, K. Raghavachari, 
 J. B. Foresman, J. V. Ortiz, Q. Cui, A. G. Baboul, S. Clifford, 
 J. Cioslowski, B. B. Stefanov, G. Liu, A. Liashenko, P. Piskorz, 
 I. Komaromi, R. L. Martin, D. J. Fox, T. Keith, M. A. Al-Laham, 
 C. Y. Peng, A. Nanayakkara, M. Challacombe, P. M. W. Gill, 
 B. Johnson, W. Chen, M. W. Wong, C. Gonzalez, and J. A. Pople, 
 Gaussian, Inc., Wallingford CT, 2004.
 
 ******************************************
 Gaussian 03:  EM64T-G03RevE.01 11-Sep-2007
                12-Jun-2015 
 ******************************************
 %nproc=2
 Will use up to    2 processors via shared memory.
 Default route:  MP2=Direct MaxDisk=2000MB
 ----------------------------------------------------
 # b3lyp/6-31+G(d,p) int=ultrafine pop=(ReadRadii,MK)
 ----------------------------------------------------

 Warning!  SCF SP cutoffs with diffuse functions may be unreliable.
 Consider SCF=Tight

 1/38=1/1;
 2/17=6,18=5,40=1/2;
 3/5=1,6=6,7=111,11=2,16=1,25=1,30=1,74=-5,75=5/1,2,3;
 4//1;
 5/5=2,32=1,38=5/2;
 6/7=2,8=2,9=2,10=2,15=8,20=101,28=1/1,2;
 99/5=1,9=1/99;
 ------------------------------------
 Ca3PO4_115.mol2_plusQ.z51116.zip.xyz
 ------------------------------------
 Symbolic Z-matrix:
 Charge =  1 Multiplicity = 1
 O                     0.59694  -0.88915  -0.77596 
 O                    -1.87268   0.86598  -0.00067 
 O                     0.59643  -0.88715   0.77882 
 O                     2.57751   1.46786  -0.00109 
 P                    -3.44249   0.56934  -0.0017 
 Ca                   -1.44373  -1.52072   0.00072 
 Ca                    2.84024  -0.63677  -0.00136 
 Ca                    0.42608   1.50747   0.00148 
 
                          Input orientation:                          
 ---------------------------------------------------------------------
 Center     Atomic     Atomic              Coordinates (Angstroms)
 Number     Number      Type              X           Y           Z
 ---------------------------------------------------------------------
    1          8             0        0.596940   -0.889150   -0.775960
    2          8             0       -1.872680    0.865980   -0.000670
    3          8             0        0.596430   -0.887150    0.778820
    4          8             0        2.577510    1.467860   -0.001090
    5         15             0       -3.442490    0.569340   -0.001700
    6         20             0       -1.443730   -1.520720    0.000720
    7         20             0        2.840240   -0.636770   -0.001360
    8         20             0        0.426080    1.507470    0.001480
 ---------------------------------------------------------------------
                    Distance matrix (angstroms):
                    1          2          3          4          5
     1  O    0.000000
     2  O    3.127392   0.000000
     3  O    1.554781   3.126911   0.000000
     4  O    3.174677   4.490707   3.174746   0.000000
     5  P    4.363905   1.597592   4.363880   6.086685   0.000000
     6  Ca   2.272982   2.424941   2.273566   5.010188   2.891954
     7  Ca   2.386649   4.946703   2.388735   2.120965   6.397452
     8  Ca   2.525350   2.386590   2.523387   2.151796   3.980695
                    6          7          8
     6  Ca   0.000000
     7  Ca   4.374217   0.000000
     8  Ca   3.558950   3.228923   0.000000
 Stoichiometry    Ca3O4P(1+)
 Framework group  C1[X(Ca3O4P)]
 Deg. of freedom    18
 Full point group                 C1
 Largest Abelian subgroup         C1      NOp   1
 Largest concise Abelian subgroup C1      NOp   1
                         Standard orientation:                         
 ---------------------------------------------------------------------
 Center     Atomic     Atomic              Coordinates (Angstroms)
 Number     Number      Type              X           Y           Z
 ---------------------------------------------------------------------
    1          8             0        0.596939   -0.889150   -0.775961
    2          8             0       -1.872680    0.865980   -0.000671
    3          8             0        0.596429   -0.887150    0.778819
    4          8             0        2.577510    1.467859   -0.001091
    5         15             0       -3.442490    0.569340   -0.001701
    6         20             0       -1.443731   -1.520720    0.000719
    7         20             0        2.840239   -0.636771   -0.001361
    8         20             0        0.426080    1.507470    0.001479
 ---------------------------------------------------------------------
 Rotational constants (GHZ):      1.6818377      0.5193925      0.4092649
 Standard basis: 6-31+G(d,p) (6D, 7F)
 There are   180 symmetry adapted basis functions of A   symmetry.
 Integral buffers will be    131072 words long.
 Raffenetti 2 integral format.
 Two-electron integral symmetry is turned on.
   180 basis functions,   424 primitive gaussians,   180 cartesian basis functions
    53 alpha electrons       53 beta electrons
       nuclear repulsion energy       840.7826022611 Hartrees.
 NAtoms=    8 NActive=    8 NUniq=    8 SFac= 7.50D-01 NAtFMM=   80 NAOKFM=F Big=F
 One-electron integrals computed using PRISM.
 NBasis=   180 RedAO= T  NBF=   180
 NBsUse=   180 1.00D-06 NBFU=   180
 Harris functional with IExCor=  402 diagonalized for initial guess.
 ExpMin= 7.10D-03 ExpMax= 3.53D+04 ExpMxC= 5.30D+03 IAcc=3 IRadAn=         5 AccDes= 0.00D+00
 HarFok:  IExCor= 402 AccDes= 0.00D+00 IRadAn=         5 IDoV=1
 ScaDFX=  1.000000  1.000000  1.000000  1.000000
 Initial guess orbital symmetries:
       Occupied  (A) (A) (A) (A) (A) (A) (A) (A) (A) (A) (A) (A)
                 (A) (A) (A) (A) (A) (A) (A) (A) (A) (A) (A) (A)
                 (A) (A) (A) (A) (A) (A) (A) (A) (A) (A) (A) (A)
                 (A) (A) (A) (A) (A) (A) (A) (A) (A) (A) (A) (A)
                 (A) (A) (A) (A) (A)
       Virtual   (A) (A) (A) (A) (A) (A) (A) (A) (A) (A) (A) (A)
                 (A) (A) (A) (A) (A) (A) (A) (A) (A) (A) (A) (A)
                 (A) (A) (A) (A) (A) (A) (A) (A) (A) (A) (A) (A)
                 (A) (A) (A) (A) (A) (A) (A) (A) (A) (A) (A) (A)
                 (A) (A) (A) (A) (A) (A) (A) (A) (A) (A) (A) (A)
                 (A) (A) (A) (A) (A) (A) (A) (A) (A) (A) (A) (A)
                 (A) (A) (A) (A) (A) (A) (A) (A) (A) (A) (A) (A)
                 (A) (A) (A) (A) (A) (A) (A) (A) (A) (A) (A) (A)
                 (A) (A) (A) (A) (A) (A) (A) (A) (A) (A) (A) (A)
                 (A) (A) (A) (A) (A) (A) (A) (A) (A) (A) (A) (A)
                 (A) (A) (A) (A) (A) (A) (A)
 The electronic state of the initial guess is 1-A.
 Requested convergence on RMS density matrix=1.00D-04 within 128 cycles.
 Requested convergence on MAX density matrix=1.00D-02.
 Requested convergence on             energy=1.00D-02.
 No special actions if energy rises.
 EnCoef did     4 forward-backward iterations
 EnCoef did     4 forward-backward iterations
 EnCoef did     5 forward-backward iterations
 EnCoef did     7 forward-backward iterations
 EnCoef did     8 forward-backward iterations
 EnCoef did     4 forward-backward iterations
 EnCoef did     1 forward-backward iterations
 SCF Done:  E(RB+HF-LYP) =  -2674.84103887     A.U. after   14 cycles
             Convg  =    0.2925D-04             -V/T =  2.0027
             S**2   =   0.0000

 **********************************************************************

            Population analysis using the SCF density.

 **********************************************************************

 Orbital symmetries:
       Occupied  (A) (A) (A) (A) (A) (A) (A) (A) (A) (A) (A) (A)
                 (A) (A) (A) (A) (A) (A) (A) (A) (A) (A) (A) (A)
                 (A) (A) (A) (A) (A) (A) (A) (A) (A) (A) (A) (A)
                 (A) (A) (A) (A) (A) (A) (A) (A) (A) (A) (A) (A)
                 (A) (A) (A) (A) (A)
       Virtual   (A) (A) (A) (A) (A) (A) (A) (A) (A) (A) (A) (A)
                 (A) (A) (A) (A) (A) (A) (A) (A) (A) (A) (A) (A)
                 (A) (A) (A) (A) (A) (A) (A) (A) (A) (A) (A) (A)
                 (A) (A) (A) (A) (A) (A) (A) (A) (A) (A) (A) (A)
                 (A) (A) (A) (A) (A) (A) (A) (A) (A) (A) (A) (A)
                 (A) (A) (A) (A) (A) (A) (A) (A) (A) (A) (A) (A)
                 (A) (A) (A) (A) (A) (A) (A) (A) (A) (A) (A) (A)
                 (A) (A) (A) (A) (A) (A) (A) (A) (A) (A) (A) (A)
                 (A) (A) (A) (A) (A) (A) (A) (A) (A) (A) (A) (A)
                 (A) (A) (A) (A) (A) (A) (A) (A) (A) (A) (A) (A)
                 (A) (A) (A) (A) (A) (A) (A)
 The electronic state is 1-A.
 Alpha  occ. eigenvalues -- -145.53215-145.48008-145.46494 -77.26565 -19.30843
 Alpha  occ. eigenvalues --  -19.27723 -19.27686 -19.10322 -15.60106 -15.54854
 Alpha  occ. eigenvalues --  -15.53356 -12.73332 -12.73316 -12.73186 -12.68072
 Alpha  occ. eigenvalues --  -12.68036 -12.67956 -12.66610 -12.66571 -12.66406
 Alpha  occ. eigenvalues --   -6.72856  -4.89583  -4.89065  -4.88176  -1.97303
 Alpha  occ. eigenvalues --   -1.92067  -1.90657  -1.25290  -1.24949  -1.24848
 Alpha  occ. eigenvalues --   -1.20301  -1.19723  -1.19166  -1.18520  -1.18404
 Alpha  occ. eigenvalues --   -1.17699  -1.12089  -1.10825  -0.91226  -0.84507
 Alpha  occ. eigenvalues --   -0.68940  -0.52742  -0.51374  -0.51257  -0.51148
 Alpha  occ. eigenvalues --   -0.50084  -0.49068  -0.38794  -0.36629  -0.31416
 Alpha  occ. eigenvalues --   -0.30127  -0.28515  -0.28471
 Alpha virt. eigenvalues --   -0.25519  -0.20355  -0.17999  -0.15269  -0.15149
 Alpha virt. eigenvalues --   -0.11421  -0.11123  -0.11078  -0.09247  -0.09088
 Alpha virt. eigenvalues --   -0.08669  -0.08342  -0.07026  -0.06914  -0.06029
 Alpha virt. eigenvalues --   -0.05463  -0.05384  -0.04712  -0.04327  -0.04213
 Alpha virt. eigenvalues --   -0.04054  -0.03765  -0.03746  -0.03254  -0.02921
 Alpha virt. eigenvalues --   -0.02719  -0.02461  -0.02068  -0.01099   0.00132
 Alpha virt. eigenvalues --    0.00960   0.02713   0.03165   0.03251   0.03688
 Alpha virt. eigenvalues --    0.05031   0.05154   0.05719   0.06023   0.06152
 Alpha virt. eigenvalues --    0.06745   0.07234   0.08158   0.08435   0.09540
 Alpha virt. eigenvalues --    0.09965   0.10039   0.10773   0.11476   0.12985
 Alpha virt. eigenvalues --    0.13769   0.15424   0.15789   0.16505   0.17616
 Alpha virt. eigenvalues --    0.18204   0.20436   0.20918   0.22296   0.22380
 Alpha virt. eigenvalues --    0.23758   0.24456   0.27822   0.29745   0.30326
 Alpha virt. eigenvalues --    0.32339   0.33847   0.34894   0.36319   0.37095
 Alpha virt. eigenvalues --    0.37728   0.39767   0.41287   0.46705   0.47477
 Alpha virt. eigenvalues --    0.48328   0.51379   0.55033   0.57988   0.58583
 Alpha virt. eigenvalues --    0.60996   0.69103   0.86578   0.89509   0.97317
 Alpha virt. eigenvalues --    1.04936   1.09584   1.10048   1.10651   1.13843
 Alpha virt. eigenvalues --    1.13968   1.16089   1.19814   1.20497   1.23953
 Alpha virt. eigenvalues --    1.28546   1.33528   1.34998   1.46420   1.47147
 Alpha virt. eigenvalues --    1.47353   1.52281   1.58671   1.66960   1.67267
 Alpha virt. eigenvalues --    1.72421   1.75119   1.76160   1.78635   1.79347
 Alpha virt. eigenvalues --    1.83934   1.86452   1.87187   1.89394   1.90892
 Alpha virt. eigenvalues --    1.96289   2.01021   2.16329   2.16645   2.17926
 Alpha virt. eigenvalues --    2.48587   3.00620   3.37059   3.86740   4.00152
 Alpha virt. eigenvalues --    4.08555   4.08658
          Condensed to atoms (all electrons):
              1          2          3          4          5          6
     1  O    8.578183   0.003558  -0.045401   0.000922  -0.005486   0.086417
     2  O    0.003558   9.042459   0.003678  -0.005516  -0.445324  -0.046208
     3  O   -0.045401   0.003678   8.577157   0.000947  -0.005484   0.086423
     4  O    0.000922  -0.005516   0.000947   8.679906  -0.001704   0.002768
     5  P   -0.005486  -0.445324  -0.005484  -0.001704  15.175189   0.236159
     6  Ca   0.086417  -0.046208   0.086423   0.002768   0.236159  18.324652
     7  Ca   0.052204  -0.000505   0.052177   0.222989  -0.007412  -0.015178
     8  Ca   0.028690   0.023459   0.028771   0.221033   0.008427  -0.005625
              7          8
     1  O    0.052204   0.028690
     2  O   -0.000505   0.023459
     3  O    0.052177   0.028771
     4  O    0.222989   0.221033
     5  P   -0.007412   0.008427
     6  Ca  -0.015178  -0.005625
     7  Ca  18.363245  -0.030428
     8  Ca  -0.030428  18.370502
 Mulliken atomic charges:
              1
     1  O   -0.699087
     2  O   -0.575602
     3  O   -0.698268
     4  O   -1.121346
     5  P    0.045636
     6  Ca   1.330591
     7  Ca   1.362906
     8  Ca   1.355170
 Sum of Mulliken charges=   1.00000
 Atomic charges with hydrogens summed into heavy atoms:
              1
     1  O   -0.699087
     2  O   -0.575602
     3  O   -0.698268
     4  O   -1.121346
     5  P    0.045636
     6  Ca   1.330591
     7  Ca   1.362906
     8  Ca   1.355170
 Sum of Mulliken charges=   1.00000
 Electronic spatial extent (au):  <R**2>=  2354.6506
 Charge=     1.0000 electrons
 Dipole moment (field-independent basis, Debye):
    X=    -1.8480    Y=    -8.9639    Z=     0.0089  Tot=     9.1525
 Quadrupole moment (field-independent basis, Debye-Ang):
   XX=   -52.9209   YY=   -56.1339   ZZ=   -72.7508
   XY=   -14.1539   XZ=    -0.0187   YZ=     0.0292
 Traceless Quadrupole moment (field-independent basis, Debye-Ang):
   XX=     7.6810   YY=     4.4680   ZZ=   -12.1490
   XY=   -14.1539   XZ=    -0.0187   YZ=     0.0292
 Octapole moment (field-independent basis, Debye-Ang**2):
  XXX=    93.0269  YYY=   -39.4148  ZZZ=     0.0071  XYY=   -25.5175
  XXY=  -125.3525  XXZ=    -0.0097  XZZ=    -0.1771  YZZ=    -1.8072
  YYZ=     0.0775  XYZ=     0.0572
 Hexadecapole moment (field-independent basis, Debye-Ang**3):
 XXXX= -1935.5347 YYYY=  -543.8767 ZZZZ=  -128.9884 XXXY=  -268.2753
 XXXZ=    -0.2780 YYYX=     4.7689 YYYZ=     0.1049 ZZZX=    -0.0635
 ZZZY=     0.0818 XXYY=  -539.0034 XXZZ=  -358.7732 YYZZ=  -124.9719
 XXYZ=     0.1606 YYXZ=    -0.0399 ZZXY=    -8.8724
 N-N= 8.407826022611D+02 E-N=-8.004992099841D+03  KE= 2.667600430423D+03
 Merz-Kollman atomic radii used.
 Read replacement radii for each type of atom:
 Rad(20) =   1.188000000000D+00
 Atom Element Radius
    1     8    1.40
    2     8    1.40
    3     8    1.40
    4     8    1.40
    5    15    1.80
    6    20    1.19
    7    20    1.19
    8    20    1.19

 **********************************************************************

            Electrostatic Properties Using The SCF Density

 **********************************************************************

       Atomic Center    1 is at   0.596939 -0.889150 -0.775961
       Atomic Center    2 is at  -1.872680  0.865980 -0.000671
       Atomic Center    3 is at   0.596429 -0.887150  0.778819
       Atomic Center    4 is at   2.577510  1.467859 -0.001091
       Atomic Center    5 is at  -3.442490  0.569340 -0.001701
       Atomic Center    6 is at  -1.443731 -1.520720  0.000719
       Atomic Center    7 is at   2.840239 -0.636771 -0.001361
       Atomic Center    8 is at   0.426080  1.507470  0.001479
     857 points will be used for fitting atomic charges
 Fitting point charges to eletrostatic potential
 Charges from ESP fit, RMS=   0.00961 RRMS=   0.06381:
 Charge=   1.00000 Dipole=    -1.5647    -9.5485     0.0089 Tot=     9.6759
              1
     1  O   -0.782707
     2  O   -0.487949
     3  O   -0.781637
     4  O   -1.451050
     5  P   -0.086064
     6  Ca   1.416982
     7  Ca   1.587195
     8  Ca   1.585230
 -----------------------------------------------------------------

              Electrostatic Properties (Atomic Units)

 -----------------------------------------------------------------
    Center     Electric         -------- Electric Field --------
               Potential          X             Y             Z
 -----------------------------------------------------------------
    1 Atom    -22.193355
    2 Atom    -22.155847
    3 Atom    -22.192297
    4 Atom    -22.358771
    5 Atom    -53.954783
    6 Atom    -80.008751
    7 Atom    -80.060887
    8 Atom    -80.075509
 -----------------------------------------------------------------
 1\1\GINC-N025\SP\RB3LYP\6-31+G(d,p)\Ca3O4P1(1+)\TIMN\12-Jun-2015\0\\# 
 b3lyp/6-31+G(d,p) int=ultrafine pop=(ReadRadii,MK)\\Ca3PO4_115.mol2_pl
 usQ.z51116.zip.xyz\\1,1\O,0,0.59694,-0.88915,-0.77596\O,0,-1.87268,0.8
 6598,-0.00067\O,0,0.59643,-0.88715,0.77882\O,0,2.57751,1.46786,-0.0010
 9\P,0,-3.44249,0.56934,-0.0017\Ca,0,-1.44373,-1.52072,0.00072\Ca,0,2.8
 4024,-0.63677,-0.00136\Ca,0,0.42608,1.50747,0.00148\\Version=EM64T-G03
 RevE.01\State=1-A\HF=-2674.8410389\RMSD=2.925e-05\Thermal=0.\Dipole=-0
 .7270551,-3.5266897,0.0035129\PG=C01 [X(Ca3O4P1)]\\@


 QUANTUM MECHANICS IS BOHRING -- M.S. GORDON
 Job cpu time:  0 days  0 hours  2 minutes 35.3 seconds.
 File lengths (MBytes):  RWF=     32 Int=      0 D2E=      0 Chk=     11 Scr=      1
 Normal termination of Gaussian 03 at Fri Jun 12 17:36:51 2015.
