 Entering Gaussian System, Link 0=/home/timn/tmp/g03.e01/g03
 Input=Ca3PO4_43.mol2_plusQ.z51456.zip.xyz.gjf
 Output=Ca3PO4_43.mol2_plusQ.z51456.zip.xyz.out
 Initial command:
 /home/timn/tmp/g03.e01/l1.exe /home/timn/tmp/g03.e01/Gau-17345.inp -scrdir=/home/timn/tmp/g03.e01/
 Default is to use a total of   2 processors:
                                2 via shared-memory
                                1 via Linda
 Entering Link 1 = /home/timn/tmp/g03.e01/l1.exe PID=     17346.
  
 Copyright (c) 1988,1990,1992,1993,1995,1998,2003,2004,2007, Gaussian, Inc.
                  All Rights Reserved.
  
 This is the Gaussian(R) 03 program.  It is based on the
 the Gaussian(R) 98 system (copyright 1998, Gaussian, Inc.),
 the Gaussian(R) 94 system (copyright 1995, Gaussian, Inc.),
 the Gaussian 92(TM) system (copyright 1992, Gaussian, Inc.),
 the Gaussian 90(TM) system (copyright 1990, Gaussian, Inc.),
 the Gaussian 88(TM) system (copyright 1988, Gaussian, Inc.),
 the Gaussian 86(TM) system (copyright 1986, Carnegie Mellon
 University), and the Gaussian 82(TM) system (copyright 1983,
 Carnegie Mellon University). Gaussian is a federally registered
 trademark of Gaussian, Inc.
  
 This software contains proprietary and confidential information,
 including trade secrets, belonging to Gaussian, Inc.
  
 This software is provided under written license and may be
 used, copied, transmitted, or stored only in accord with that
 written license.
  
 The following legend is applicable only to US Government
 contracts under FAR:
  
                    RESTRICTED RIGHTS LEGEND
  
 Use, reproduction and disclosure by the US Government is
 subject to restrictions as set forth in subparagraphs (a)
 and (c) of the Commercial Computer Software - Restricted
 Rights clause in FAR 52.227-19.
  
 Gaussian, Inc.
 340 Quinnipiac St., Bldg. 40, Wallingford CT 06492
  
  
 ---------------------------------------------------------------
 Warning -- This program may not be used in any manner that
 competes with the business of Gaussian, Inc. or will provide
 assistance to any competitor of Gaussian, Inc.  The licensee
 of this program is prohibited from giving any competitor of
 Gaussian, Inc. access to this program.  By using this program,
 the user acknowledges that Gaussian, Inc. is engaged in the
 business of creating and licensing software in the field of
 computational chemistry and represents and warrants to the
 licensee that it is not a competitor of Gaussian, Inc. and that
 it will not use this program in any manner prohibited above.
 ---------------------------------------------------------------
  

 Cite this work as:
 Gaussian 03, Revision E.01,
 M. J. Frisch, G. W. Trucks, H. B. Schlegel, G. E. Scuseria, 
 M. A. Robb, J. R. Cheeseman, J. A. Montgomery, Jr., T. Vreven, 
 K. N. Kudin, J. C. Burant, J. M. Millam, S. S. Iyengar, J. Tomasi, 
 V. Barone, B. Mennucci, M. Cossi, G. Scalmani, N. Rega, 
 G. A. Petersson, H. Nakatsuji, M. Hada, M. Ehara, K. Toyota, 
 R. Fukuda, J. Hasegawa, M. Ishida, T. Nakajima, Y. Honda, O. Kitao, 
 H. Nakai, M. Klene, X. Li, J. E. Knox, H. P. Hratchian, J. B. Cross, 
 V. Bakken, C. Adamo, J. Jaramillo, R. Gomperts, R. E. Stratmann, 
 O. Yazyev, A. J. Austin, R. Cammi, C. Pomelli, J. W. Ochterski, 
 P. Y. Ayala, K. Morokuma, G. A. Voth, P. Salvador, J. J. Dannenberg, 
 V. G. Zakrzewski, S. Dapprich, A. D. Daniels, M. C. Strain, 
 O. Farkas, D. K. Malick, A. D. Rabuck, K. Raghavachari, 
 J. B. Foresman, J. V. Ortiz, Q. Cui, A. G. Baboul, S. Clifford, 
 J. Cioslowski, B. B. Stefanov, G. Liu, A. Liashenko, P. Piskorz, 
 I. Komaromi, R. L. Martin, D. J. Fox, T. Keith, M. A. Al-Laham, 
 C. Y. Peng, A. Nanayakkara, M. Challacombe, P. M. W. Gill, 
 B. Johnson, W. Chen, M. W. Wong, C. Gonzalez, and J. A. Pople, 
 Gaussian, Inc., Wallingford CT, 2004.
 
 ******************************************
 Gaussian 03:  EM64T-G03RevE.01 11-Sep-2007
                12-Jun-2015 
 ******************************************
 %nproc=2
 Will use up to    2 processors via shared memory.
 Default route:  MP2=Direct MaxDisk=2000MB
 ----------------------------------------------------
 # b3lyp/6-31+G(d,p) int=ultrafine pop=(ReadRadii,MK)
 ----------------------------------------------------

 Warning!  SCF SP cutoffs with diffuse functions may be unreliable.
 Consider SCF=Tight

 1/38=1/1;
 2/17=6,18=5,40=1/2;
 3/5=1,6=6,7=111,11=2,16=1,25=1,30=1,74=-5,75=5/1,2,3;
 4//1;
 5/5=2,32=1,38=5/2;
 6/7=2,8=2,9=2,10=2,15=8,20=101,28=1/1,2;
 99/5=1,9=1/99;
 -----------------------------------
 Ca3PO4_43.mol2_plusQ.z51456.zip.xyz
 -----------------------------------
 Symbolic Z-matrix:
 Charge =  1 Multiplicity = 1
 O                     1.87209   0.8654   -0.00067 
 O                    -0.59606  -0.88703   0.77773 
 O                    -0.59654  -0.88906  -0.77693 
 O                    -2.57844   1.46808  -0.00075 
 P                     3.44231   0.57056  -0.00009 
 Ca                   -0.42686   1.50642   0.00028 
 Ca                   -2.83997  -0.63694  -0.00001 
 Ca                    1.44468  -1.52035   0.00005 
 
                          Input orientation:                          
 ---------------------------------------------------------------------
 Center     Atomic     Atomic              Coordinates (Angstroms)
 Number     Number      Type              X           Y           Z
 ---------------------------------------------------------------------
    1          8             0        1.872090    0.865400   -0.000670
    2          8             0       -0.596060   -0.887030    0.777730
    3          8             0       -0.596540   -0.889060   -0.776930
    4          8             0       -2.578440    1.468080   -0.000750
    5         15             0        3.442310    0.570560   -0.000090
    6         20             0       -0.426860    1.506420    0.000280
    7         20             0       -2.839970   -0.636940   -0.000010
    8         20             0        1.444680   -1.520350    0.000050
 ---------------------------------------------------------------------
                    Distance matrix (angstroms):
                    1          2          3          4          5
     1  O    0.000000
     2  O    3.125489   0.000000
     3  O    3.126475   1.554661   0.000000
     4  O    4.491151   3.175280   3.175924   0.000000
     5  P    1.597661   4.363256   4.364204   6.087280   0.000000
     6  Ca   2.386646   2.522233   2.524118   2.151922   3.980742
     7  Ca   4.945759   2.388003   2.387498   2.121204   6.397273
     8  Ca   2.423733   2.273873   2.273500   5.011607   2.891787
                    6          7          8
     6  Ca   0.000000
     7  Ca   3.227552   0.000000
     8  Ca   3.558651   4.374773   0.000000
 Stoichiometry    Ca3O4P(1+)
 Framework group  C1[X(Ca3O4P)]
 Deg. of freedom    18
 Full point group                 C1
 Largest Abelian subgroup         C1      NOp   1
 Largest concise Abelian subgroup C1      NOp   1
                         Standard orientation:                         
 ---------------------------------------------------------------------
 Center     Atomic     Atomic              Coordinates (Angstroms)
 Number     Number      Type              X           Y           Z
 ---------------------------------------------------------------------
    1          8             0        1.872090    0.865398   -0.000671
    2          8             0       -0.596061   -0.887031    0.777729
    3          8             0       -0.596541   -0.889061   -0.776931
    4          8             0       -2.578440    1.468080   -0.000751
    5         15             0        3.442310    0.570557   -0.000091
    6         20             0       -0.426860    1.506419    0.000279
    7         20             0       -2.839971   -0.636940   -0.000011
    8         20             0        1.444679   -1.520352    0.000049
 ---------------------------------------------------------------------
 Rotational constants (GHZ):      1.6825922      0.5193606      0.4092875
 Standard basis: 6-31+G(d,p) (6D, 7F)
 There are   180 symmetry adapted basis functions of A   symmetry.
 Integral buffers will be    131072 words long.
 Raffenetti 2 integral format.
 Two-electron integral symmetry is turned on.
   180 basis functions,   424 primitive gaussians,   180 cartesian basis functions
    53 alpha electrons       53 beta electrons
       nuclear repulsion energy       840.8387668433 Hartrees.
 NAtoms=    8 NActive=    8 NUniq=    8 SFac= 7.50D-01 NAtFMM=   80 NAOKFM=F Big=F
 One-electron integrals computed using PRISM.
 NBasis=   180 RedAO= T  NBF=   180
 NBsUse=   180 1.00D-06 NBFU=   180
 Harris functional with IExCor=  402 diagonalized for initial guess.
 ExpMin= 7.10D-03 ExpMax= 3.53D+04 ExpMxC= 5.30D+03 IAcc=3 IRadAn=         5 AccDes= 0.00D+00
 HarFok:  IExCor= 402 AccDes= 0.00D+00 IRadAn=         5 IDoV=1
 ScaDFX=  1.000000  1.000000  1.000000  1.000000
 Initial guess orbital symmetries:
       Occupied  (A) (A) (A) (A) (A) (A) (A) (A) (A) (A) (A) (A)
                 (A) (A) (A) (A) (A) (A) (A) (A) (A) (A) (A) (A)
                 (A) (A) (A) (A) (A) (A) (A) (A) (A) (A) (A) (A)
                 (A) (A) (A) (A) (A) (A) (A) (A) (A) (A) (A) (A)
                 (A) (A) (A) (A) (A)
       Virtual   (A) (A) (A) (A) (A) (A) (A) (A) (A) (A) (A) (A)
                 (A) (A) (A) (A) (A) (A) (A) (A) (A) (A) (A) (A)
                 (A) (A) (A) (A) (A) (A) (A) (A) (A) (A) (A) (A)
                 (A) (A) (A) (A) (A) (A) (A) (A) (A) (A) (A) (A)
                 (A) (A) (A) (A) (A) (A) (A) (A) (A) (A) (A) (A)
                 (A) (A) (A) (A) (A) (A) (A) (A) (A) (A) (A) (A)
                 (A) (A) (A) (A) (A) (A) (A) (A) (A) (A) (A) (A)
                 (A) (A) (A) (A) (A) (A) (A) (A) (A) (A) (A) (A)
                 (A) (A) (A) (A) (A) (A) (A) (A) (A) (A) (A) (A)
                 (A) (A) (A) (A) (A) (A) (A) (A) (A) (A) (A) (A)
                 (A) (A) (A) (A) (A) (A) (A)
 The electronic state of the initial guess is 1-A.
 Requested convergence on RMS density matrix=1.00D-04 within 128 cycles.
 Requested convergence on MAX density matrix=1.00D-02.
 Requested convergence on             energy=1.00D-02.
 No special actions if energy rises.
 EnCoef did     4 forward-backward iterations
 EnCoef did     4 forward-backward iterations
 EnCoef did     5 forward-backward iterations
 EnCoef did     7 forward-backward iterations
 EnCoef did     8 forward-backward iterations
 EnCoef did     4 forward-backward iterations
 EnCoef did     1 forward-backward iterations
 SCF Done:  E(RB+HF-LYP) =  -2674.84098973     A.U. after   13 cycles
             Convg  =    0.9374D-04             -V/T =  2.0027
             S**2   =   0.0000

 **********************************************************************

            Population analysis using the SCF density.

 **********************************************************************

 Orbital symmetries:
       Occupied  (A) (A) (A) (A) (A) (A) (A) (A) (A) (A) (A) (A)
                 (A) (A) (A) (A) (A) (A) (A) (A) (A) (A) (A) (A)
                 (A) (A) (A) (A) (A) (A) (A) (A) (A) (A) (A) (A)
                 (A) (A) (A) (A) (A) (A) (A) (A) (A) (A) (A) (A)
                 (A) (A) (A) (A) (A)
       Virtual   (A) (A) (A) (A) (A) (A) (A) (A) (A) (A) (A) (A)
                 (A) (A) (A) (A) (A) (A) (A) (A) (A) (A) (A) (A)
                 (A) (A) (A) (A) (A) (A) (A) (A) (A) (A) (A) (A)
                 (A) (A) (A) (A) (A) (A) (A) (A) (A) (A) (A) (A)
                 (A) (A) (A) (A) (A) (A) (A) (A) (A) (A) (A) (A)
                 (A) (A) (A) (A) (A) (A) (A) (A) (A) (A) (A) (A)
                 (A) (A) (A) (A) (A) (A) (A) (A) (A) (A) (A) (A)
                 (A) (A) (A) (A) (A) (A) (A) (A) (A) (A) (A) (A)
                 (A) (A) (A) (A) (A) (A) (A) (A) (A) (A) (A) (A)
                 (A) (A) (A) (A) (A) (A) (A) (A) (A) (A) (A) (A)
                 (A) (A) (A) (A) (A) (A) (A)
 The electronic state is 1-A.
 Alpha  occ. eigenvalues -- -145.53242-145.47982-145.46468 -77.26651 -19.30922
 Alpha  occ. eigenvalues --  -19.27883 -19.27494 -19.10285 -15.60132 -15.54828
 Alpha  occ. eigenvalues --  -15.53332 -12.73359 -12.73343 -12.73212 -12.68046
 Alpha  occ. eigenvalues --  -12.68010 -12.67930 -12.66585 -12.66546 -12.66381
 Alpha  occ. eigenvalues --   -6.72935  -4.89662  -4.89145  -4.88257  -1.97328
 Alpha  occ. eigenvalues --   -1.92043  -1.90638  -1.25315  -1.24974  -1.24872
 Alpha  occ. eigenvalues --   -1.20283  -1.19698  -1.19140  -1.18500  -1.18386
 Alpha  occ. eigenvalues --   -1.17684  -1.12149  -1.10821  -0.91217  -0.84452
 Alpha  occ. eigenvalues --   -0.69000  -0.52793  -0.51436  -0.51312  -0.51146
 Alpha  occ. eigenvalues --   -0.50087  -0.49071  -0.38786  -0.36624  -0.31465
 Alpha  occ. eigenvalues --   -0.30074  -0.28466  -0.28423
 Alpha virt. eigenvalues --   -0.25565  -0.20364  -0.17986  -0.15268  -0.15145
 Alpha virt. eigenvalues --   -0.11430  -0.11134  -0.11077  -0.09236  -0.09095
 Alpha virt. eigenvalues --   -0.08663  -0.08339  -0.07026  -0.06914  -0.06029
 Alpha virt. eigenvalues --   -0.05462  -0.05386  -0.04710  -0.04324  -0.04210
 Alpha virt. eigenvalues --   -0.04051  -0.03764  -0.03746  -0.03250  -0.02918
 Alpha virt. eigenvalues --   -0.02715  -0.02470  -0.02072  -0.01096   0.00121
 Alpha virt. eigenvalues --    0.00956   0.02699   0.03162   0.03257   0.03672
 Alpha virt. eigenvalues --    0.05030   0.05154   0.05712   0.06029   0.06149
 Alpha virt. eigenvalues --    0.06739   0.07241   0.08157   0.08445   0.09544
 Alpha virt. eigenvalues --    0.09976   0.10047   0.10782   0.11492   0.12985
 Alpha virt. eigenvalues --    0.13779   0.15408   0.15802   0.16514   0.17638
 Alpha virt. eigenvalues --    0.18208   0.20442   0.20924   0.22297   0.22394
 Alpha virt. eigenvalues --    0.23769   0.24475   0.27835   0.29752   0.30327
 Alpha virt. eigenvalues --    0.32303   0.33824   0.34886   0.36305   0.37072
 Alpha virt. eigenvalues --    0.37729   0.39784   0.41279   0.46690   0.47490
 Alpha virt. eigenvalues --    0.48336   0.51379   0.54979   0.57936   0.58556
 Alpha virt. eigenvalues --    0.61010   0.69054   0.86576   0.89464   0.97328
 Alpha virt. eigenvalues --    1.04888   1.09572   1.10053   1.10666   1.13848
 Alpha virt. eigenvalues --    1.13967   1.16074   1.19858   1.20494   1.23977
 Alpha virt. eigenvalues --    1.28557   1.33540   1.35009   1.46448   1.47150
 Alpha virt. eigenvalues --    1.47342   1.52309   1.58665   1.66906   1.67292
 Alpha virt. eigenvalues --    1.72422   1.75119   1.76167   1.78599   1.79291
 Alpha virt. eigenvalues --    1.83938   1.86441   1.87242   1.89452   1.90908
 Alpha virt. eigenvalues --    1.96323   2.01072   2.16392   2.16666   2.17946
 Alpha virt. eigenvalues --    2.48511   3.00637   3.36998   3.86703   4.00181
 Alpha virt. eigenvalues --    4.08552   4.08704
          Condensed to atoms (all electrons):
              1          2          3          4          5          6
     1  O    9.042174   0.003565   0.003610  -0.005500  -0.444574   0.023150
     2  O    0.003565   8.573458  -0.045776   0.000885  -0.005414   0.028777
     3  O    0.003610  -0.045776   8.582543   0.000986  -0.005463   0.028536
     4  O   -0.005500   0.000885   0.000986   8.678412  -0.001707   0.221461
     5  P   -0.444574  -0.005414  -0.005463  -0.001707  15.174600   0.008250
     6  Ca   0.023150   0.028777   0.028536   0.221461   0.008250  18.371924
     7  Ca  -0.000438   0.052286   0.051815   0.223389  -0.007451  -0.030612
     8  Ca  -0.045654   0.086880   0.086252   0.002732   0.235463  -0.005759
              7          8
     1  O   -0.000438  -0.045654
     2  O    0.052286   0.086880
     3  O    0.051815   0.086252
     4  O    0.223389   0.002732
     5  P   -0.007451   0.235463
     6  Ca  -0.030612  -0.005759
     7  Ca  18.364304  -0.015222
     8  Ca  -0.015222  18.323652
 Mulliken atomic charges:
              1
     1  O   -0.576333
     2  O   -0.694661
     3  O   -0.702503
     4  O   -1.120658
     5  P    0.046296
     6  Ca   1.354274
     7  Ca   1.361930
     8  Ca   1.331655
 Sum of Mulliken charges=   1.00000
 Atomic charges with hydrogens summed into heavy atoms:
              1
     1  O   -0.576333
     2  O   -0.694661
     3  O   -0.702503
     4  O   -1.120658
     5  P    0.046296
     6  Ca   1.354274
     7  Ca   1.361930
     8  Ca   1.331655
 Sum of Mulliken charges=   1.00000
 Electronic spatial extent (au):  <R**2>=  2354.5388
 Charge=     1.0000 electrons
 Dipole moment (field-independent basis, Debye):
    X=     1.8802    Y=    -8.9783    Z=     0.0383  Tot=     9.1731
 Quadrupole moment (field-independent basis, Debye-Ang):
   XX=   -52.9193   YY=   -56.1532   ZZ=   -72.7549
   XY=    14.1246   XZ=    -0.0303   YZ=    -0.0121
 Traceless Quadrupole moment (field-independent basis, Debye-Ang):
   XX=     7.6898   YY=     4.4559   ZZ=   -12.1457
   XY=    14.1246   XZ=    -0.0303   YZ=    -0.0121
 Octapole moment (field-independent basis, Debye-Ang**2):
  XXX=   -92.3501  YYY=   -39.5602  ZZZ=     0.0337  XYY=    25.6542
  XXY=  -125.4121  XXZ=     0.0543  XZZ=     0.2827  YZZ=    -1.8350
  YYZ=     0.0431  XYZ=    -0.0016
 Hexadecapole moment (field-independent basis, Debye-Ang**3):
 XXXX= -1935.9171 YYYY=  -543.8713 ZZZZ=  -129.0245 XXXY=   268.1694
 XXXZ=    -0.1104 YYYX=    -4.9930 YYYZ=     0.0590 ZZZX=    -0.0388
 ZZZY=     0.0237 XXYY=  -538.9062 XXZZ=  -358.7789 YYZZ=  -124.9591
 XXYZ=     0.0690 YYXZ=    -0.0388 ZZXY=     8.8715
 N-N= 8.408387668433D+02 E-N=-8.005103098523D+03  KE= 2.667601738634D+03
 Merz-Kollman atomic radii used.
 Read replacement radii for each type of atom:
 Rad(20) =   1.188000000000D+00
 Atom Element Radius
    1     8    1.40
    2     8    1.40
    3     8    1.40
    4     8    1.40
    5    15    1.80
    6    20    1.19
    7    20    1.19
    8    20    1.19

 **********************************************************************

            Electrostatic Properties Using The SCF Density

 **********************************************************************

       Atomic Center    1 is at   1.872090  0.865398 -0.000671
       Atomic Center    2 is at  -0.596061 -0.887031  0.777729
       Atomic Center    3 is at  -0.596541 -0.889061 -0.776931
       Atomic Center    4 is at  -2.578440  1.468080 -0.000751
       Atomic Center    5 is at   3.442310  0.570557 -0.000091
       Atomic Center    6 is at  -0.426860  1.506419  0.000279
       Atomic Center    7 is at  -2.839971 -0.636940 -0.000011
       Atomic Center    8 is at   1.444679 -1.520352  0.000049
     860 points will be used for fitting atomic charges
 Fitting point charges to eletrostatic potential
 Charges from ESP fit, RMS=   0.00953 RRMS=   0.06311:
 Charge=   1.00000 Dipole=     1.5706    -9.5700     0.0375 Tot=     9.6981
              1
     1  O   -0.492393
     2  O   -0.786462
     3  O   -0.794843
     4  O   -1.452685
     5  P   -0.086966
     6  Ca   1.591866
     7  Ca   1.593133
     8  Ca   1.428351
 -----------------------------------------------------------------

              Electrostatic Properties (Atomic Units)

 -----------------------------------------------------------------
    Center     Electric         -------- Electric Field --------
               Potential          X             Y             Z
 -----------------------------------------------------------------
    1 Atom    -22.156873
    2 Atom    -22.186757
    3 Atom    -22.198063
    4 Atom    -22.358025
    5 Atom    -53.955092
    6 Atom    -80.075584
    7 Atom    -80.060897
    8 Atom    -80.008588
 -----------------------------------------------------------------
 1\1\GINC-N025\SP\RB3LYP\6-31+G(d,p)\Ca3O4P1(1+)\TIMN\12-Jun-2015\0\\# 
 b3lyp/6-31+G(d,p) int=ultrafine pop=(ReadRadii,MK)\\Ca3PO4_43.mol2_plu
 sQ.z51456.zip.xyz\\1,1\O,0,1.87209,0.8654,-0.00067\O,0,-0.59606,-0.887
 03,0.77773\O,0,-0.59654,-0.88906,-0.77693\O,0,-2.57844,1.46808,-0.0007
 5\P,0,3.44231,0.57056,-0.00009\Ca,0,-0.42686,1.50642,0.00028\Ca,0,-2.8
 3997,-0.63694,-0.00001\Ca,0,1.44468,-1.52035,0.00005\\Version=EM64T-G0
 3RevE.01\State=1-A\HF=-2674.8409897\RMSD=9.374e-05\Thermal=0.\Dipole=0
 .7397217,-3.5323293,0.0150764\PG=C01 [X(Ca3O4P1)]\\@


 THOSE WHO ASPIRE NOT TO GUESS AND DIVINE,
 BUT TO DISCOVER AND KNOW, WHO PROPOSE NOT TO DEVISE 
 MIMIC AND FABULOUS WORLDS OF THEIR OWN, BUT TO 
 EXAMINE AND DISSECT THE NATURE OF THIS VERY WORLD 
 ITSELF, MUST GO TO THE FACTS THEMSELVES FOR EVERYTHING.

                               -- FRANCIS BACON, 1620
 Job cpu time:  0 days  0 hours  2 minutes 25.4 seconds.
 File lengths (MBytes):  RWF=     32 Int=      0 D2E=      0 Chk=     11 Scr=      1
 Normal termination of Gaussian 03 at Fri Jun 12 17:44:07 2015.
