 Entering Gaussian System, Link 0=/home/timn/tmp/g03.e01/g03
 Input=Ca3PO4_150.mol2_plusQ.z51155.zip.xyz.gjf
 Output=Ca3PO4_150.mol2_plusQ.z51155.zip.xyz.out
 Initial command:
 /home/timn/tmp/g03.e01/l1.exe /home/timn/tmp/g03.e01/Gau-16948.inp -scrdir=/home/timn/tmp/g03.e01/
 Default is to use a total of   2 processors:
                                2 via shared-memory
                                1 via Linda
 Entering Link 1 = /home/timn/tmp/g03.e01/l1.exe PID=     16949.
  
 Copyright (c) 1988,1990,1992,1993,1995,1998,2003,2004,2007, Gaussian, Inc.
                  All Rights Reserved.
  
 This is the Gaussian(R) 03 program.  It is based on the
 the Gaussian(R) 98 system (copyright 1998, Gaussian, Inc.),
 the Gaussian(R) 94 system (copyright 1995, Gaussian, Inc.),
 the Gaussian 92(TM) system (copyright 1992, Gaussian, Inc.),
 the Gaussian 90(TM) system (copyright 1990, Gaussian, Inc.),
 the Gaussian 88(TM) system (copyright 1988, Gaussian, Inc.),
 the Gaussian 86(TM) system (copyright 1986, Carnegie Mellon
 University), and the Gaussian 82(TM) system (copyright 1983,
 Carnegie Mellon University). Gaussian is a federally registered
 trademark of Gaussian, Inc.
  
 This software contains proprietary and confidential information,
 including trade secrets, belonging to Gaussian, Inc.
  
 This software is provided under written license and may be
 used, copied, transmitted, or stored only in accord with that
 written license.
  
 The following legend is applicable only to US Government
 contracts under FAR:
  
                    RESTRICTED RIGHTS LEGEND
  
 Use, reproduction and disclosure by the US Government is
 subject to restrictions as set forth in subparagraphs (a)
 and (c) of the Commercial Computer Software - Restricted
 Rights clause in FAR 52.227-19.
  
 Gaussian, Inc.
 340 Quinnipiac St., Bldg. 40, Wallingford CT 06492
  
  
 ---------------------------------------------------------------
 Warning -- This program may not be used in any manner that
 competes with the business of Gaussian, Inc. or will provide
 assistance to any competitor of Gaussian, Inc.  The licensee
 of this program is prohibited from giving any competitor of
 Gaussian, Inc. access to this program.  By using this program,
 the user acknowledges that Gaussian, Inc. is engaged in the
 business of creating and licensing software in the field of
 computational chemistry and represents and warrants to the
 licensee that it is not a competitor of Gaussian, Inc. and that
 it will not use this program in any manner prohibited above.
 ---------------------------------------------------------------
  

 Cite this work as:
 Gaussian 03, Revision E.01,
 M. J. Frisch, G. W. Trucks, H. B. Schlegel, G. E. Scuseria, 
 M. A. Robb, J. R. Cheeseman, J. A. Montgomery, Jr., T. Vreven, 
 K. N. Kudin, J. C. Burant, J. M. Millam, S. S. Iyengar, J. Tomasi, 
 V. Barone, B. Mennucci, M. Cossi, G. Scalmani, N. Rega, 
 G. A. Petersson, H. Nakatsuji, M. Hada, M. Ehara, K. Toyota, 
 R. Fukuda, J. Hasegawa, M. Ishida, T. Nakajima, Y. Honda, O. Kitao, 
 H. Nakai, M. Klene, X. Li, J. E. Knox, H. P. Hratchian, J. B. Cross, 
 V. Bakken, C. Adamo, J. Jaramillo, R. Gomperts, R. E. Stratmann, 
 O. Yazyev, A. J. Austin, R. Cammi, C. Pomelli, J. W. Ochterski, 
 P. Y. Ayala, K. Morokuma, G. A. Voth, P. Salvador, J. J. Dannenberg, 
 V. G. Zakrzewski, S. Dapprich, A. D. Daniels, M. C. Strain, 
 O. Farkas, D. K. Malick, A. D. Rabuck, K. Raghavachari, 
 J. B. Foresman, J. V. Ortiz, Q. Cui, A. G. Baboul, S. Clifford, 
 J. Cioslowski, B. B. Stefanov, G. Liu, A. Liashenko, P. Piskorz, 
 I. Komaromi, R. L. Martin, D. J. Fox, T. Keith, M. A. Al-Laham, 
 C. Y. Peng, A. Nanayakkara, M. Challacombe, P. M. W. Gill, 
 B. Johnson, W. Chen, M. W. Wong, C. Gonzalez, and J. A. Pople, 
 Gaussian, Inc., Wallingford CT, 2004.
 
 ******************************************
 Gaussian 03:  EM64T-G03RevE.01 11-Sep-2007
                12-Jun-2015 
 ******************************************
 %nproc=2
 Will use up to    2 processors via shared memory.
 Default route:  MP2=Direct MaxDisk=2000MB
 ----------------------------------------------------
 # b3lyp/6-31+G(d,p) int=ultrafine pop=(ReadRadii,MK)
 ----------------------------------------------------

 Warning!  SCF SP cutoffs with diffuse functions may be unreliable.
 Consider SCF=Tight

 1/38=1/1;
 2/17=6,18=5,40=1/2;
 3/5=1,6=6,7=111,11=2,16=1,25=1,30=1,74=-5,75=5/1,2,3;
 4//1;
 5/5=2,32=1,38=5/2;
 6/7=2,8=2,9=2,10=2,15=8,20=101,28=1/1,2;
 99/5=1,9=1/99;
 ------------------------------------
 Ca3PO4_150.mol2_plusQ.z51155.zip.xyz
 ------------------------------------
 Symbolic Z-matrix:
 Charge =  1 Multiplicity = 1
 O                    -1.24545   0.80076   0.92277 
 O                    -0.07053  -1.4789    0.92267 
 O                     1.31653   0.6785    0.92207 
 O                    -0.00032  -0.00022  -1.71199 
 P                     0.00046   0.00026   1.71828 
 Ca                   -1.72983  -0.89148  -0.56993 
 Ca                    1.63672  -1.0523   -0.57044 
 Ca                    0.09268   1.94353  -0.57054 
 
                          Input orientation:                          
 ---------------------------------------------------------------------
 Center     Atomic     Atomic              Coordinates (Angstroms)
 Number     Number      Type              X           Y           Z
 ---------------------------------------------------------------------
    1          8             0       -1.245450    0.800760    0.922770
    2          8             0       -0.070530   -1.478900    0.922670
    3          8             0        1.316530    0.678500    0.922070
    4          8             0       -0.000320   -0.000220   -1.711990
    5         15             0        0.000460    0.000260    1.718280
    6         20             0       -1.729830   -0.891480   -0.569930
    7         20             0        1.636720   -1.052300   -0.570440
    8         20             0        0.092680    1.943530   -0.570540
 ---------------------------------------------------------------------
                    Distance matrix (angstroms):
                    1          2          3          4          5
     1  O    0.000000
     2  O    2.564622   0.000000
     3  O    2.564896   2.564822   0.000000
     4  O    3.022231   3.022062   3.022090   0.000000
     5  P    1.681050   1.681056   1.681071   3.430270   0.000000
     6  Ca   2.307911   2.307855   3.737808   2.256070   3.004165
     7  Ca   3.737701   2.307827   2.307764   2.256083   3.003909
     8  Ca   2.307919   3.737558   2.307812   2.256041   3.003914
                    6          7          8
     6  Ca   0.000000
     7  Ca   3.370389   0.000000
     8  Ca   3.370286   3.370320   0.000000
 Stoichiometry    Ca3O4P(1+)
 Framework group  C1[X(Ca3O4P)]
 Deg. of freedom    18
 Full point group                 C1
 Largest Abelian subgroup         C1      NOp   1
 Largest concise Abelian subgroup C1      NOp   1
                         Standard orientation:                         
 ---------------------------------------------------------------------
 Center     Atomic     Atomic              Coordinates (Angstroms)
 Number     Number      Type              X           Y           Z
 ---------------------------------------------------------------------
    1          8             0       -1.217912    0.842054    0.922769
    2          8             0       -0.120061   -1.475705    0.922669
    3          8             0        1.338531    0.633992    0.922069
    4          8             0       -0.000329   -0.000209   -1.711991
    5         15             0        0.000467    0.000244    1.718279
    6         20             0       -1.758740   -0.833000   -0.569931
    7         20             0        1.600529   -1.106568   -0.570441
    8         20             0        0.157769    1.939331   -0.570541
 ---------------------------------------------------------------------
 Rotational constants (GHZ):      1.0154095      1.0153579      0.9038238
 Standard basis: 6-31+G(d,p) (6D, 7F)
 There are   180 symmetry adapted basis functions of A   symmetry.
 Integral buffers will be    131072 words long.
 Raffenetti 2 integral format.
 Two-electron integral symmetry is turned on.
   180 basis functions,   424 primitive gaussians,   180 cartesian basis functions
    53 alpha electrons       53 beta electrons
       nuclear repulsion energy       952.6922375609 Hartrees.
 NAtoms=    8 NActive=    8 NUniq=    8 SFac= 7.50D-01 NAtFMM=   80 NAOKFM=F Big=F
 One-electron integrals computed using PRISM.
 NBasis=   180 RedAO= T  NBF=   180
 NBsUse=   180 1.00D-06 NBFU=   180
 Harris functional with IExCor=  402 diagonalized for initial guess.
 ExpMin= 7.10D-03 ExpMax= 3.53D+04 ExpMxC= 5.30D+03 IAcc=3 IRadAn=         5 AccDes= 0.00D+00
 HarFok:  IExCor= 402 AccDes= 0.00D+00 IRadAn=         5 IDoV=1
 ScaDFX=  1.000000  1.000000  1.000000  1.000000
 Initial guess orbital symmetries:
       Occupied  (A) (A) (A) (A) (A) (A) (A) (A) (A) (A) (A) (A)
                 (A) (A) (A) (A) (A) (A) (A) (A) (A) (A) (A) (A)
                 (A) (A) (A) (A) (A) (A) (A) (A) (A) (A) (A) (A)
                 (A) (A) (A) (A) (A) (A) (A) (A) (A) (A) (A) (A)
                 (A) (A) (A) (A) (A)
       Virtual   (A) (A) (A) (A) (A) (A) (A) (A) (A) (A) (A) (A)
                 (A) (A) (A) (A) (A) (A) (A) (A) (A) (A) (A) (A)
                 (A) (A) (A) (A) (A) (A) (A) (A) (A) (A) (A) (A)
                 (A) (A) (A) (A) (A) (A) (A) (A) (A) (A) (A) (A)
                 (A) (A) (A) (A) (A) (A) (A) (A) (A) (A) (A) (A)
                 (A) (A) (A) (A) (A) (A) (A) (A) (A) (A) (A) (A)
                 (A) (A) (A) (A) (A) (A) (A) (A) (A) (A) (A) (A)
                 (A) (A) (A) (A) (A) (A) (A) (A) (A) (A) (A) (A)
                 (A) (A) (A) (A) (A) (A) (A) (A) (A) (A) (A) (A)
                 (A) (A) (A) (A) (A) (A) (A) (A) (A) (A) (A) (A)
                 (A) (A) (A) (A) (A) (A) (A)
 The electronic state of the initial guess is 1-A.
 Requested convergence on RMS density matrix=1.00D-04 within 128 cycles.
 Requested convergence on MAX density matrix=1.00D-02.
 Requested convergence on             energy=1.00D-02.
 No special actions if energy rises.
 SCF Done:  E(RB+HF-LYP) =  -2675.07103735     A.U. after    8 cycles
             Convg  =    0.8328D-04             -V/T =  2.0028
             S**2   =   0.0000

 **********************************************************************

            Population analysis using the SCF density.

 **********************************************************************

 Orbital symmetries:
       Occupied  (A) (A) (A) (A) (A) (A) (A) (A) (A) (A) (A) (A)
                 (A) (A) (A) (A) (A) (A) (A) (A) (A) (A) (A) (A)
                 (A) (A) (A) (A) (A) (A) (A) (A) (A) (A) (A) (A)
                 (A) (A) (A) (A) (A) (A) (A) (A) (A) (A) (A) (A)
                 (A) (A) (A) (A) (A)
       Virtual   (A) (A) (A) (A) (A) (A) (A) (A) (A) (A) (A) (A)
                 (A) (A) (A) (A) (A) (A) (A) (A) (A) (A) (A) (A)
                 (A) (A) (A) (A) (A) (A) (A) (A) (A) (A) (A) (A)
                 (A) (A) (A) (A) (A) (A) (A) (A) (A) (A) (A) (A)
                 (A) (A) (A) (A) (A) (A) (A) (A) (A) (A) (A) (A)
                 (A) (A) (A) (A) (A) (A) (A) (A) (A) (A) (A) (A)
                 (A) (A) (A) (A) (A) (A) (A) (A) (A) (A) (A) (A)
                 (A) (A) (A) (A) (A) (A) (A) (A) (A) (A) (A) (A)
                 (A) (A) (A) (A) (A) (A) (A) (A) (A) (A) (A) (A)
                 (A) (A) (A) (A) (A) (A) (A) (A) (A) (A) (A) (A)
                 (A) (A) (A) (A) (A) (A) (A)
 The electronic state is 1-A.
 Alpha  occ. eigenvalues -- -145.49642-145.49636-145.49635 -77.25056 -19.21227
 Alpha  occ. eigenvalues --  -19.21223 -19.21217 -19.15944 -15.56475 -15.56471
 Alpha  occ. eigenvalues --  -15.56471 -12.69672 -12.69671 -12.69670 -12.69649
 Alpha  occ. eigenvalues --  -12.69649 -12.69647 -12.69602 -12.69601 -12.69600
 Alpha  occ. eigenvalues --   -6.70086  -4.86434  -4.86434  -4.85898  -1.93824
 Alpha  occ. eigenvalues --   -1.93739  -1.93739  -1.22377  -1.21696  -1.21695
 Alpha  occ. eigenvalues --   -1.21307  -1.21140  -1.21065  -1.21064  -1.20643
 Alpha  occ. eigenvalues --   -1.20642  -1.06757  -1.00355  -1.00351  -0.90942
 Alpha  occ. eigenvalues --   -0.62641  -0.50526  -0.50524  -0.47959  -0.43356
 Alpha  occ. eigenvalues --   -0.43355  -0.38342  -0.38339  -0.38175  -0.36137
 Alpha  occ. eigenvalues --   -0.36137  -0.34593  -0.30860
 Alpha virt. eigenvalues --   -0.19950  -0.18027  -0.18027  -0.12555  -0.12554
 Alpha virt. eigenvalues --   -0.10894  -0.09478  -0.09477  -0.08338  -0.07772
 Alpha virt. eigenvalues --   -0.06545  -0.06114  -0.06114  -0.04765  -0.04715
 Alpha virt. eigenvalues --   -0.04715  -0.04673  -0.04474  -0.04472  -0.04004
 Alpha virt. eigenvalues --   -0.04003  -0.03232  -0.02944  -0.02943  -0.02358
 Alpha virt. eigenvalues --   -0.02357  -0.00867   0.01028   0.02176   0.02617
 Alpha virt. eigenvalues --    0.02617   0.04574   0.04574   0.05227   0.06003
 Alpha virt. eigenvalues --    0.06004   0.06293   0.06294   0.07291   0.07292
 Alpha virt. eigenvalues --    0.07382   0.07664   0.07665   0.07822   0.08466
 Alpha virt. eigenvalues --    0.10686   0.10686   0.11332   0.11803   0.13657
 Alpha virt. eigenvalues --    0.15680   0.15680   0.19890   0.19891   0.20368
 Alpha virt. eigenvalues --    0.22086   0.22088   0.23483   0.23992   0.25318
 Alpha virt. eigenvalues --    0.25960   0.25961   0.30034   0.31450   0.31451
 Alpha virt. eigenvalues --    0.35744   0.36003   0.36004   0.37864   0.39081
 Alpha virt. eigenvalues --    0.39082   0.39776   0.45829   0.45830   0.53630
 Alpha virt. eigenvalues --    0.53630   0.55848   0.63366   0.63369   0.67679
 Alpha virt. eigenvalues --    0.82892   0.86951   0.86954   0.94101   0.94104
 Alpha virt. eigenvalues --    1.14551   1.16755   1.16757   1.18031   1.20778
 Alpha virt. eigenvalues --    1.21972   1.21976   1.23406   1.23408   1.28213
 Alpha virt. eigenvalues --    1.34163   1.34172   1.36428   1.54460   1.54469
 Alpha virt. eigenvalues --    1.57768   1.68374   1.71623   1.73146   1.73148
 Alpha virt. eigenvalues --    1.77482   1.77485   1.87077   1.87368   1.87369
 Alpha virt. eigenvalues --    1.88072   1.92073   1.92078   1.93328   1.98434
 Alpha virt. eigenvalues --    1.98437   2.03015   2.03018   2.14776   2.38164
 Alpha virt. eigenvalues --    2.55147   2.55153   3.54376   4.05620   4.14277
 Alpha virt. eigenvalues --    4.14287   4.31215
          Condensed to atoms (all electrons):
              1          2          3          4          5          6
     1  O    8.965860   0.058622   0.058640   0.023968  -0.200726   0.059819
     2  O    0.058622   8.965744   0.058637   0.023964  -0.200672   0.059834
     3  O    0.058640   0.058637   8.965889   0.023966  -0.200783   0.006214
     4  O    0.023968   0.023964   0.023966   8.852774  -0.039957   0.122128
     5  P   -0.200726  -0.200672  -0.200783  -0.039957  14.442712   0.033805
     6  Ca   0.059819   0.059834   0.006214   0.122128   0.033805  18.396816
     7  Ca   0.006248   0.059873   0.059860   0.122122   0.033773  -0.047626
     8  Ca   0.059856   0.006232   0.059843   0.122132   0.033771  -0.047624
              7          8
     1  O    0.006248   0.059856
     2  O    0.059873   0.006232
     3  O    0.059860   0.059843
     4  O    0.122122   0.122132
     5  P    0.033773   0.033771
     6  Ca  -0.047626  -0.047624
     7  Ca  18.396851  -0.047678
     8  Ca  -0.047678  18.396873
 Mulliken atomic charges:
              1
     1  O   -1.032286
     2  O   -1.032233
     3  O   -1.032266
     4  O   -1.251097
     5  P    1.098076
     6  Ca   1.416634
     7  Ca   1.416577
     8  Ca   1.416595
 Sum of Mulliken charges=   1.00000
 Atomic charges with hydrogens summed into heavy atoms:
              1
     1  O   -1.032286
     2  O   -1.032233
     3  O   -1.032266
     4  O   -1.251097
     5  P    1.098076
     6  Ca   1.416634
     7  Ca   1.416577
     8  Ca   1.416595
 Sum of Mulliken charges=   1.00000
 Electronic spatial extent (au):  <R**2>=  1510.1718
 Charge=     1.0000 electrons
 Dipole moment (field-independent basis, Debye):
    X=    -0.0025    Y=    -0.0018    Z=    -8.2324  Tot=     8.2324
 Quadrupole moment (field-independent basis, Debye-Ang):
   XX=   -40.0337   YY=   -40.0335   ZZ=   -90.0146
   XY=    -0.0015   XZ=    -0.0076   YZ=    -0.0062
 Traceless Quadrupole moment (field-independent basis, Debye-Ang):
   XX=    16.6602   YY=    16.6604   ZZ=   -33.3206
   XY=    -0.0015   XZ=    -0.0076   YZ=    -0.0062
 Octapole moment (field-independent basis, Debye-Ang**2):
  XXX=   -14.1775  YYY=    56.8459  ZZZ=    -1.6987  XYY=    14.1319
  XXY=   -56.8764  XXZ=   -46.6755  XZZ=     0.0161  YZZ=     0.0087
  YYZ=   -46.6895  XYZ=     0.0088
 Hexadecapole moment (field-independent basis, Debye-Ang**3):
 XXXX=  -416.0484 YYYY=  -416.0258 ZZZZ=  -721.8195 XXXY=     0.0071
 XXXZ=     3.6938 YYYX=    -0.0102 YYYZ=   -15.0037 ZZZX=    -0.0444
 ZZZY=    -0.0271 XXYY=  -138.6763 XXZZ=  -187.6166 YYZZ=  -187.6002
 XXYZ=    14.9740 YYXZ=    -3.7365 ZZXY=    -0.0024
 N-N= 9.526922375609D+02 E-N=-8.229859983211D+03  KE= 2.667694102756D+03
 Merz-Kollman atomic radii used.
 Read replacement radii for each type of atom:
 Rad(20) =   1.188000000000D+00
 Atom Element Radius
    1     8    1.40
    2     8    1.40
    3     8    1.40
    4     8    1.40
    5    15    1.80
    6    20    1.19
    7    20    1.19
    8    20    1.19

 **********************************************************************

            Electrostatic Properties Using The SCF Density

 **********************************************************************

       Atomic Center    1 is at  -1.217912  0.842054  0.922769
       Atomic Center    2 is at  -0.120061 -1.475705  0.922669
       Atomic Center    3 is at   1.338531  0.633992  0.922069
       Atomic Center    4 is at  -0.000329 -0.000209 -1.711991
       Atomic Center    5 is at   0.000467  0.000244  1.718279
       Atomic Center    6 is at  -1.758740 -0.833000 -0.569931
       Atomic Center    7 is at   1.600529 -1.106568 -0.570441
       Atomic Center    8 is at   0.157769  1.939331 -0.570541
     671 points will be used for fitting atomic charges
 Fitting point charges to eletrostatic potential
 Charges from ESP fit, RMS=   0.00609 RRMS=   0.03752:
 Charge=   1.00000 Dipole=    -0.0390    -0.0076    -8.4104 Tot=     8.4105
              1
     1  O   -0.943081
     2  O   -0.942524
     3  O   -0.947968
     4  O   -1.630496
     5  P    0.518999
     6  Ca   1.648299
     7  Ca   1.647563
     8  Ca   1.649208
 -----------------------------------------------------------------

              Electrostatic Properties (Atomic Units)

 -----------------------------------------------------------------
    Center     Electric         -------- Electric Field --------
               Potential          X             Y             Z
 -----------------------------------------------------------------
    1 Atom    -22.251296
    2 Atom    -22.251172
    3 Atom    -22.251364
    4 Atom    -22.290875
    5 Atom    -53.968045
    6 Atom    -80.043277
    7 Atom    -80.043292
    8 Atom    -80.043291
 -----------------------------------------------------------------
 1\1\GINC-N025\SP\RB3LYP\6-31+G(d,p)\Ca3O4P1(1+)\TIMN\12-Jun-2015\0\\# 
 b3lyp/6-31+G(d,p) int=ultrafine pop=(ReadRadii,MK)\\Ca3PO4_150.mol2_pl
 usQ.z51155.zip.xyz\\1,1\O,0,-1.24545,0.80076,0.92277\O,0,-0.07053,-1.4
 789,0.92267\O,0,1.31653,0.6785,0.92207\O,0,-0.00032,-0.00022,-1.71199\
 P,0,0.00046,0.00026,1.71828\Ca,0,-1.72983,-0.89148,-0.56993\Ca,0,1.636
 72,-1.0523,-0.57044\Ca,0,0.09268,1.94353,-0.57054\\Version=EM64T-G03Re
 vE.01\State=1-A\HF=-2675.0710373\RMSD=8.328e-05\Thermal=0.\Dipole=-0.0
 009702,-0.0007356,-3.2388826\PG=C01 [X(Ca3O4P1)]\\@


 EXPERIMENTALISTS THINK SILICON IS REALLY FUN TO USE
     ITS PLACE IN NOVEL COMPOUNDS IS CERTAIN TO AMUSE
 THEY SIT ALL DAY IN LABORATORIES MAKING ALL THIS SLUDGE
     "LOADED WITH THE SILICON THEY SAY", TO ME IT LOOKS LIKE FUDGE.
 FOR HAPPY THOUGH THEY BE WITH CRUD, I'D LIKE TO KNOW A LITTLE
      ABOUT THE PI BONDS ON THE EDGE AND SIGMAS IN THE MIDDLE.

 SO LETS DERIVE A WAVEFUNCTION.....6-31G*
     USE AN OPTIMAL GEOMETRY AND SEE WHERE ELECTRONS ARE.
 BUT WHAT OF CORRELATION?  ASKS THE WIRY LITTLE SKEPTIC.
     WE'LL THROW IN PERTURBATION AS AN ELECTRON ANTISEPTIC.
 AND WHEN THE PROGRAM GIVES US ANSWERS IN THEM WE CAN TRUST
     SINCE NOBODY CAN MAKE THE STUFF, WE HAVE NO CHOICE, WE MUST.

 SO THEORY GUYS HAVE GOT IT MADE, IN ROOMS FREE OF POLLUTION.
     INSTEAD OF PROBLEMS WITH THE REFLUX, THEY HAVE ONLY SOLUTIONS.
 AND WHEN THE FEDS ANNOUNCE THE LIST OF CARCINOGENIC TERRORS,
     THE THEORISTS SIT SAFELY AT THEIR TERMINALS FIXING ERRORS.
 IN OTHER WORDS, EXPERIMENTALISTS WILL LIKELY DIE OF CANCER
     FROM WORKING HARD YET FRUITLESSLY...TILL THEORY GIVES THE ANSWER.
          -- THOMAS A. HOLME, 1983
 Job cpu time:  0 days  0 hours  1 minutes 41.8 seconds.
 File lengths (MBytes):  RWF=     32 Int=      0 D2E=      0 Chk=     11 Scr=      1
 Normal termination of Gaussian 03 at Fri Jun 12 17:38:24 2015.
