 Entering Gaussian System, Link 0=/home/timn/tmp/g03.e01/g03
 Input=Ca3PO4_198.mol2c_plusQ.z51207.zip.xyz.gjf
 Output=Ca3PO4_198.mol2c_plusQ.z51207.zip.xyz.out
 Initial command:
 /home/timn/tmp/g03.e01/l1.exe /home/timn/tmp/g03.e01/Gau-17132.inp -scrdir=/home/timn/tmp/g03.e01/
 Default is to use a total of   2 processors:
                                2 via shared-memory
                                1 via Linda
 Entering Link 1 = /home/timn/tmp/g03.e01/l1.exe PID=     17133.
  
 Copyright (c) 1988,1990,1992,1993,1995,1998,2003,2004,2007, Gaussian, Inc.
                  All Rights Reserved.
  
 This is the Gaussian(R) 03 program.  It is based on the
 the Gaussian(R) 98 system (copyright 1998, Gaussian, Inc.),
 the Gaussian(R) 94 system (copyright 1995, Gaussian, Inc.),
 the Gaussian 92(TM) system (copyright 1992, Gaussian, Inc.),
 the Gaussian 90(TM) system (copyright 1990, Gaussian, Inc.),
 the Gaussian 88(TM) system (copyright 1988, Gaussian, Inc.),
 the Gaussian 86(TM) system (copyright 1986, Carnegie Mellon
 University), and the Gaussian 82(TM) system (copyright 1983,
 Carnegie Mellon University). Gaussian is a federally registered
 trademark of Gaussian, Inc.
  
 This software contains proprietary and confidential information,
 including trade secrets, belonging to Gaussian, Inc.
  
 This software is provided under written license and may be
 used, copied, transmitted, or stored only in accord with that
 written license.
  
 The following legend is applicable only to US Government
 contracts under FAR:
  
                    RESTRICTED RIGHTS LEGEND
  
 Use, reproduction and disclosure by the US Government is
 subject to restrictions as set forth in subparagraphs (a)
 and (c) of the Commercial Computer Software - Restricted
 Rights clause in FAR 52.227-19.
  
 Gaussian, Inc.
 340 Quinnipiac St., Bldg. 40, Wallingford CT 06492
  
  
 ---------------------------------------------------------------
 Warning -- This program may not be used in any manner that
 competes with the business of Gaussian, Inc. or will provide
 assistance to any competitor of Gaussian, Inc.  The licensee
 of this program is prohibited from giving any competitor of
 Gaussian, Inc. access to this program.  By using this program,
 the user acknowledges that Gaussian, Inc. is engaged in the
 business of creating and licensing software in the field of
 computational chemistry and represents and warrants to the
 licensee that it is not a competitor of Gaussian, Inc. and that
 it will not use this program in any manner prohibited above.
 ---------------------------------------------------------------
  

 Cite this work as:
 Gaussian 03, Revision E.01,
 M. J. Frisch, G. W. Trucks, H. B. Schlegel, G. E. Scuseria, 
 M. A. Robb, J. R. Cheeseman, J. A. Montgomery, Jr., T. Vreven, 
 K. N. Kudin, J. C. Burant, J. M. Millam, S. S. Iyengar, J. Tomasi, 
 V. Barone, B. Mennucci, M. Cossi, G. Scalmani, N. Rega, 
 G. A. Petersson, H. Nakatsuji, M. Hada, M. Ehara, K. Toyota, 
 R. Fukuda, J. Hasegawa, M. Ishida, T. Nakajima, Y. Honda, O. Kitao, 
 H. Nakai, M. Klene, X. Li, J. E. Knox, H. P. Hratchian, J. B. Cross, 
 V. Bakken, C. Adamo, J. Jaramillo, R. Gomperts, R. E. Stratmann, 
 O. Yazyev, A. J. Austin, R. Cammi, C. Pomelli, J. W. Ochterski, 
 P. Y. Ayala, K. Morokuma, G. A. Voth, P. Salvador, J. J. Dannenberg, 
 V. G. Zakrzewski, S. Dapprich, A. D. Daniels, M. C. Strain, 
 O. Farkas, D. K. Malick, A. D. Rabuck, K. Raghavachari, 
 J. B. Foresman, J. V. Ortiz, Q. Cui, A. G. Baboul, S. Clifford, 
 J. Cioslowski, B. B. Stefanov, G. Liu, A. Liashenko, P. Piskorz, 
 I. Komaromi, R. L. Martin, D. J. Fox, T. Keith, M. A. Al-Laham, 
 C. Y. Peng, A. Nanayakkara, M. Challacombe, P. M. W. Gill, 
 B. Johnson, W. Chen, M. W. Wong, C. Gonzalez, and J. A. Pople, 
 Gaussian, Inc., Wallingford CT, 2004.
 
 ******************************************
 Gaussian 03:  EM64T-G03RevE.01 11-Sep-2007
                12-Jun-2015 
 ******************************************
 %nproc=2
 Will use up to    2 processors via shared memory.
 Default route:  MP2=Direct MaxDisk=2000MB
 ----------------------------------------------------
 # b3lyp/6-31+G(d,p) int=ultrafine pop=(ReadRadii,MK)
 ----------------------------------------------------

 Warning!  SCF SP cutoffs with diffuse functions may be unreliable.
 Consider SCF=Tight

 1/38=1/1;
 2/17=6,18=5,40=1/2;
 3/5=1,6=6,7=111,11=2,16=1,25=1,30=1,74=-5,75=5/1,2,3;
 4//1;
 5/5=2,32=1,38=5/2;
 6/7=2,8=2,9=2,10=2,15=8,20=101,28=1/1,2;
 99/5=1,9=1/99;
 -------------------------------------
 Ca3PO4_198.mol2c_plusQ.z51207.zip.xyz
 -------------------------------------
 Symbolic Z-matrix:
 Charge =  1 Multiplicity = 1
 O                    -0.12523  -1.47573   0.92171 
 O                    -1.21562   0.84557   0.92226 
 O                     0.00058   0.00029  -1.712 
 O                     1.34002   0.6293    0.92328 
 P                    -0.00076  -0.00076   1.71819 
 Ca                    0.16445   1.93889  -0.56974 
 Ca                    1.59746  -1.11126  -0.5701 
 Ca                   -1.76124  -0.82684  -0.57091 
 
                          Input orientation:                          
 ---------------------------------------------------------------------
 Center     Atomic     Atomic              Coordinates (Angstroms)
 Number     Number      Type              X           Y           Z
 ---------------------------------------------------------------------
    1          8             0       -0.125230   -1.475730    0.921710
    2          8             0       -1.215620    0.845570    0.922260
    3          8             0        0.000580    0.000290   -1.712000
    4          8             0        1.340020    0.629300    0.923280
    5         15             0       -0.000760   -0.000760    1.718190
    6         20             0        0.164450    1.938890   -0.569740
    7         20             0        1.597460   -1.111260   -0.570100
    8         20             0       -1.761240   -0.826840   -0.570910
 ---------------------------------------------------------------------
                    Distance matrix (angstroms):
                    1          2          3          4          5
     1  O    0.000000
     2  O    2.564641   0.000000
     3  O    3.021737   3.022080   0.000000
     4  O    2.564783   2.564775   3.022326   0.000000
     5  P    1.680895   1.680971   3.430190   1.681234   0.000000
     6  Ca   3.737374   2.307814   2.256054   2.307834   3.004024
     7  Ca   2.307812   3.737612   2.255993   2.307815   3.003962
     8  Ca   2.307705   2.307426   2.256156   3.737748   3.003611
                    6          7          8
     6  Ca   0.000000
     7  Ca   3.370005   0.000000
     8  Ca   3.370096   3.370721   0.000000
 Stoichiometry    Ca3O4P(1+)
 Framework group  C1[X(Ca3O4P)]
 Deg. of freedom    18
 Full point group                 C1
 Largest Abelian subgroup         C1      NOp   1
 Largest concise Abelian subgroup C1      NOp   1
                         Standard orientation:                         
 ---------------------------------------------------------------------
 Center     Atomic     Atomic              Coordinates (Angstroms)
 Number     Number      Type              X           Y           Z
 ---------------------------------------------------------------------
    1          8             0       -0.123645   -1.475862    0.921711
    2          8             0       -1.216528    0.844265    0.922261
    3          8             0        0.000580    0.000292   -1.711999
    4          8             0        1.339343    0.630740    0.923281
    5         15             0       -0.000759   -0.000759    1.718191
    6         20             0        0.162367    1.939067   -0.569739
    7         20             0        1.598653   -1.109542   -0.570099
    8         20             0       -1.760351   -0.828730   -0.570909
 ---------------------------------------------------------------------
 Rotational constants (GHZ):      1.0155805      1.0153242      0.9038551
 Standard basis: 6-31+G(d,p) (6D, 7F)
 There are   180 symmetry adapted basis functions of A   symmetry.
 Integral buffers will be    131072 words long.
 Raffenetti 2 integral format.
 Two-electron integral symmetry is turned on.
   180 basis functions,   424 primitive gaussians,   180 cartesian basis functions
    53 alpha electrons       53 beta electrons
       nuclear repulsion energy       952.7188033833 Hartrees.
 NAtoms=    8 NActive=    8 NUniq=    8 SFac= 7.50D-01 NAtFMM=   80 NAOKFM=F Big=F
 One-electron integrals computed using PRISM.
 NBasis=   180 RedAO= T  NBF=   180
 NBsUse=   180 1.00D-06 NBFU=   180
 Harris functional with IExCor=  402 diagonalized for initial guess.
 ExpMin= 7.10D-03 ExpMax= 3.53D+04 ExpMxC= 5.30D+03 IAcc=3 IRadAn=         5 AccDes= 0.00D+00
 HarFok:  IExCor= 402 AccDes= 0.00D+00 IRadAn=         5 IDoV=1
 ScaDFX=  1.000000  1.000000  1.000000  1.000000
 Initial guess orbital symmetries:
       Occupied  (A) (A) (A) (A) (A) (A) (A) (A) (A) (A) (A) (A)
                 (A) (A) (A) (A) (A) (A) (A) (A) (A) (A) (A) (A)
                 (A) (A) (A) (A) (A) (A) (A) (A) (A) (A) (A) (A)
                 (A) (A) (A) (A) (A) (A) (A) (A) (A) (A) (A) (A)
                 (A) (A) (A) (A) (A)
       Virtual   (A) (A) (A) (A) (A) (A) (A) (A) (A) (A) (A) (A)
                 (A) (A) (A) (A) (A) (A) (A) (A) (A) (A) (A) (A)
                 (A) (A) (A) (A) (A) (A) (A) (A) (A) (A) (A) (A)
                 (A) (A) (A) (A) (A) (A) (A) (A) (A) (A) (A) (A)
                 (A) (A) (A) (A) (A) (A) (A) (A) (A) (A) (A) (A)
                 (A) (A) (A) (A) (A) (A) (A) (A) (A) (A) (A) (A)
                 (A) (A) (A) (A) (A) (A) (A) (A) (A) (A) (A) (A)
                 (A) (A) (A) (A) (A) (A) (A) (A) (A) (A) (A) (A)
                 (A) (A) (A) (A) (A) (A) (A) (A) (A) (A) (A) (A)
                 (A) (A) (A) (A) (A) (A) (A) (A) (A) (A) (A) (A)
                 (A) (A) (A) (A) (A) (A) (A)
 The electronic state of the initial guess is 1-A.
 Requested convergence on RMS density matrix=1.00D-04 within 128 cycles.
 Requested convergence on MAX density matrix=1.00D-02.
 Requested convergence on             energy=1.00D-02.
 No special actions if energy rises.
 SCF Done:  E(RB+HF-LYP) =  -2675.07103704     A.U. after    8 cycles
             Convg  =    0.8331D-04             -V/T =  2.0028
             S**2   =   0.0000

 **********************************************************************

            Population analysis using the SCF density.

 **********************************************************************

 Orbital symmetries:
       Occupied  (A) (A) (A) (A) (A) (A) (A) (A) (A) (A) (A) (A)
                 (A) (A) (A) (A) (A) (A) (A) (A) (A) (A) (A) (A)
                 (A) (A) (A) (A) (A) (A) (A) (A) (A) (A) (A) (A)
                 (A) (A) (A) (A) (A) (A) (A) (A) (A) (A) (A) (A)
                 (A) (A) (A) (A) (A)
       Virtual   (A) (A) (A) (A) (A) (A) (A) (A) (A) (A) (A) (A)
                 (A) (A) (A) (A) (A) (A) (A) (A) (A) (A) (A) (A)
                 (A) (A) (A) (A) (A) (A) (A) (A) (A) (A) (A) (A)
                 (A) (A) (A) (A) (A) (A) (A) (A) (A) (A) (A) (A)
                 (A) (A) (A) (A) (A) (A) (A) (A) (A) (A) (A) (A)
                 (A) (A) (A) (A) (A) (A) (A) (A) (A) (A) (A) (A)
                 (A) (A) (A) (A) (A) (A) (A) (A) (A) (A) (A) (A)
                 (A) (A) (A) (A) (A) (A) (A) (A) (A) (A) (A) (A)
                 (A) (A) (A) (A) (A) (A) (A) (A) (A) (A) (A) (A)
                 (A) (A) (A) (A) (A) (A) (A) (A) (A) (A) (A) (A)
                 (A) (A) (A) (A) (A) (A) (A)
 The electronic state is 1-A.
 Alpha  occ. eigenvalues -- -145.49641-145.49635-145.49634 -77.25056 -19.21229
 Alpha  occ. eigenvalues --  -19.21224 -19.21217 -19.15943 -15.56474 -15.56470
 Alpha  occ. eigenvalues --  -15.56470 -12.69671 -12.69670 -12.69669 -12.69649
 Alpha  occ. eigenvalues --  -12.69648 -12.69645 -12.69601 -12.69600 -12.69599
 Alpha  occ. eigenvalues --   -6.70086  -4.86435  -4.86435  -4.85898  -1.93823
 Alpha  occ. eigenvalues --   -1.93739  -1.93738  -1.22377  -1.21695  -1.21694
 Alpha  occ. eigenvalues --   -1.21306  -1.21139  -1.21064  -1.21064  -1.20642
 Alpha  occ. eigenvalues --   -1.20642  -1.06759  -1.00359  -1.00350  -0.90941
 Alpha  occ. eigenvalues --   -0.62642  -0.50528  -0.50526  -0.47961  -0.43358
 Alpha  occ. eigenvalues --   -0.43357  -0.38345  -0.38340  -0.38177  -0.36137
 Alpha  occ. eigenvalues --   -0.36136  -0.34593  -0.30860
 Alpha virt. eigenvalues --   -0.19950  -0.18026  -0.18026  -0.12555  -0.12553
 Alpha virt. eigenvalues --   -0.10894  -0.09478  -0.09477  -0.08338  -0.07772
 Alpha virt. eigenvalues --   -0.06545  -0.06114  -0.06113  -0.04765  -0.04716
 Alpha virt. eigenvalues --   -0.04714  -0.04673  -0.04473  -0.04473  -0.04004
 Alpha virt. eigenvalues --   -0.04003  -0.03232  -0.02943  -0.02943  -0.02358
 Alpha virt. eigenvalues --   -0.02357  -0.00867   0.01028   0.02176   0.02616
 Alpha virt. eigenvalues --    0.02617   0.04574   0.04575   0.05227   0.06003
 Alpha virt. eigenvalues --    0.06004   0.06293   0.06294   0.07291   0.07293
 Alpha virt. eigenvalues --    0.07382   0.07663   0.07667   0.07823   0.08467
 Alpha virt. eigenvalues --    0.10685   0.10687   0.11333   0.11804   0.13657
 Alpha virt. eigenvalues --    0.15678   0.15683   0.19890   0.19892   0.20369
 Alpha virt. eigenvalues --    0.22086   0.22090   0.23484   0.23993   0.25319
 Alpha virt. eigenvalues --    0.25961   0.25963   0.30034   0.31450   0.31453
 Alpha virt. eigenvalues --    0.35744   0.36003   0.36006   0.37868   0.39080
 Alpha virt. eigenvalues --    0.39084   0.39777   0.45831   0.45832   0.53628
 Alpha virt. eigenvalues --    0.53635   0.55849   0.63366   0.63370   0.67679
 Alpha virt. eigenvalues --    0.82894   0.86954   0.86959   0.94099   0.94113
 Alpha virt. eigenvalues --    1.14553   1.16754   1.16757   1.18031   1.20781
 Alpha virt. eigenvalues --    1.21969   1.21975   1.23404   1.23409   1.28213
 Alpha virt. eigenvalues --    1.34168   1.34174   1.36429   1.54459   1.54470
 Alpha virt. eigenvalues --    1.57770   1.68375   1.71621   1.73144   1.73148
 Alpha virt. eigenvalues --    1.77480   1.77484   1.87079   1.87368   1.87373
 Alpha virt. eigenvalues --    1.88072   1.92075   1.92077   1.93329   1.98436
 Alpha virt. eigenvalues --    1.98437   2.03017   2.03022   2.14781   2.38167
 Alpha virt. eigenvalues --    2.55139   2.55167   3.54376   4.05622   4.14280
 Alpha virt. eigenvalues --    4.14288   4.31218
          Condensed to atoms (all electrons):
              1          2          3          4          5          6
     1  O    8.965815   0.058719   0.023972   0.058619  -0.200832   0.006197
     2  O    0.058719   8.966088   0.023994   0.058660  -0.201007   0.059797
     3  O    0.023972   0.023994   8.852742   0.023952  -0.039961   0.122139
     4  O    0.058619   0.058660   0.023952   8.965677  -0.200625   0.059845
     5  P   -0.200832  -0.201007  -0.039961  -0.200625  14.443026   0.033791
     6  Ca   0.006197   0.059797   0.122139   0.059845   0.033791  18.396974
     7  Ca   0.059836   0.006231   0.122135   0.059876   0.033749  -0.047617
     8  Ca   0.059867   0.059852   0.122111   0.006252   0.033794  -0.047686
              7          8
     1  O    0.059836   0.059867
     2  O    0.006231   0.059852
     3  O    0.122135   0.122111
     4  O    0.059876   0.006252
     5  P    0.033749   0.033794
     6  Ca  -0.047617  -0.047686
     7  Ca  18.396816  -0.047665
     8  Ca  -0.047665  18.396874
 Mulliken atomic charges:
              1
     1  O   -1.032192
     2  O   -1.032335
     3  O   -1.251085
     4  O   -1.032255
     5  P    1.098066
     6  Ca   1.416561
     7  Ca   1.416639
     8  Ca   1.416602
 Sum of Mulliken charges=   1.00000
 Atomic charges with hydrogens summed into heavy atoms:
              1
     1  O   -1.032192
     2  O   -1.032335
     3  O   -1.251085
     4  O   -1.032255
     5  P    1.098066
     6  Ca   1.416561
     7  Ca   1.416639
     8  Ca   1.416602
 Sum of Mulliken charges=   1.00000
 Electronic spatial extent (au):  <R**2>=  1510.0955
 Charge=     1.0000 electrons
 Dipole moment (field-independent basis, Debye):
    X=     0.0023    Y=     0.0033    Z=    -8.2307  Tot=     8.2307
 Quadrupole moment (field-independent basis, Debye-Ang):
   XX=   -40.0240   YY=   -40.0434   ZZ=   -90.0153
   XY=    -0.0017   XZ=     0.0116   YZ=     0.0072
 Traceless Quadrupole moment (field-independent basis, Debye-Ang):
   XX=    16.6702   YY=    16.6508   ZZ=   -33.3211
   XY=    -0.0017   XZ=     0.0116   YZ=     0.0072
 Octapole moment (field-independent basis, Debye-Ang**2):
  XXX=   -14.4717  YYY=    56.8060  ZZZ=    -1.6944  XYY=    14.5242
  XXY=   -56.7620  XXZ=   -46.7048  XZZ=    -0.0292  YZZ=    -0.0237
  YYZ=   -46.6472  XYZ=    -0.0135
 Hexadecapole moment (field-independent basis, Debye-Ang**3):
 XXXX=  -416.0520 YYYY=  -415.9562 ZZZZ=  -721.7698 XXXY=    -0.0289
 XXXZ=     3.8710 YYYX=     0.0026 YYYZ=   -14.9073 ZZZX=     0.0671
 ZZZY=     0.0538 XXYY=  -138.6857 XXZZ=  -187.6057 YYZZ=  -187.5883
 XXYZ=    14.9693 YYXZ=    -3.8087 ZZXY=     0.0003
 N-N= 9.527188033833D+02 E-N=-8.229913704934D+03  KE= 2.667694664101D+03
 Merz-Kollman atomic radii used.
 Read replacement radii for each type of atom:
 Rad(20) =   1.188000000000D+00
 Atom Element Radius
    1     8    1.40
    2     8    1.40
    3     8    1.40
    4     8    1.40
    5    15    1.80
    6    20    1.19
    7    20    1.19
    8    20    1.19

 **********************************************************************

            Electrostatic Properties Using The SCF Density

 **********************************************************************

       Atomic Center    1 is at  -0.123645 -1.475862  0.921711
       Atomic Center    2 is at  -1.216528  0.844265  0.922261
       Atomic Center    3 is at   0.000580  0.000292 -1.711999
       Atomic Center    4 is at   1.339343  0.630740  0.923281
       Atomic Center    5 is at  -0.000759 -0.000759  1.718191
       Atomic Center    6 is at   0.162367  1.939067 -0.569739
       Atomic Center    7 is at   1.598653 -1.109542 -0.570099
       Atomic Center    8 is at  -1.760351 -0.828730 -0.570909
     668 points will be used for fitting atomic charges
 Fitting point charges to eletrostatic potential
 Charges from ESP fit, RMS=   0.00605 RRMS=   0.03721:
 Charge=   1.00000 Dipole=    -0.0252     0.0026    -8.4250 Tot=     8.4250
              1
     1  O   -0.944666
     2  O   -0.945413
     3  O   -1.631295
     4  O   -0.947371
     5  P    0.519588
     6  Ca   1.650187
     7  Ca   1.648535
     8  Ca   1.650434
 -----------------------------------------------------------------

              Electrostatic Properties (Atomic Units)

 -----------------------------------------------------------------
    Center     Electric         -------- Electric Field --------
               Potential          X             Y             Z
 -----------------------------------------------------------------
    1 Atom    -22.251252
    2 Atom    -22.251384
    3 Atom    -22.290886
    4 Atom    -22.251181
    5 Atom    -53.968040
    6 Atom    -80.043292
    7 Atom    -80.043297
    8 Atom    -80.043305
 -----------------------------------------------------------------
 1\1\GINC-N025\SP\RB3LYP\6-31+G(d,p)\Ca3O4P1(1+)\TIMN\12-Jun-2015\0\\# 
 b3lyp/6-31+G(d,p) int=ultrafine pop=(ReadRadii,MK)\\Ca3PO4_198.mol2c_p
 lusQ.z51207.zip.xyz\\1,1\O,0,-0.12523,-1.47573,0.92171\O,0,-1.21562,0.
 84557,0.92226\O,0,0.00058,0.00029,-1.712\O,0,1.34002,0.6293,0.92328\P,
 0,-0.00076,-0.00076,1.71819\Ca,0,0.16445,1.93889,-0.56974\Ca,0,1.59746
 ,-1.11126,-0.5701\Ca,0,-1.76124,-0.82684,-0.57091\\Version=EM64T-G03Re
 vE.01\State=1-A\HF=-2675.071037\RMSD=8.331e-05\Thermal=0.\Dipole=0.000
 8867,0.0013025,-3.2382116\PG=C01 [X(Ca3O4P1)]\\@


 IF AT FIRST YOU DON'T SUCCEED, TRY LOOKING IN 
 THE WASTEBASKET FOR THE DIRECTIONS.
 Job cpu time:  0 days  0 hours  1 minutes 42.2 seconds.
 File lengths (MBytes):  RWF=     32 Int=      0 D2E=      0 Chk=     11 Scr=      1
 Normal termination of Gaussian 03 at Fri Jun 12 17:41:05 2015.
