 Entering Gaussian System, Link 0=/home/timn/tmp/g03.e01/g03
 Input=Ca3PO4_45.mol2c_plusQ.z51458.zip.xyz.gjf
 Output=Ca3PO4_45.mol2c_plusQ.z51458.zip.xyz.out
 Initial command:
 /home/timn/tmp/g03.e01/l1.exe /home/timn/tmp/g03.e01/Gau-18875.inp -scrdir=/home/timn/tmp/g03.e01/
 Default is to use a total of   2 processors:
                                2 via shared-memory
                                1 via Linda
 Entering Link 1 = /home/timn/tmp/g03.e01/l1.exe PID=     18876.
  
 Copyright (c) 1988,1990,1992,1993,1995,1998,2003,2004,2007, Gaussian, Inc.
                  All Rights Reserved.
  
 This is the Gaussian(R) 03 program.  It is based on the
 the Gaussian(R) 98 system (copyright 1998, Gaussian, Inc.),
 the Gaussian(R) 94 system (copyright 1995, Gaussian, Inc.),
 the Gaussian 92(TM) system (copyright 1992, Gaussian, Inc.),
 the Gaussian 90(TM) system (copyright 1990, Gaussian, Inc.),
 the Gaussian 88(TM) system (copyright 1988, Gaussian, Inc.),
 the Gaussian 86(TM) system (copyright 1986, Carnegie Mellon
 University), and the Gaussian 82(TM) system (copyright 1983,
 Carnegie Mellon University). Gaussian is a federally registered
 trademark of Gaussian, Inc.
  
 This software contains proprietary and confidential information,
 including trade secrets, belonging to Gaussian, Inc.
  
 This software is provided under written license and may be
 used, copied, transmitted, or stored only in accord with that
 written license.
  
 The following legend is applicable only to US Government
 contracts under FAR:
  
                    RESTRICTED RIGHTS LEGEND
  
 Use, reproduction and disclosure by the US Government is
 subject to restrictions as set forth in subparagraphs (a)
 and (c) of the Commercial Computer Software - Restricted
 Rights clause in FAR 52.227-19.
  
 Gaussian, Inc.
 340 Quinnipiac St., Bldg. 40, Wallingford CT 06492
  
  
 ---------------------------------------------------------------
 Warning -- This program may not be used in any manner that
 competes with the business of Gaussian, Inc. or will provide
 assistance to any competitor of Gaussian, Inc.  The licensee
 of this program is prohibited from giving any competitor of
 Gaussian, Inc. access to this program.  By using this program,
 the user acknowledges that Gaussian, Inc. is engaged in the
 business of creating and licensing software in the field of
 computational chemistry and represents and warrants to the
 licensee that it is not a competitor of Gaussian, Inc. and that
 it will not use this program in any manner prohibited above.
 ---------------------------------------------------------------
  

 Cite this work as:
 Gaussian 03, Revision E.01,
 M. J. Frisch, G. W. Trucks, H. B. Schlegel, G. E. Scuseria, 
 M. A. Robb, J. R. Cheeseman, J. A. Montgomery, Jr., T. Vreven, 
 K. N. Kudin, J. C. Burant, J. M. Millam, S. S. Iyengar, J. Tomasi, 
 V. Barone, B. Mennucci, M. Cossi, G. Scalmani, N. Rega, 
 G. A. Petersson, H. Nakatsuji, M. Hada, M. Ehara, K. Toyota, 
 R. Fukuda, J. Hasegawa, M. Ishida, T. Nakajima, Y. Honda, O. Kitao, 
 H. Nakai, M. Klene, X. Li, J. E. Knox, H. P. Hratchian, J. B. Cross, 
 V. Bakken, C. Adamo, J. Jaramillo, R. Gomperts, R. E. Stratmann, 
 O. Yazyev, A. J. Austin, R. Cammi, C. Pomelli, J. W. Ochterski, 
 P. Y. Ayala, K. Morokuma, G. A. Voth, P. Salvador, J. J. Dannenberg, 
 V. G. Zakrzewski, S. Dapprich, A. D. Daniels, M. C. Strain, 
 O. Farkas, D. K. Malick, A. D. Rabuck, K. Raghavachari, 
 J. B. Foresman, J. V. Ortiz, Q. Cui, A. G. Baboul, S. Clifford, 
 J. Cioslowski, B. B. Stefanov, G. Liu, A. Liashenko, P. Piskorz, 
 I. Komaromi, R. L. Martin, D. J. Fox, T. Keith, M. A. Al-Laham, 
 C. Y. Peng, A. Nanayakkara, M. Challacombe, P. M. W. Gill, 
 B. Johnson, W. Chen, M. W. Wong, C. Gonzalez, and J. A. Pople, 
 Gaussian, Inc., Wallingford CT, 2004.
 
 ******************************************
 Gaussian 03:  EM64T-G03RevE.01 11-Sep-2007
                12-Jun-2015 
 ******************************************
 %nproc=2
 Will use up to    2 processors via shared memory.
 Default route:  MP2=Direct MaxDisk=2000MB
 ----------------------------------------------------
 # b3lyp/6-31+G(d,p) int=ultrafine pop=(ReadRadii,MK)
 ----------------------------------------------------

 Warning!  SCF SP cutoffs with diffuse functions may be unreliable.
 Consider SCF=Tight

 1/38=1/1;
 2/17=6,18=5,40=1/2;
 3/5=1,6=6,7=111,11=2,16=1,25=1,30=1,74=-5,75=5/1,2,3;
 4//1;
 5/5=2,32=1,38=5/2;
 6/7=2,8=2,9=2,10=2,15=8,20=101,28=1/1,2;
 99/5=1,9=1/99;
 ------------------------------------
 Ca3PO4_45.mol2c_plusQ.z51458.zip.xyz
 ------------------------------------
 Symbolic Z-matrix:
 Charge =  1 Multiplicity = 1
 O                    -0.58698  -1.35918   0.92238 
 O                     1.4715    0.17086   0.92237 
 O                    -0.00111   0.00015  -1.71228 
 O                    -0.88279   1.1883    0.92283 
 P                     0.00073  -0.00003   1.71822 
 Ca                   -1.93334  -0.22431  -0.56936 
 Ca                    0.77196   1.78586  -0.57064 
 Ca                    1.16059  -1.56158  -0.57078 
 
                          Input orientation:                          
 ---------------------------------------------------------------------
 Center     Atomic     Atomic              Coordinates (Angstroms)
 Number     Number      Type              X           Y           Z
 ---------------------------------------------------------------------
    1          8             0       -0.586980   -1.359180    0.922380
    2          8             0        1.471500    0.170860    0.922370
    3          8             0       -0.001110    0.000150   -1.712280
    4          8             0       -0.882790    1.188300    0.922830
    5         15             0        0.000730   -0.000030    1.718220
    6         20             0       -1.933340   -0.224310   -0.569360
    7         20             0        0.771960    1.785860   -0.570640
    8         20             0        1.160590   -1.561580   -0.570780
 ---------------------------------------------------------------------
                    Distance matrix (angstroms):
                    1          2          3          4          5
     1  O    0.000000
     2  O    2.564832   0.000000
     3  O    3.021995   3.023095   0.000000
     4  O    2.564597   2.564735   3.022063   0.000000
     5  P    1.681087   1.680995   3.430500   1.680887   0.000000
     6  Ca   2.307792   3.738229   2.256139   2.307759   3.003989
     7  Ca   3.737259   2.307956   2.256045   2.307754   3.003844
     8  Ca   2.307486   2.308140   2.256451   3.737394   3.003870
                    6          7          8
     6  Ca   0.000000
     7  Ca   3.370376   0.000000
     8  Ca   3.370563   3.369924   0.000000
 Stoichiometry    Ca3O4P(1+)
 Framework group  C1[X(Ca3O4P)]
 Deg. of freedom    18
 Full point group                 C1
 Largest Abelian subgroup         C1      NOp   1
 Largest concise Abelian subgroup C1      NOp   1
                         Standard orientation:                         
 ---------------------------------------------------------------------
 Center     Atomic     Atomic              Coordinates (Angstroms)
 Number     Number      Type              X           Y           Z
 ---------------------------------------------------------------------
    1          8             0       -0.592271   -1.356883    0.922379
    2          8             0        1.472153    0.165127    0.922369
    3          8             0       -0.001110    0.000154   -1.712281
    4          8             0       -0.878156    1.191730    0.922829
    5         15             0        0.000729   -0.000033    1.718219
    6         20             0       -1.934200   -0.216778   -0.569361
    7         20             0        0.778909    1.782840   -0.570641
    8         20             0        1.154498   -1.566089   -0.570781
 ---------------------------------------------------------------------
 Rotational constants (GHZ):      1.0155022      1.0152760      0.9038507
 Standard basis: 6-31+G(d,p) (6D, 7F)
 There are   180 symmetry adapted basis functions of A   symmetry.
 Integral buffers will be    131072 words long.
 Raffenetti 2 integral format.
 Two-electron integral symmetry is turned on.
   180 basis functions,   424 primitive gaussians,   180 cartesian basis functions
    53 alpha electrons       53 beta electrons
       nuclear repulsion energy       952.6981677678 Hartrees.
 NAtoms=    8 NActive=    8 NUniq=    8 SFac= 7.50D-01 NAtFMM=   80 NAOKFM=F Big=F
 One-electron integrals computed using PRISM.
 NBasis=   180 RedAO= T  NBF=   180
 NBsUse=   180 1.00D-06 NBFU=   180
 Harris functional with IExCor=  402 diagonalized for initial guess.
 ExpMin= 7.10D-03 ExpMax= 3.53D+04 ExpMxC= 5.30D+03 IAcc=3 IRadAn=         5 AccDes= 0.00D+00
 HarFok:  IExCor= 402 AccDes= 0.00D+00 IRadAn=         5 IDoV=1
 ScaDFX=  1.000000  1.000000  1.000000  1.000000
 Initial guess orbital symmetries:
       Occupied  (A) (A) (A) (A) (A) (A) (A) (A) (A) (A) (A) (A)
                 (A) (A) (A) (A) (A) (A) (A) (A) (A) (A) (A) (A)
                 (A) (A) (A) (A) (A) (A) (A) (A) (A) (A) (A) (A)
                 (A) (A) (A) (A) (A) (A) (A) (A) (A) (A) (A) (A)
                 (A) (A) (A) (A) (A)
       Virtual   (A) (A) (A) (A) (A) (A) (A) (A) (A) (A) (A) (A)
                 (A) (A) (A) (A) (A) (A) (A) (A) (A) (A) (A) (A)
                 (A) (A) (A) (A) (A) (A) (A) (A) (A) (A) (A) (A)
                 (A) (A) (A) (A) (A) (A) (A) (A) (A) (A) (A) (A)
                 (A) (A) (A) (A) (A) (A) (A) (A) (A) (A) (A) (A)
                 (A) (A) (A) (A) (A) (A) (A) (A) (A) (A) (A) (A)
                 (A) (A) (A) (A) (A) (A) (A) (A) (A) (A) (A) (A)
                 (A) (A) (A) (A) (A) (A) (A) (A) (A) (A) (A) (A)
                 (A) (A) (A) (A) (A) (A) (A) (A) (A) (A) (A) (A)
                 (A) (A) (A) (A) (A) (A) (A) (A) (A) (A) (A) (A)
                 (A) (A) (A) (A) (A) (A) (A)
 The electronic state of the initial guess is 1-A.
 Requested convergence on RMS density matrix=1.00D-04 within 128 cycles.
 Requested convergence on MAX density matrix=1.00D-02.
 Requested convergence on             energy=1.00D-02.
 No special actions if energy rises.
 SCF Done:  E(RB+HF-LYP) =  -2675.07103722     A.U. after    8 cycles
             Convg  =    0.8289D-04             -V/T =  2.0028
             S**2   =   0.0000

 **********************************************************************

            Population analysis using the SCF density.

 **********************************************************************

 Orbital symmetries:
       Occupied  (A) (A) (A) (A) (A) (A) (A) (A) (A) (A) (A) (A)
                 (A) (A) (A) (A) (A) (A) (A) (A) (A) (A) (A) (A)
                 (A) (A) (A) (A) (A) (A) (A) (A) (A) (A) (A) (A)
                 (A) (A) (A) (A) (A) (A) (A) (A) (A) (A) (A) (A)
                 (A) (A) (A) (A) (A)
       Virtual   (A) (A) (A) (A) (A) (A) (A) (A) (A) (A) (A) (A)
                 (A) (A) (A) (A) (A) (A) (A) (A) (A) (A) (A) (A)
                 (A) (A) (A) (A) (A) (A) (A) (A) (A) (A) (A) (A)
                 (A) (A) (A) (A) (A) (A) (A) (A) (A) (A) (A) (A)
                 (A) (A) (A) (A) (A) (A) (A) (A) (A) (A) (A) (A)
                 (A) (A) (A) (A) (A) (A) (A) (A) (A) (A) (A) (A)
                 (A) (A) (A) (A) (A) (A) (A) (A) (A) (A) (A) (A)
                 (A) (A) (A) (A) (A) (A) (A) (A) (A) (A) (A) (A)
                 (A) (A) (A) (A) (A) (A) (A) (A) (A) (A) (A) (A)
                 (A) (A) (A) (A) (A) (A) (A) (A) (A) (A) (A) (A)
                 (A) (A) (A) (A) (A) (A) (A)
 The electronic state is 1-A.
 Alpha  occ. eigenvalues -- -145.49643-145.49638-145.49636 -77.25056 -19.21242
 Alpha  occ. eigenvalues --  -19.21221 -19.21209 -19.15943 -15.56477 -15.56473
 Alpha  occ. eigenvalues --  -15.56471 -12.69674 -12.69671 -12.69671 -12.69652
 Alpha  occ. eigenvalues --  -12.69649 -12.69647 -12.69604 -12.69602 -12.69601
 Alpha  occ. eigenvalues --   -6.70086  -4.86435  -4.86435  -4.85898  -1.93825
 Alpha  occ. eigenvalues --   -1.93741  -1.93739  -1.22378  -1.21697  -1.21696
 Alpha  occ. eigenvalues --   -1.21308  -1.21141  -1.21066  -1.21065  -1.20644
 Alpha  occ. eigenvalues --   -1.20643  -1.06761  -1.00361  -1.00351  -0.90940
 Alpha  occ. eigenvalues --   -0.62642  -0.50530  -0.50527  -0.47962  -0.43358
 Alpha  occ. eigenvalues --   -0.43358  -0.38346  -0.38339  -0.38177  -0.36137
 Alpha  occ. eigenvalues --   -0.36134  -0.34592  -0.30859
 Alpha virt. eigenvalues --   -0.19950  -0.18027  -0.18026  -0.12556  -0.12554
 Alpha virt. eigenvalues --   -0.10894  -0.09478  -0.09477  -0.08339  -0.07772
 Alpha virt. eigenvalues --   -0.06545  -0.06114  -0.06113  -0.04765  -0.04715
 Alpha virt. eigenvalues --   -0.04715  -0.04672  -0.04473  -0.04473  -0.04004
 Alpha virt. eigenvalues --   -0.04003  -0.03232  -0.02944  -0.02943  -0.02358
 Alpha virt. eigenvalues --   -0.02357  -0.00867   0.01028   0.02176   0.02616
 Alpha virt. eigenvalues --    0.02617   0.04573   0.04574   0.05227   0.06003
 Alpha virt. eigenvalues --    0.06004   0.06293   0.06294   0.07289   0.07293
 Alpha virt. eigenvalues --    0.07382   0.07662   0.07666   0.07822   0.08466
 Alpha virt. eigenvalues --    0.10685   0.10686   0.11332   0.11803   0.13654
 Alpha virt. eigenvalues --    0.15678   0.15682   0.19890   0.19891   0.20365
 Alpha virt. eigenvalues --    0.22084   0.22088   0.23483   0.23991   0.25317
 Alpha virt. eigenvalues --    0.25957   0.25963   0.30034   0.31445   0.31453
 Alpha virt. eigenvalues --    0.35744   0.36001   0.36003   0.37864   0.39079
 Alpha virt. eigenvalues --    0.39082   0.39776   0.45824   0.45830   0.53629
 Alpha virt. eigenvalues --    0.53631   0.55851   0.63368   0.63368   0.67679
 Alpha virt. eigenvalues --    0.82893   0.86946   0.86956   0.94100   0.94110
 Alpha virt. eigenvalues --    1.14553   1.16752   1.16757   1.18030   1.20772
 Alpha virt. eigenvalues --    1.21969   1.21976   1.23407   1.23408   1.28215
 Alpha virt. eigenvalues --    1.34153   1.34178   1.36430   1.54461   1.54466
 Alpha virt. eigenvalues --    1.57777   1.68371   1.71621   1.73141   1.73150
 Alpha virt. eigenvalues --    1.77481   1.77484   1.87075   1.87360   1.87371
 Alpha virt. eigenvalues --    1.88068   1.92074   1.92081   1.93329   1.98434
 Alpha virt. eigenvalues --    1.98443   2.03009   2.03015   2.14764   2.38171
 Alpha virt. eigenvalues --    2.55151   2.55169   3.54376   4.05614   4.14271
 Alpha virt. eigenvalues --    4.14289   4.31202
          Condensed to atoms (all electrons):
              1          2          3          4          5          6
     1  O    8.965677   0.058677   0.023965   0.058645  -0.200770   0.059889
     2  O    0.058677   8.966135   0.023943   0.058710  -0.200967   0.006266
     3  O    0.023965   0.023943   8.852663   0.023995  -0.039932   0.122108
     4  O    0.058645   0.058710   0.023995   8.965922  -0.200927   0.059867
     5  P   -0.200770  -0.200967  -0.039932  -0.200927  14.443162   0.033701
     6  Ca   0.059889   0.006266   0.122108   0.059867   0.033701  18.396772
     7  Ca   0.006180   0.059800   0.122163   0.059799   0.033881  -0.047645
     8  Ca   0.059887   0.059841   0.122118   0.006210   0.033808  -0.047636
              7          8
     1  O    0.006180   0.059887
     2  O    0.059800   0.059841
     3  O    0.122163   0.122118
     4  O    0.059799   0.006210
     5  P    0.033881   0.033808
     6  Ca  -0.047645  -0.047636
     7  Ca  18.396995  -0.047687
     8  Ca  -0.047687  18.396892
 Mulliken atomic charges:
              1
     1  O   -1.032152
     2  O   -1.032406
     3  O   -1.251024
     4  O   -1.032221
     5  P    1.098045
     6  Ca   1.416678
     7  Ca   1.416514
     8  Ca   1.416566
 Sum of Mulliken charges=   1.00000
 Atomic charges with hydrogens summed into heavy atoms:
              1
     1  O   -1.032152
     2  O   -1.032406
     3  O   -1.251024
     4  O   -1.032221
     5  P    1.098045
     6  Ca   1.416678
     7  Ca   1.416514
     8  Ca   1.416566
 Sum of Mulliken charges=   1.00000
 Electronic spatial extent (au):  <R**2>=  1510.1587
 Charge=     1.0000 electrons
 Dipole moment (field-independent basis, Debye):
    X=    -0.0067    Y=    -0.0014    Z=    -8.2306  Tot=     8.2306
 Quadrupole moment (field-independent basis, Debye-Ang):
   XX=   -40.0262   YY=   -40.0412   ZZ=   -90.0227
   XY=    -0.0021   XZ=    -0.0316   YZ=     0.0003
 Traceless Quadrupole moment (field-independent basis, Debye-Ang):
   XX=    16.6705   YY=    16.6555   ZZ=   -33.3260
   XY=    -0.0021   XZ=    -0.0316   YZ=     0.0003
 Octapole moment (field-independent basis, Debye-Ang**2):
  XXX=   -55.4337  YYY=    19.2596  ZZZ=    -1.6834  XYY=    55.3099
  XXY=   -19.2673  XXZ=   -46.6601  XZZ=     0.0382  YZZ=    -0.0054
  YYZ=   -46.6916  XYZ=     0.0081
 Hexadecapole moment (field-independent basis, Debye-Ang**3):
 XXXX=  -416.0215 YYYY=  -416.0006 ZZZZ=  -721.8983 XXXY=    -0.0021
 XXXZ=    14.4718 YYYX=    -0.0136 YYYZ=    -5.0665 ZZZX=    -0.1183
 ZZZY=     0.0105 XXYY=  -138.6845 XXZZ=  -187.6470 YYZZ=  -187.5838
 XXYZ=     5.0729 YYXZ=   -14.6146 ZZXY=    -0.0051
 N-N= 9.526981677678D+02 E-N=-8.229870108624D+03  KE= 2.667694141741D+03
 Merz-Kollman atomic radii used.
 Read replacement radii for each type of atom:
 Rad(20) =   1.188000000000D+00
 Atom Element Radius
    1     8    1.40
    2     8    1.40
    3     8    1.40
    4     8    1.40
    5    15    1.80
    6    20    1.19
    7    20    1.19
    8    20    1.19

 **********************************************************************

            Electrostatic Properties Using The SCF Density

 **********************************************************************

       Atomic Center    1 is at  -0.592271 -1.356883  0.922379
       Atomic Center    2 is at   1.472153  0.165127  0.922369
       Atomic Center    3 is at  -0.001110  0.000154 -1.712281
       Atomic Center    4 is at  -0.878156  1.191730  0.922829
       Atomic Center    5 is at   0.000729 -0.000033  1.718219
       Atomic Center    6 is at  -1.934200 -0.216778 -0.569361
       Atomic Center    7 is at   0.778909  1.782840 -0.570641
       Atomic Center    8 is at   1.154498 -1.566089 -0.570781
     681 points will be used for fitting atomic charges
 Fitting point charges to eletrostatic potential
 Charges from ESP fit, RMS=   0.00628 RRMS=   0.03829:
 Charge=   1.00000 Dipole=    -0.0291    -0.0027    -8.4479 Tot=     8.4479
              1
     1  O   -0.949911
     2  O   -0.948113
     3  O   -1.637277
     4  O   -0.948271
     5  P    0.520240
     6  Ca   1.656753
     7  Ca   1.652760
     8  Ca   1.653818
 -----------------------------------------------------------------

              Electrostatic Properties (Atomic Units)

 -----------------------------------------------------------------
    Center     Electric         -------- Electric Field --------
               Potential          X             Y             Z
 -----------------------------------------------------------------
    1 Atom    -22.250952
    2 Atom    -22.251658
    3 Atom    -22.290804
    4 Atom    -22.251178
    5 Atom    -53.968051
    6 Atom    -80.043258
    7 Atom    -80.043300
    8 Atom    -80.043257
 -----------------------------------------------------------------
 1\1\GINC-N026\SP\RB3LYP\6-31+G(d,p)\Ca3O4P1(1+)\TIMN\12-Jun-2015\0\\# 
 b3lyp/6-31+G(d,p) int=ultrafine pop=(ReadRadii,MK)\\Ca3PO4_45.mol2c_pl
 usQ.z51458.zip.xyz\\1,1\O,0,-0.58698,-1.35918,0.92238\O,0,1.4715,0.170
 86,0.92237\O,0,-0.00111,0.00015,-1.71228\O,0,-0.88279,1.1883,0.92283\P
 ,0,0.00073,-0.00003,1.71822\Ca,0,-1.93334,-0.22431,-0.56936\Ca,0,0.771
 96,1.78586,-0.57064\Ca,0,1.16059,-1.56158,-0.57078\\Version=EM64T-G03R
 evE.01\State=1-A\HF=-2675.0710372\RMSD=8.289e-05\Thermal=0.\Dipole=-0.
 0026261,-0.0005559,-3.2381547\PG=C01 [X(Ca3O4P1)]\\@


 A successful marriage requires falling in love
 many times, always with the same person.
                           -- Mignon McLaughlin
 Job cpu time:  0 days  0 hours  1 minutes 42.4 seconds.
 File lengths (MBytes):  RWF=     32 Int=      0 D2E=      0 Chk=     11 Scr=      1
 Normal termination of Gaussian 03 at Fri Jun 12 17:43:38 2015.
