 Entering Gaussian System, Link 0=/home/timn/tmp/g03.e01/g03
 Input=Ca3PO4_191.mol2c_plusQ.z51200.zip.xyz.gjf
 Output=Ca3PO4_191.mol2c_plusQ.z51200.zip.xyz.out
 Initial command:
 /home/timn/tmp/g03.e01/l1.exe /home/timn/tmp/g03.e01/Gau-13370.inp -scrdir=/home/timn/tmp/g03.e01/
 Default is to use a total of   2 processors:
                                2 via shared-memory
                                1 via Linda
 Entering Link 1 = /home/timn/tmp/g03.e01/l1.exe PID=     13371.
  
 Copyright (c) 1988,1990,1992,1993,1995,1998,2003,2004,2007, Gaussian, Inc.
                  All Rights Reserved.
  
 This is the Gaussian(R) 03 program.  It is based on the
 the Gaussian(R) 98 system (copyright 1998, Gaussian, Inc.),
 the Gaussian(R) 94 system (copyright 1995, Gaussian, Inc.),
 the Gaussian 92(TM) system (copyright 1992, Gaussian, Inc.),
 the Gaussian 90(TM) system (copyright 1990, Gaussian, Inc.),
 the Gaussian 88(TM) system (copyright 1988, Gaussian, Inc.),
 the Gaussian 86(TM) system (copyright 1986, Carnegie Mellon
 University), and the Gaussian 82(TM) system (copyright 1983,
 Carnegie Mellon University). Gaussian is a federally registered
 trademark of Gaussian, Inc.
  
 This software contains proprietary and confidential information,
 including trade secrets, belonging to Gaussian, Inc.
  
 This software is provided under written license and may be
 used, copied, transmitted, or stored only in accord with that
 written license.
  
 The following legend is applicable only to US Government
 contracts under FAR:
  
                    RESTRICTED RIGHTS LEGEND
  
 Use, reproduction and disclosure by the US Government is
 subject to restrictions as set forth in subparagraphs (a)
 and (c) of the Commercial Computer Software - Restricted
 Rights clause in FAR 52.227-19.
  
 Gaussian, Inc.
 340 Quinnipiac St., Bldg. 40, Wallingford CT 06492
  
  
 ---------------------------------------------------------------
 Warning -- This program may not be used in any manner that
 competes with the business of Gaussian, Inc. or will provide
 assistance to any competitor of Gaussian, Inc.  The licensee
 of this program is prohibited from giving any competitor of
 Gaussian, Inc. access to this program.  By using this program,
 the user acknowledges that Gaussian, Inc. is engaged in the
 business of creating and licensing software in the field of
 computational chemistry and represents and warrants to the
 licensee that it is not a competitor of Gaussian, Inc. and that
 it will not use this program in any manner prohibited above.
 ---------------------------------------------------------------
  

 Cite this work as:
 Gaussian 03, Revision E.01,
 M. J. Frisch, G. W. Trucks, H. B. Schlegel, G. E. Scuseria, 
 M. A. Robb, J. R. Cheeseman, J. A. Montgomery, Jr., T. Vreven, 
 K. N. Kudin, J. C. Burant, J. M. Millam, S. S. Iyengar, J. Tomasi, 
 V. Barone, B. Mennucci, M. Cossi, G. Scalmani, N. Rega, 
 G. A. Petersson, H. Nakatsuji, M. Hada, M. Ehara, K. Toyota, 
 R. Fukuda, J. Hasegawa, M. Ishida, T. Nakajima, Y. Honda, O. Kitao, 
 H. Nakai, M. Klene, X. Li, J. E. Knox, H. P. Hratchian, J. B. Cross, 
 V. Bakken, C. Adamo, J. Jaramillo, R. Gomperts, R. E. Stratmann, 
 O. Yazyev, A. J. Austin, R. Cammi, C. Pomelli, J. W. Ochterski, 
 P. Y. Ayala, K. Morokuma, G. A. Voth, P. Salvador, J. J. Dannenberg, 
 V. G. Zakrzewski, S. Dapprich, A. D. Daniels, M. C. Strain, 
 O. Farkas, D. K. Malick, A. D. Rabuck, K. Raghavachari, 
 J. B. Foresman, J. V. Ortiz, Q. Cui, A. G. Baboul, S. Clifford, 
 J. Cioslowski, B. B. Stefanov, G. Liu, A. Liashenko, P. Piskorz, 
 I. Komaromi, R. L. Martin, D. J. Fox, T. Keith, M. A. Al-Laham, 
 C. Y. Peng, A. Nanayakkara, M. Challacombe, P. M. W. Gill, 
 B. Johnson, W. Chen, M. W. Wong, C. Gonzalez, and J. A. Pople, 
 Gaussian, Inc., Wallingford CT, 2004.
 
 ******************************************
 Gaussian 03:  EM64T-G03RevE.01 11-Sep-2007
                12-Jun-2015 
 ******************************************
 %nproc=2
 Will use up to    2 processors via shared memory.
 Default route:  MP2=Direct MaxDisk=2000MB
 ----------------------------------------------------
 # b3lyp/6-31+G(d,p) int=ultrafine pop=(ReadRadii,MK)
 ----------------------------------------------------

 Warning!  SCF SP cutoffs with diffuse functions may be unreliable.
 Consider SCF=Tight

 1/38=1/1;
 2/17=6,18=5,40=1/2;
 3/5=1,6=6,7=111,11=2,16=1,25=1,30=1,74=-5,75=5/1,2,3;
 4//1;
 5/5=2,32=1,38=5/2;
 6/7=2,8=2,9=2,10=2,15=8,20=101,28=1/1,2;
 99/5=1,9=1/99;
 -------------------------------------
 Ca3PO4_191.mol2c_plusQ.z51200.zip.xyz
 -------------------------------------
 Symbolic Z-matrix:
 Charge =  1 Multiplicity = 1
 O                    -1.71327  -0.00031   1.61193 
 O                    -2.86775   0.00247   0.66481 
 O                    -0.19936   1.23239  -0.15181 
 O                    -0.19887  -1.23339  -0.15208 
 P                    -0.2134   -0.00012   0.97359 
 Ca                   -1.87026  -0.00146  -1.30222 
 Ca                    2.01157  -1.85622  -0.10792 
 Ca                    2.01043   1.85729  -0.10919 
 
                          Input orientation:                          
 ---------------------------------------------------------------------
 Center     Atomic     Atomic              Coordinates (Angstroms)
 Number     Number      Type              X           Y           Z
 ---------------------------------------------------------------------
    1          8             0       -1.713270   -0.000310    1.611930
    2          8             0       -2.867750    0.002470    0.664810
    3          8             0       -0.199360    1.232390   -0.151810
    4          8             0       -0.198870   -1.233390   -0.152080
    5         15             0       -0.213400   -0.000120    0.973590
    6         20             0       -1.870260   -0.001460   -1.302220
    7         20             0        2.011570   -1.856220   -0.107920
    8         20             0        2.010430    1.857290   -0.109190
 ---------------------------------------------------------------------
                    Distance matrix (angstroms):
                    1          2          3          4          5
     1  O    0.000000
     2  O    1.493274   0.000000
     3  O    2.631017   3.049570   0.000000
     4  O    2.631658   3.052471   2.465780   0.000000
     5  P    1.630058   2.672251   1.669073   1.669820   0.000000
     6  Ca   2.918376   2.205495   2.374392   2.373609   2.815048
     7  Ca   4.502968   5.278220   3.798638   2.296935   3.092776
     8  Ca   4.503207   5.275990   2.296843   3.799362   3.093187
                    6          7          8
     6  Ca   0.000000
     7  Ca   4.464873   0.000000
     8  Ca   4.465202   3.713510   0.000000
 Stoichiometry    Ca3O4P(1+)
 Framework group  C1[X(Ca3O4P)]
 Deg. of freedom    18
 Full point group                 C1
 Largest Abelian subgroup         C1      NOp   1
 Largest concise Abelian subgroup C1      NOp   1
                         Standard orientation:                         
 ---------------------------------------------------------------------
 Center     Atomic     Atomic              Coordinates (Angstroms)
 Number     Number      Type              X           Y           Z
 ---------------------------------------------------------------------
    1          8             0       -1.713268   -0.000307    1.611930
    2          8             0       -2.867748    0.002474    0.664810
    3          8             0       -0.199358    1.232393   -0.151810
    4          8             0       -0.198868   -1.233387   -0.152080
    5         15             0       -0.213398   -0.000117    0.973590
    6         20             0       -1.870258   -0.001457   -1.302220
    7         20             0        2.011571   -1.856218   -0.107920
    8         20             0        2.010432    1.857292   -0.109190
 ---------------------------------------------------------------------
 Rotational constants (GHZ):      1.0716210      0.6384164      0.5218959
 Standard basis: 6-31+G(d,p) (6D, 7F)
 There are   180 symmetry adapted basis functions of A   symmetry.
 Integral buffers will be    131072 words long.
 Raffenetti 2 integral format.
 Two-electron integral symmetry is turned on.
   180 basis functions,   424 primitive gaussians,   180 cartesian basis functions
    53 alpha electrons       53 beta electrons
       nuclear repulsion energy       860.7359478199 Hartrees.
 NAtoms=    8 NActive=    8 NUniq=    8 SFac= 7.50D-01 NAtFMM=   80 NAOKFM=F Big=F
 One-electron integrals computed using PRISM.
 NBasis=   180 RedAO= T  NBF=   180
 NBsUse=   180 1.00D-06 NBFU=   180
 Harris functional with IExCor=  402 diagonalized for initial guess.
 ExpMin= 7.10D-03 ExpMax= 3.53D+04 ExpMxC= 5.30D+03 IAcc=3 IRadAn=         5 AccDes= 0.00D+00
 HarFok:  IExCor= 402 AccDes= 0.00D+00 IRadAn=         5 IDoV=1
 ScaDFX=  1.000000  1.000000  1.000000  1.000000
 Initial guess orbital symmetries:
       Occupied  (A) (A) (A) (A) (A) (A) (A) (A) (A) (A) (A) (A)
                 (A) (A) (A) (A) (A) (A) (A) (A) (A) (A) (A) (A)
                 (A) (A) (A) (A) (A) (A) (A) (A) (A) (A) (A) (A)
                 (A) (A) (A) (A) (A) (A) (A) (A) (A) (A) (A) (A)
                 (A) (A) (A) (A) (A)
       Virtual   (A) (A) (A) (A) (A) (A) (A) (A) (A) (A) (A) (A)
                 (A) (A) (A) (A) (A) (A) (A) (A) (A) (A) (A) (A)
                 (A) (A) (A) (A) (A) (A) (A) (A) (A) (A) (A) (A)
                 (A) (A) (A) (A) (A) (A) (A) (A) (A) (A) (A) (A)
                 (A) (A) (A) (A) (A) (A) (A) (A) (A) (A) (A) (A)
                 (A) (A) (A) (A) (A) (A) (A) (A) (A) (A) (A) (A)
                 (A) (A) (A) (A) (A) (A) (A) (A) (A) (A) (A) (A)
                 (A) (A) (A) (A) (A) (A) (A) (A) (A) (A) (A) (A)
                 (A) (A) (A) (A) (A) (A) (A) (A) (A) (A) (A) (A)
                 (A) (A) (A) (A) (A) (A) (A) (A) (A) (A) (A) (A)
                 (A) (A) (A) (A) (A) (A) (A)
 The electronic state of the initial guess is 1-A.
 Requested convergence on RMS density matrix=1.00D-04 within 128 cycles.
 Requested convergence on MAX density matrix=1.00D-02.
 Requested convergence on             energy=1.00D-02.
 No special actions if energy rises.
 EnCoef did   100 forward-backward iterations
 EnCoef did     4 forward-backward iterations
 SCF Done:  E(RB+HF-LYP) =  -2674.82683578     A.U. after    8 cycles
             Convg  =    0.9700D-04             -V/T =  2.0027
             S**2   =   0.0000

 **********************************************************************

            Population analysis using the SCF density.

 **********************************************************************

 Orbital symmetries:
       Occupied  (A) (A) (A) (A) (A) (A) (A) (A) (A) (A) (A) (A)
                 (A) (A) (A) (A) (A) (A) (A) (A) (A) (A) (A) (A)
                 (A) (A) (A) (A) (A) (A) (A) (A) (A) (A) (A) (A)
                 (A) (A) (A) (A) (A) (A) (A) (A) (A) (A) (A) (A)
                 (A) (A) (A) (A) (A)
       Virtual   (A) (A) (A) (A) (A) (A) (A) (A) (A) (A) (A) (A)
                 (A) (A) (A) (A) (A) (A) (A) (A) (A) (A) (A) (A)
                 (A) (A) (A) (A) (A) (A) (A) (A) (A) (A) (A) (A)
                 (A) (A) (A) (A) (A) (A) (A) (A) (A) (A) (A) (A)
                 (A) (A) (A) (A) (A) (A) (A) (A) (A) (A) (A) (A)
                 (A) (A) (A) (A) (A) (A) (A) (A) (A) (A) (A) (A)
                 (A) (A) (A) (A) (A) (A) (A) (A) (A) (A) (A) (A)
                 (A) (A) (A) (A) (A) (A) (A) (A) (A) (A) (A) (A)
                 (A) (A) (A) (A) (A) (A) (A) (A) (A) (A) (A) (A)
                 (A) (A) (A) (A) (A) (A) (A) (A) (A) (A) (A) (A)
                 (A) (A) (A) (A) (A) (A) (A)
 The electronic state is 1-A.
 Alpha  occ. eigenvalues -- -145.53772-145.53768-145.52289 -77.26780 -19.27893
 Alpha  occ. eigenvalues --  -19.23820 -19.23816 -19.21985 -15.60711 -15.60708
 Alpha  occ. eigenvalues --  -15.59074 -12.73918 -12.73915 -12.73899 -12.73895
 Alpha  occ. eigenvalues --  -12.73790 -12.73787 -12.72275 -12.72267 -12.72209
 Alpha  occ. eigenvalues --   -6.72181  -4.88536  -4.88512  -4.88015  -1.97757
 Alpha  occ. eigenvalues --   -1.97743  -1.96182  -1.25364  -1.25286  -1.25250
 Alpha  occ. eigenvalues --   -1.25066  -1.24890  -1.24779  -1.24130  -1.23535
 Alpha  occ. eigenvalues --   -1.23449  -1.13986  -1.07349  -1.02816  -0.90848
 Alpha  occ. eigenvalues --   -0.65091  -0.54988  -0.52892  -0.52557  -0.47386
 Alpha  occ. eigenvalues --   -0.46290  -0.44103  -0.43127  -0.38807  -0.36104
 Alpha  occ. eigenvalues --   -0.33606  -0.31171  -0.28088
 Alpha virt. eigenvalues --   -0.21722  -0.20442  -0.16240  -0.15877  -0.13218
 Alpha virt. eigenvalues --   -0.12954  -0.12134  -0.11759  -0.10116  -0.09205
 Alpha virt. eigenvalues --   -0.09025  -0.08173  -0.07532  -0.06157  -0.06007
 Alpha virt. eigenvalues --   -0.05513  -0.05257  -0.04845  -0.04703  -0.04344
 Alpha virt. eigenvalues --   -0.04015  -0.03931  -0.03593  -0.03410  -0.03310
 Alpha virt. eigenvalues --   -0.02995  -0.02619  -0.01929  -0.00030   0.00788
 Alpha virt. eigenvalues --    0.00874   0.01596   0.02173   0.02622   0.03192
 Alpha virt. eigenvalues --    0.03603   0.04191   0.04536   0.04677   0.05257
 Alpha virt. eigenvalues --    0.05365   0.05712   0.06049   0.06554   0.06839
 Alpha virt. eigenvalues --    0.07345   0.07600   0.08639   0.09404   0.09513
 Alpha virt. eigenvalues --    0.11298   0.12042   0.12146   0.16839   0.18353
 Alpha virt. eigenvalues --    0.19189   0.20446   0.20587   0.21789   0.21822
 Alpha virt. eigenvalues --    0.22699   0.24430   0.24739   0.25461   0.25948
 Alpha virt. eigenvalues --    0.25964   0.26397   0.31788   0.32838   0.33824
 Alpha virt. eigenvalues --    0.36972   0.38350   0.38978   0.42612   0.47548
 Alpha virt. eigenvalues --    0.48155   0.50471   0.55410   0.60954   0.62605
 Alpha virt. eigenvalues --    0.64282   0.70342   0.76259   0.89413   0.92748
 Alpha virt. eigenvalues --    1.01914   1.08997   1.09867   1.12903   1.14974
 Alpha virt. eigenvalues --    1.18276   1.19945   1.20399   1.22276   1.25174
 Alpha virt. eigenvalues --    1.26052   1.27745   1.31042   1.44574   1.50874
 Alpha virt. eigenvalues --    1.54424   1.61285   1.67356   1.69573   1.69858
 Alpha virt. eigenvalues --    1.75517   1.77511   1.80453   1.81838   1.84507
 Alpha virt. eigenvalues --    1.85243   1.85669   1.92055   1.94976   1.99026
 Alpha virt. eigenvalues --    2.01770   2.26939   2.29246   2.40691   2.53108
 Alpha virt. eigenvalues --    2.60452   3.09376   3.50288   3.94196   4.07526
 Alpha virt. eigenvalues --    4.15663   4.23729
          Condensed to atoms (all electrons):
              1          2          3          4          5          6
     1  O    8.349587   0.064724   0.046879   0.046659  -0.057288  -0.012274
     2  O    0.064724   8.302570  -0.002670  -0.002650  -0.023513   0.162691
     3  O    0.046879  -0.002670   9.281861   0.145484  -0.651256   0.079377
     4  O    0.046659  -0.002650   0.145484   9.282302  -0.651542   0.079462
     5  P   -0.057288  -0.023513  -0.651256  -0.651542  15.909980   0.043608
     6  Ca  -0.012274   0.162691   0.079377   0.079462   0.043608  18.305605
     7  Ca   0.010583  -0.005698  -0.032987  -0.007921  -0.129241  -0.063257
     8  Ca   0.010552  -0.005721  -0.008091  -0.032907  -0.129185  -0.063274
              7          8
     1  O    0.010583   0.010552
     2  O   -0.005698  -0.005721
     3  O   -0.032987  -0.008091
     4  O   -0.007921  -0.032907
     5  P   -0.129241  -0.129185
     6  Ca  -0.063257  -0.063274
     7  Ca  19.070303   0.403062
     8  Ca   0.403062  19.070582
 Mulliken atomic charges:
              1
     1  O   -0.459422
     2  O   -0.489733
     3  O   -0.858597
     4  O   -0.858886
     5  P    0.688436
     6  Ca   1.468062
     7  Ca   0.755157
     8  Ca   0.754982
 Sum of Mulliken charges=   1.00000
 Atomic charges with hydrogens summed into heavy atoms:
              1
     1  O   -0.459422
     2  O   -0.489733
     3  O   -0.858597
     4  O   -0.858886
     5  P    0.688436
     6  Ca   1.468062
     7  Ca   0.755157
     8  Ca   0.754982
 Sum of Mulliken charges=   1.00000
 Electronic spatial extent (au):  <R**2>=  2128.3071
 Charge=     1.0000 electrons
 Dipole moment (field-independent basis, Debye):
    X=     7.1435    Y=    -0.0053    Z=    -9.8659  Tot=    12.1806
 Quadrupole moment (field-independent basis, Debye-Ang):
   XX=   -64.9703   YY=   -48.8413   ZZ=   -69.4493
   XY=     0.0269   XZ=    27.7933   YZ=    -0.0022
 Traceless Quadrupole moment (field-independent basis, Debye-Ang):
   XX=    -3.8833   YY=    12.2457   ZZ=    -8.3624
   XY=     0.0269   XZ=    27.7933   YZ=    -0.0022
 Octapole moment (field-independent basis, Debye-Ang**2):
  XXX=   -24.1316  YYY=     0.0580  ZZZ=   -41.6791  XYY=    66.0875
  XXY=    -0.1430  XXZ=   -55.5289  XZZ=   -41.5496  YZZ=    -0.0250
  YYZ=    -4.0141  XYZ=    -0.0418
 Hexadecapole moment (field-independent basis, Debye-Ang**3):
 XXXX= -1780.1282 YYYY=  -629.1217 ZZZZ=  -403.9382 XXXY=     0.0516
 XXXZ=   206.9356 YYYX=     0.0784 YYYZ=    -0.0339 ZZZX=   107.3407
 ZZZY=     0.0535 XXYY=  -258.4753 XXZZ=  -312.6632 YYZZ=  -194.0659
 XXYZ=    -0.0101 YYXZ=    20.0371 ZZXY=     0.0355
 N-N= 8.607359478199D+02 E-N=-8.042403551919D+03  KE= 2.667621197860D+03
 Merz-Kollman atomic radii used.
 Read replacement radii for each type of atom:
 Rad(20) =   1.188000000000D+00
 Atom Element Radius
    1     8    1.40
    2     8    1.40
    3     8    1.40
    4     8    1.40
    5    15    1.80
    6    20    1.19
    7    20    1.19
    8    20    1.19

 **********************************************************************

            Electrostatic Properties Using The SCF Density

 **********************************************************************

       Atomic Center    1 is at  -1.713268 -0.000307  1.611930
       Atomic Center    2 is at  -2.867748  0.002474  0.664810
       Atomic Center    3 is at  -0.199358  1.232393 -0.151810
       Atomic Center    4 is at  -0.198868 -1.233387 -0.152080
       Atomic Center    5 is at  -0.213398 -0.000117  0.973590
       Atomic Center    6 is at  -1.870258 -0.001457 -1.302220
       Atomic Center    7 is at   2.011571 -1.856218 -0.107920
       Atomic Center    8 is at   2.010432  1.857292 -0.109190
     716 points will be used for fitting atomic charges
 Fitting point charges to eletrostatic potential
 Charges from ESP fit, RMS=   0.03067 RRMS=   0.18192:
 Charge=   1.00000 Dipole=    10.9696    -0.0050   -11.1552 Tot=    15.6451
              1
     1  O   -0.052982
     2  O   -0.645056
     3  O   -0.645952
     4  O   -0.647271
     5  P    0.081351
     6  Ca   1.481169
     7  Ca   0.714460
     8  Ca   0.714282
 -----------------------------------------------------------------

              Electrostatic Properties (Atomic Units)

 -----------------------------------------------------------------
    Center     Electric         -------- Electric Field --------
               Potential          X             Y             Z
 -----------------------------------------------------------------
    1 Atom    -22.192592
    2 Atom    -22.257740
    3 Atom    -22.226050
    4 Atom    -22.226301
    5 Atom    -53.941138
    6 Atom    -80.019261
    7 Atom    -80.005215
    8 Atom    -80.005178
 -----------------------------------------------------------------
 1\1\GINC-N032\SP\RB3LYP\6-31+G(d,p)\Ca3O4P1(1+)\TIMN\12-Jun-2015\0\\# 
 b3lyp/6-31+G(d,p) int=ultrafine pop=(ReadRadii,MK)\\Ca3PO4_191.mol2c_p
 lusQ.z51200.zip.xyz\\1,1\O,0,-1.71327,-0.00031,1.61193\O,0,-2.86775,0.
 00247,0.66481\O,0,-0.19936,1.23239,-0.15181\O,0,-0.19887,-1.23339,-0.1
 5208\P,0,-0.2134,-0.00012,0.97359\Ca,0,-1.87026,-0.00146,-1.30222\Ca,0
 ,2.01157,-1.85622,-0.10792\Ca,0,2.01043,1.85729,-0.10919\\Version=EM64
 T-G03RevE.01\State=1-A\HF=-2674.8268358\RMSD=9.700e-05\Thermal=0.\Dipo
 le=2.8104751,-0.0020712,-3.88155\PG=C01 [X(Ca3O4P1)]\\@


 IT IS IMPOSSIBLE TO MEDITATE ON TIME AND THE MYSTERY 
 OF NATURE WITHOUT AN OVERWHELMING EMOTION AT THE
 LIMITATIONS OF HUMAN INTELLIGENCE.

                                         -- ALFRED NORTH WHITEHEAD
 Job cpu time:  0 days  0 hours  1 minutes 39.2 seconds.
 File lengths (MBytes):  RWF=     32 Int=      0 D2E=      0 Chk=     11 Scr=      1
 Normal termination of Gaussian 03 at Fri Jun 12 17:40:30 2015.
