 Entering Gaussian System, Link 0=/home/timn/tmp/g03.e01/g03
 Input=Ca3PO4_35.mol2c_plusQ.z51447.zip.xyz.gjf
 Output=Ca3PO4_35.mol2c_plusQ.z51447.zip.xyz.out
 Initial command:
 /home/timn/tmp/g03.e01/l1.exe /home/timn/tmp/g03.e01/Gau-13701.inp -scrdir=/home/timn/tmp/g03.e01/
 Default is to use a total of   2 processors:
                                2 via shared-memory
                                1 via Linda
 Entering Link 1 = /home/timn/tmp/g03.e01/l1.exe PID=     13702.
  
 Copyright (c) 1988,1990,1992,1993,1995,1998,2003,2004,2007, Gaussian, Inc.
                  All Rights Reserved.
  
 This is the Gaussian(R) 03 program.  It is based on the
 the Gaussian(R) 98 system (copyright 1998, Gaussian, Inc.),
 the Gaussian(R) 94 system (copyright 1995, Gaussian, Inc.),
 the Gaussian 92(TM) system (copyright 1992, Gaussian, Inc.),
 the Gaussian 90(TM) system (copyright 1990, Gaussian, Inc.),
 the Gaussian 88(TM) system (copyright 1988, Gaussian, Inc.),
 the Gaussian 86(TM) system (copyright 1986, Carnegie Mellon
 University), and the Gaussian 82(TM) system (copyright 1983,
 Carnegie Mellon University). Gaussian is a federally registered
 trademark of Gaussian, Inc.
  
 This software contains proprietary and confidential information,
 including trade secrets, belonging to Gaussian, Inc.
  
 This software is provided under written license and may be
 used, copied, transmitted, or stored only in accord with that
 written license.
  
 The following legend is applicable only to US Government
 contracts under FAR:
  
                    RESTRICTED RIGHTS LEGEND
  
 Use, reproduction and disclosure by the US Government is
 subject to restrictions as set forth in subparagraphs (a)
 and (c) of the Commercial Computer Software - Restricted
 Rights clause in FAR 52.227-19.
  
 Gaussian, Inc.
 340 Quinnipiac St., Bldg. 40, Wallingford CT 06492
  
  
 ---------------------------------------------------------------
 Warning -- This program may not be used in any manner that
 competes with the business of Gaussian, Inc. or will provide
 assistance to any competitor of Gaussian, Inc.  The licensee
 of this program is prohibited from giving any competitor of
 Gaussian, Inc. access to this program.  By using this program,
 the user acknowledges that Gaussian, Inc. is engaged in the
 business of creating and licensing software in the field of
 computational chemistry and represents and warrants to the
 licensee that it is not a competitor of Gaussian, Inc. and that
 it will not use this program in any manner prohibited above.
 ---------------------------------------------------------------
  

 Cite this work as:
 Gaussian 03, Revision E.01,
 M. J. Frisch, G. W. Trucks, H. B. Schlegel, G. E. Scuseria, 
 M. A. Robb, J. R. Cheeseman, J. A. Montgomery, Jr., T. Vreven, 
 K. N. Kudin, J. C. Burant, J. M. Millam, S. S. Iyengar, J. Tomasi, 
 V. Barone, B. Mennucci, M. Cossi, G. Scalmani, N. Rega, 
 G. A. Petersson, H. Nakatsuji, M. Hada, M. Ehara, K. Toyota, 
 R. Fukuda, J. Hasegawa, M. Ishida, T. Nakajima, Y. Honda, O. Kitao, 
 H. Nakai, M. Klene, X. Li, J. E. Knox, H. P. Hratchian, J. B. Cross, 
 V. Bakken, C. Adamo, J. Jaramillo, R. Gomperts, R. E. Stratmann, 
 O. Yazyev, A. J. Austin, R. Cammi, C. Pomelli, J. W. Ochterski, 
 P. Y. Ayala, K. Morokuma, G. A. Voth, P. Salvador, J. J. Dannenberg, 
 V. G. Zakrzewski, S. Dapprich, A. D. Daniels, M. C. Strain, 
 O. Farkas, D. K. Malick, A. D. Rabuck, K. Raghavachari, 
 J. B. Foresman, J. V. Ortiz, Q. Cui, A. G. Baboul, S. Clifford, 
 J. Cioslowski, B. B. Stefanov, G. Liu, A. Liashenko, P. Piskorz, 
 I. Komaromi, R. L. Martin, D. J. Fox, T. Keith, M. A. Al-Laham, 
 C. Y. Peng, A. Nanayakkara, M. Challacombe, P. M. W. Gill, 
 B. Johnson, W. Chen, M. W. Wong, C. Gonzalez, and J. A. Pople, 
 Gaussian, Inc., Wallingford CT, 2004.
 
 ******************************************
 Gaussian 03:  EM64T-G03RevE.01 11-Sep-2007
                12-Jun-2015 
 ******************************************
 %nproc=2
 Will use up to    2 processors via shared memory.
 Default route:  MP2=Direct MaxDisk=2000MB
 ----------------------------------------------------
 # b3lyp/6-31+G(d,p) int=ultrafine pop=(ReadRadii,MK)
 ----------------------------------------------------

 Warning!  SCF SP cutoffs with diffuse functions may be unreliable.
 Consider SCF=Tight

 1/38=1/1;
 2/17=6,18=5,40=1/2;
 3/5=1,6=6,7=111,11=2,16=1,25=1,30=1,74=-5,75=5/1,2,3;
 4//1;
 5/5=2,32=1,38=5/2;
 6/7=2,8=2,9=2,10=2,15=8,20=101,28=1/1,2;
 99/5=1,9=1/99;
 ------------------------------------
 Ca3PO4_35.mol2c_plusQ.z51447.zip.xyz
 ------------------------------------
 Symbolic Z-matrix:
 Charge =  1 Multiplicity = 1
 O                     3.35895   0.66605   0.02671 
 O                     1.55723  -1.02657  -0.02154 
 O                    -2.96267  -1.32822   0.00898 
 O                    -0.88817   0.95797  -0.0073 
 P                     3.11208  -0.85319   0.01619 
 Ca                   -0.80546  -1.4225   -0.01191 
 Ca                    1.1849    1.56072  -0.01645 
 Ca                   -3.13964   0.79397   0.01348 
 
                          Input orientation:                          
 ---------------------------------------------------------------------
 Center     Atomic     Atomic              Coordinates (Angstroms)
 Number     Number      Type              X           Y           Z
 ---------------------------------------------------------------------
    1          8             0        3.358950    0.666050    0.026710
    2          8             0        1.557230   -1.026570   -0.021540
    3          8             0       -2.962670   -1.328220    0.008980
    4          8             0       -0.888170    0.957970   -0.007300
    5         15             0        3.112080   -0.853190    0.016190
    6         20             0       -0.805460   -1.422500   -0.011910
    7         20             0        1.184900    1.560720   -0.016450
    8         20             0       -3.139640    0.793970    0.013480
 ---------------------------------------------------------------------
                    Distance matrix (angstroms):
                    1          2          3          4          5
     1  O    0.000000
     2  O    2.472546   0.000000
     3  O    6.628748   4.530057   0.000000
     4  O    4.257276   3.149378   3.087148   0.000000
     5  P    1.539203   1.564942   6.093299   4.391224   0.000000
     6  Ca   4.658953   2.395654   2.159370   2.381911   3.958791
     7  Ca   2.351338   2.613948   5.054598   2.158937   3.089021
     8  Ca   6.499862   5.037478   2.129561   2.257531   6.465071
                    6          7          8
     6  Ca   0.000000
     7  Ca   3.586245   0.000000
     8  Ca   3.218972   4.392089   0.000000
 Stoichiometry    Ca3O4P(1+)
 Framework group  C1[X(Ca3O4P)]
 Deg. of freedom    18
 Full point group                 C1
 Largest Abelian subgroup         C1      NOp   1
 Largest concise Abelian subgroup C1      NOp   1
                         Standard orientation:                         
 ---------------------------------------------------------------------
 Center     Atomic     Atomic              Coordinates (Angstroms)
 Number     Number      Type              X           Y           Z
 ---------------------------------------------------------------------
    1          8             0        3.358952    0.666047    0.026710
    2          8             0        1.557229   -1.026570   -0.021540
    3          8             0       -2.962671   -1.328214    0.008980
    4          8             0       -0.888168    0.957973   -0.007300
    5         15             0        3.112079   -0.853193    0.016190
    6         20             0       -0.805461   -1.422497   -0.011910
    7         20             0        1.184903    1.560720   -0.016450
    8         20             0       -3.139638    0.793977    0.013480
 ---------------------------------------------------------------------
 Rotational constants (GHZ):      1.7258105      0.4401422      0.3507268
 Standard basis: 6-31+G(d,p) (6D, 7F)
 There are   180 symmetry adapted basis functions of A   symmetry.
 Integral buffers will be    131072 words long.
 Raffenetti 2 integral format.
 Two-electron integral symmetry is turned on.
   180 basis functions,   424 primitive gaussians,   180 cartesian basis functions
    53 alpha electrons       53 beta electrons
       nuclear repulsion energy       811.4384186900 Hartrees.
 NAtoms=    8 NActive=    8 NUniq=    8 SFac= 7.50D-01 NAtFMM=   80 NAOKFM=F Big=F
 One-electron integrals computed using PRISM.
 NBasis=   180 RedAO= T  NBF=   180
 NBsUse=   180 1.00D-06 NBFU=   180
 Harris functional with IExCor=  402 diagonalized for initial guess.
 ExpMin= 7.10D-03 ExpMax= 3.53D+04 ExpMxC= 5.30D+03 IAcc=3 IRadAn=         5 AccDes= 0.00D+00
 HarFok:  IExCor= 402 AccDes= 0.00D+00 IRadAn=         5 IDoV=1
 ScaDFX=  1.000000  1.000000  1.000000  1.000000
 Initial guess orbital symmetries:
       Occupied  (A) (A) (A) (A) (A) (A) (A) (A) (A) (A) (A) (A)
                 (A) (A) (A) (A) (A) (A) (A) (A) (A) (A) (A) (A)
                 (A) (A) (A) (A) (A) (A) (A) (A) (A) (A) (A) (A)
                 (A) (A) (A) (A) (A) (A) (A) (A) (A) (A) (A) (A)
                 (A) (A) (A) (A) (A)
       Virtual   (A) (A) (A) (A) (A) (A) (A) (A) (A) (A) (A) (A)
                 (A) (A) (A) (A) (A) (A) (A) (A) (A) (A) (A) (A)
                 (A) (A) (A) (A) (A) (A) (A) (A) (A) (A) (A) (A)
                 (A) (A) (A) (A) (A) (A) (A) (A) (A) (A) (A) (A)
                 (A) (A) (A) (A) (A) (A) (A) (A) (A) (A) (A) (A)
                 (A) (A) (A) (A) (A) (A) (A) (A) (A) (A) (A) (A)
                 (A) (A) (A) (A) (A) (A) (A) (A) (A) (A) (A) (A)
                 (A) (A) (A) (A) (A) (A) (A) (A) (A) (A) (A) (A)
                 (A) (A) (A) (A) (A) (A) (A) (A) (A) (A) (A) (A)
                 (A) (A) (A) (A) (A) (A) (A) (A) (A) (A) (A) (A)
                 (A) (A) (A) (A) (A) (A) (A)
 The electronic state of the initial guess is 1-A.
 Requested convergence on RMS density matrix=1.00D-04 within 128 cycles.
 Requested convergence on MAX density matrix=1.00D-02.
 Requested convergence on             energy=1.00D-02.
 No special actions if energy rises.
 EnCoef did     3 forward-backward iterations
 EnCoef did   100 forward-backward iterations
 EnCoef did     4 forward-backward iterations
 EnCoef did     3 forward-backward iterations
 SCF Done:  E(RB+HF-LYP) =  -2675.00686133     A.U. after   10 cycles
             Convg  =    0.7619D-04             -V/T =  2.0027
             S**2   =   0.0000

 **********************************************************************

            Population analysis using the SCF density.

 **********************************************************************

 Orbital symmetries:
       Occupied  (A) (A) (A) (A) (A) (A) (A) (A) (A) (A) (A) (A)
                 (A) (A) (A) (A) (A) (A) (A) (A) (A) (A) (A) (A)
                 (A) (A) (A) (A) (A) (A) (A) (A) (A) (A) (A) (A)
                 (A) (A) (A) (A) (A) (A) (A) (A) (A) (A) (A) (A)
                 (A) (A) (A) (A) (A)
       Virtual   (A) (A) (A) (A) (A) (A) (A) (A) (A) (A) (A) (A)
                 (A) (A) (A) (A) (A) (A) (A) (A) (A) (A) (A) (A)
                 (A) (A) (A) (A) (A) (A) (A) (A) (A) (A) (A) (A)
                 (A) (A) (A) (A) (A) (A) (A) (A) (A) (A) (A) (A)
                 (A) (A) (A) (A) (A) (A) (A) (A) (A) (A) (A) (A)
                 (A) (A) (A) (A) (A) (A) (A) (A) (A) (A) (A) (A)
                 (A) (A) (A) (A) (A) (A) (A) (A) (A) (A) (A) (A)
                 (A) (A) (A) (A) (A) (A) (A) (A) (A) (A) (A) (A)
                 (A) (A) (A) (A) (A) (A) (A) (A) (A) (A) (A) (A)
                 (A) (A) (A) (A) (A) (A) (A) (A) (A) (A) (A) (A)
                 (A) (A) (A) (A) (A) (A) (A)
 The electronic state is 1-A.
 Alpha  occ. eigenvalues -- -145.52266-145.46976-145.45457 -77.31378 -19.29520
 Alpha  occ. eigenvalues --  -19.28769 -19.17016 -19.10509 -15.59175 -15.53873
 Alpha  occ. eigenvalues --  -15.52388 -12.72439 -12.72395 -12.72194 -12.67115
 Alpha  occ. eigenvalues --  -12.67030 -12.66952 -12.65657 -12.65566 -12.65431
 Alpha  occ. eigenvalues --   -6.76961  -4.93397  -4.93165  -4.92749  -1.96424
 Alpha  occ. eigenvalues --   -1.91162  -1.89806  -1.24357  -1.24344  -1.23311
 Alpha  occ. eigenvalues --   -1.19033  -1.18783  -1.18134  -1.17859  -1.17278
 Alpha  occ. eigenvalues --   -1.17056  -1.15045  -1.09390  -0.91741  -0.84476
 Alpha  occ. eigenvalues --   -0.68452  -0.57416  -0.54753  -0.54070  -0.46483
 Alpha  occ. eigenvalues --   -0.45032  -0.42657  -0.37845  -0.36786  -0.35795
 Alpha  occ. eigenvalues --   -0.30021  -0.28573  -0.28260
 Alpha virt. eigenvalues --   -0.21248  -0.20106  -0.17863  -0.15065  -0.12978
 Alpha virt. eigenvalues --   -0.11118  -0.10414  -0.10252  -0.09289  -0.08847
 Alpha virt. eigenvalues --   -0.08426  -0.07235  -0.06843  -0.06425  -0.05449
 Alpha virt. eigenvalues --   -0.05200  -0.04873  -0.04493  -0.04413  -0.04127
 Alpha virt. eigenvalues --   -0.03949  -0.03925  -0.03797  -0.03182  -0.02928
 Alpha virt. eigenvalues --   -0.02907  -0.02807  -0.01942  -0.00593   0.01377
 Alpha virt. eigenvalues --    0.02648   0.03158   0.03253   0.03715   0.04807
 Alpha virt. eigenvalues --    0.05131   0.05819   0.06142   0.06322   0.06483
 Alpha virt. eigenvalues --    0.06688   0.07417   0.07868   0.09123   0.09493
 Alpha virt. eigenvalues --    0.10223   0.10921   0.11035   0.11568   0.12019
 Alpha virt. eigenvalues --    0.14020   0.15080   0.15402   0.16856   0.17954
 Alpha virt. eigenvalues --    0.18831   0.19584   0.21173   0.21577   0.23879
 Alpha virt. eigenvalues --    0.24332   0.26723   0.27272   0.28719   0.28837
 Alpha virt. eigenvalues --    0.30758   0.31760   0.32089   0.34009   0.36408
 Alpha virt. eigenvalues --    0.38776   0.40416   0.42626   0.46017   0.46317
 Alpha virt. eigenvalues --    0.51348   0.54123   0.56270   0.60056   0.61202
 Alpha virt. eigenvalues --    0.63573   0.82543   0.87229   0.94457   1.04833
 Alpha virt. eigenvalues --    1.07417   1.09895   1.10851   1.13104   1.15604
 Alpha virt. eigenvalues --    1.17984   1.18375   1.18700   1.20831   1.24874
 Alpha virt. eigenvalues --    1.26169   1.33139   1.34348   1.40516   1.44246
 Alpha virt. eigenvalues --    1.54625   1.62996   1.63833   1.66258   1.69794
 Alpha virt. eigenvalues --    1.73060   1.77837   1.78776   1.80242   1.82568
 Alpha virt. eigenvalues --    1.86346   1.87082   1.87266   1.88558   1.88687
 Alpha virt. eigenvalues --    1.94734   1.99538   2.01751   2.05561   2.18321
 Alpha virt. eigenvalues --    2.51175   2.67815   3.38870   3.86665   3.88465
 Alpha virt. eigenvalues --    3.94294   4.05769
          Condensed to atoms (all electrons):
              1          2          3          4          5          6
     1  O    8.555367  -0.079778  -0.000001  -0.000549   0.095964   0.005507
     2  O   -0.079778   8.924894  -0.003662  -0.015532  -0.137358   0.029381
     3  O   -0.000001  -0.003662   8.705040  -0.024740  -0.000324   0.233426
     4  O   -0.000549  -0.015532  -0.024740   9.039503  -0.010059   0.044433
     5  P    0.095964  -0.137358  -0.000324  -0.010059  14.405345   0.003714
     6  Ca   0.005507   0.029381   0.233426   0.044433   0.003714  18.389083
     7  Ca   0.075236   0.018446  -0.003426   0.195218  -0.020666  -0.004934
     8  Ca   0.001791   0.005237   0.226350   0.093455  -0.012035  -0.028054
              7          8
     1  O    0.075236   0.001791
     2  O    0.018446   0.005237
     3  O   -0.003426   0.226350
     4  O    0.195218   0.093455
     5  P   -0.020666  -0.012035
     6  Ca  -0.004934  -0.028054
     7  Ca  18.253839  -0.013019
     8  Ca  -0.013019  18.378894
 Mulliken atomic charges:
              1
     1  O   -0.653537
     2  O   -0.741628
     3  O   -1.132662
     4  O   -1.321728
     5  P    0.675420
     6  Ca   1.327445
     7  Ca   1.499308
     8  Ca   1.347383
 Sum of Mulliken charges=   1.00000
 Atomic charges with hydrogens summed into heavy atoms:
              1
     1  O   -0.653537
     2  O   -0.741628
     3  O   -1.132662
     4  O   -1.321728
     5  P    0.675420
     6  Ca   1.327445
     7  Ca   1.499308
     8  Ca   1.347383
 Sum of Mulliken charges=   1.00000
 Electronic spatial extent (au):  <R**2>=  2691.0293
 Charge=     1.0000 electrons
 Dipole moment (field-independent basis, Debye):
    X=     0.1917    Y=     8.1733    Z=    -0.0968  Tot=     8.1761
 Quadrupole moment (field-independent basis, Debye-Ang):
   XX=   -60.0901   YY=   -52.1779   ZZ=   -68.9205
   XY=   -23.1593   XZ=    -0.3566   YZ=    -0.0205
 Traceless Quadrupole moment (field-independent basis, Debye-Ang):
   XX=     0.3061   YY=     8.2182   ZZ=    -8.5243
   XY=   -23.1593   XZ=    -0.3566   YZ=    -0.0205
 Octapole moment (field-independent basis, Debye-Ang**2):
  XXX=  -106.1425  YYY=    41.1190  ZZZ=    -0.2891  XYY=    23.7070
  XXY=   116.0487  XXZ=    -0.3507  XZZ=     0.3805  YZZ=     6.6765
  YYZ=    -0.5994  XYZ=    -1.2452
 Hexadecapole moment (field-independent basis, Debye-Ang**3):
 XXXX= -2346.3049 YYYY=  -551.7154 ZZZZ=   -83.8429 XXXY=  -514.3055
 XXXZ=    -5.3142 YYYX=     5.6388 YYYZ=     0.0598 ZZZX=    -0.8028
 ZZZY=     0.1416 XXYY=  -553.1715 XXZZ=  -411.2415 YYZZ=  -114.3347
 XXYZ=     0.5202 YYXZ=    -0.6188 ZZXY=    -8.4039
 N-N= 8.114384186900D+02 E-N=-7.947029136951D+03  KE= 2.667697426167D+03
 Merz-Kollman atomic radii used.
 Read replacement radii for each type of atom:
 Rad(20) =   1.188000000000D+00
 Atom Element Radius
    1     8    1.40
    2     8    1.40
    3     8    1.40
    4     8    1.40
    5    15    1.80
    6    20    1.19
    7    20    1.19
    8    20    1.19

 **********************************************************************

            Electrostatic Properties Using The SCF Density

 **********************************************************************

       Atomic Center    1 is at   3.358952  0.666047  0.026710
       Atomic Center    2 is at   1.557229 -1.026570 -0.021540
       Atomic Center    3 is at  -2.962671 -1.328214  0.008980
       Atomic Center    4 is at  -0.888168  0.957973 -0.007300
       Atomic Center    5 is at   3.112079 -0.853193  0.016190
       Atomic Center    6 is at  -0.805461 -1.422497 -0.011910
       Atomic Center    7 is at   1.184903  1.560720 -0.016450
       Atomic Center    8 is at  -3.139638  0.793977  0.013480
     817 points will be used for fitting atomic charges
 Fitting point charges to eletrostatic potential
 Charges from ESP fit, RMS=   0.00573 RRMS=   0.03812:
 Charge=   1.00000 Dipole=    -0.1950     8.4251    -0.0927 Tot=     8.4279
              1
     1  O   -0.646465
     2  O   -0.735293
     3  O   -1.482623
     4  O   -1.730119
     5  P    0.566864
     6  Ca   1.674956
     7  Ca   1.724553
     8  Ca   1.628126
 -----------------------------------------------------------------

              Electrostatic Properties (Atomic Units)

 -----------------------------------------------------------------
    Center     Electric         -------- Electric Field --------
               Potential          X             Y             Z
 -----------------------------------------------------------------
    1 Atom    -22.177324
    2 Atom    -22.167915
    3 Atom    -22.366711
    4 Atom    -22.292939
    5 Atom    -53.904395
    6 Atom    -80.086485
    7 Atom    -80.016543
    8 Atom    -80.074333
 -----------------------------------------------------------------
 1\1\GINC-N029\SP\RB3LYP\6-31+G(d,p)\Ca3O4P1(1+)\TIMN\12-Jun-2015\0\\# 
 b3lyp/6-31+G(d,p) int=ultrafine pop=(ReadRadii,MK)\\Ca3PO4_35.mol2c_pl
 usQ.z51447.zip.xyz\\1,1\O,0,3.35895,0.66605,0.02671\O,0,1.55723,-1.026
 57,-0.02154\O,0,-2.96267,-1.32822,0.00898\O,0,-0.88817,0.95797,-0.0073
 \P,0,3.11208,-0.85319,0.01619\Ca,0,-0.80546,-1.4225,-0.01191\Ca,0,1.18
 49,1.56072,-0.01645\Ca,0,-3.13964,0.79397,0.01348\\Version=EM64T-G03Re
 vE.01\State=1-A\HF=-2675.0068613\RMSD=7.619e-05\Thermal=0.\Dipole=0.07
 54219,3.2156292,-0.0380715\PG=C01 [X(Ca3O4P1)]\\@


 NATURE GIVES TO EVERY TIME AND SEASON SOME BEAUTY OF ITS OWN.

                                                    --DICKENS
 Job cpu time:  0 days  0 hours  1 minutes 45.2 seconds.
 File lengths (MBytes):  RWF=     32 Int=      0 D2E=      0 Chk=     11 Scr=      1
 Normal termination of Gaussian 03 at Fri Jun 12 17:43:11 2015.
