 Entering Gaussian System, Link 0=/home/timn/tmp/g03.e01/g03
 Input=Ca3PO4_167.mol2c_plusQ.z115805.zip.xyz.gjf
 Output=Ca3PO4_167.mol2c_plusQ.z115805.zip.xyz.out
 Initial command:
 /home/timn/tmp/g03.e01/l1.exe /home/timn/tmp/g03.e01/Gau-11778.inp -scrdir=/home/timn/tmp/g03.e01/
 Default is to use a total of   2 processors:
                                2 via shared-memory
                                1 via Linda
 Entering Link 1 = /home/timn/tmp/g03.e01/l1.exe PID=     11779.
  
 Copyright (c) 1988,1990,1992,1993,1995,1998,2003,2004,2007, Gaussian, Inc.
                  All Rights Reserved.
  
 This is the Gaussian(R) 03 program.  It is based on the
 the Gaussian(R) 98 system (copyright 1998, Gaussian, Inc.),
 the Gaussian(R) 94 system (copyright 1995, Gaussian, Inc.),
 the Gaussian 92(TM) system (copyright 1992, Gaussian, Inc.),
 the Gaussian 90(TM) system (copyright 1990, Gaussian, Inc.),
 the Gaussian 88(TM) system (copyright 1988, Gaussian, Inc.),
 the Gaussian 86(TM) system (copyright 1986, Carnegie Mellon
 University), and the Gaussian 82(TM) system (copyright 1983,
 Carnegie Mellon University). Gaussian is a federally registered
 trademark of Gaussian, Inc.
  
 This software contains proprietary and confidential information,
 including trade secrets, belonging to Gaussian, Inc.
  
 This software is provided under written license and may be
 used, copied, transmitted, or stored only in accord with that
 written license.
  
 The following legend is applicable only to US Government
 contracts under FAR:
  
                    RESTRICTED RIGHTS LEGEND
  
 Use, reproduction and disclosure by the US Government is
 subject to restrictions as set forth in subparagraphs (a)
 and (c) of the Commercial Computer Software - Restricted
 Rights clause in FAR 52.227-19.
  
 Gaussian, Inc.
 340 Quinnipiac St., Bldg. 40, Wallingford CT 06492
  
  
 ---------------------------------------------------------------
 Warning -- This program may not be used in any manner that
 competes with the business of Gaussian, Inc. or will provide
 assistance to any competitor of Gaussian, Inc.  The licensee
 of this program is prohibited from giving any competitor of
 Gaussian, Inc. access to this program.  By using this program,
 the user acknowledges that Gaussian, Inc. is engaged in the
 business of creating and licensing software in the field of
 computational chemistry and represents and warrants to the
 licensee that it is not a competitor of Gaussian, Inc. and that
 it will not use this program in any manner prohibited above.
 ---------------------------------------------------------------
  

 Cite this work as:
 Gaussian 03, Revision E.01,
 M. J. Frisch, G. W. Trucks, H. B. Schlegel, G. E. Scuseria, 
 M. A. Robb, J. R. Cheeseman, J. A. Montgomery, Jr., T. Vreven, 
 K. N. Kudin, J. C. Burant, J. M. Millam, S. S. Iyengar, J. Tomasi, 
 V. Barone, B. Mennucci, M. Cossi, G. Scalmani, N. Rega, 
 G. A. Petersson, H. Nakatsuji, M. Hada, M. Ehara, K. Toyota, 
 R. Fukuda, J. Hasegawa, M. Ishida, T. Nakajima, Y. Honda, O. Kitao, 
 H. Nakai, M. Klene, X. Li, J. E. Knox, H. P. Hratchian, J. B. Cross, 
 V. Bakken, C. Adamo, J. Jaramillo, R. Gomperts, R. E. Stratmann, 
 O. Yazyev, A. J. Austin, R. Cammi, C. Pomelli, J. W. Ochterski, 
 P. Y. Ayala, K. Morokuma, G. A. Voth, P. Salvador, J. J. Dannenberg, 
 V. G. Zakrzewski, S. Dapprich, A. D. Daniels, M. C. Strain, 
 O. Farkas, D. K. Malick, A. D. Rabuck, K. Raghavachari, 
 J. B. Foresman, J. V. Ortiz, Q. Cui, A. G. Baboul, S. Clifford, 
 J. Cioslowski, B. B. Stefanov, G. Liu, A. Liashenko, P. Piskorz, 
 I. Komaromi, R. L. Martin, D. J. Fox, T. Keith, M. A. Al-Laham, 
 C. Y. Peng, A. Nanayakkara, M. Challacombe, P. M. W. Gill, 
 B. Johnson, W. Chen, M. W. Wong, C. Gonzalez, and J. A. Pople, 
 Gaussian, Inc., Wallingford CT, 2004.
 
 ******************************************
 Gaussian 03:  EM64T-G03RevE.01 11-Sep-2007
                12-Jun-2015 
 ******************************************
 %nproc=2
 Will use up to    2 processors via shared memory.
 Default route:  MP2=Direct MaxDisk=2000MB
 ----------------------------------------------------
 # b3lyp/6-31+G(d,p) int=ultrafine pop=(ReadRadii,MK)
 ----------------------------------------------------

 Warning!  SCF SP cutoffs with diffuse functions may be unreliable.
 Consider SCF=Tight

 1/38=1/1;
 2/17=6,18=5,40=1/2;
 3/5=1,6=6,7=111,11=2,16=1,25=1,30=1,74=-5,75=5/1,2,3;
 4//1;
 5/5=2,32=1,38=5/2;
 6/7=2,8=2,9=2,10=2,15=8,20=101,28=1/1,2;
 99/5=1,9=1/99;
 --------------------------------------
 Ca3PO4_167.mol2c_plusQ.z115805.zip.xyz
 --------------------------------------
 Symbolic Z-matrix:
 Charge =  1 Multiplicity = 1
 O                    -1.47428   0.1201    0.92446 
 O                     0.63408  -1.34031   0.91988 
 O                     0.84429   1.21614   0.92325 
 O                    -0.00346   0.00258  -1.71155 
 P                     0.00225  -0.00255   1.71815 
 Ca                    1.93874  -0.15872  -0.57268 
 Ca                   -1.10855  -1.59876  -0.57083 
 Ca                   -0.83213   1.75998  -0.56752 
 
                          Input orientation:                          
 ---------------------------------------------------------------------
 Center     Atomic     Atomic              Coordinates (Angstroms)
 Number     Number      Type              X           Y           Z
 ---------------------------------------------------------------------
    1          8             0       -1.474280    0.120100    0.924460
    2          8             0        0.634080   -1.340310    0.919880
    3          8             0        0.844290    1.216140    0.923250
    4          8             0       -0.003460    0.002580   -1.711550
    5         15             0        0.002250   -0.002550    1.718150
    6         20             0        1.938740   -0.158720   -0.572680
    7         20             0       -1.108550   -1.598760   -0.570830
    8         20             0       -0.832130    1.759980   -0.567520
 ---------------------------------------------------------------------
                    Distance matrix (angstroms):
                    1          2          3          4          5
     1  O    0.000000
     2  O    2.564761   0.000000
     3  O    2.564580   2.565080   0.000000
     4  O    3.020873   3.022290   3.022181   0.000000
     5  P    1.680812   1.681085   1.681102   3.429709   0.000000
     6  Ca   3.737362   2.307819   2.307784   2.257251   3.003712
     7  Ca   2.307408   2.307763   3.737582   2.255384   3.003530
     8  Ca   2.308152   3.738172   2.308363   2.254762   3.004495
                    6          7          8
     6  Ca   0.000000
     7  Ca   3.370415   0.000000
     8  Ca   3.370335   3.370097   0.000000
 Stoichiometry    Ca3O4P(1+)
 Framework group  C1[X(Ca3O4P)]
 Deg. of freedom    18
 Full point group                 C1
 Largest Abelian subgroup         C1      NOp   1
 Largest concise Abelian subgroup C1      NOp   1
                         Standard orientation:                         
 ---------------------------------------------------------------------
 Center     Atomic     Atomic              Coordinates (Angstroms)
 Number     Number      Type              X           Y           Z
 ---------------------------------------------------------------------
    1          8             0       -1.476054    0.095868    0.924460
    2          8             0        0.656011   -1.329712    0.919880
    3          8             0        0.824199    1.229846    0.923250
    4          8             0       -0.003502    0.002524   -1.711550
    5         15             0        0.002292   -0.002511    1.718150
    6         20             0        1.941086   -0.126850   -0.572680
    7         20             0       -1.082138   -1.616752   -0.570830
    8         20             0       -0.860928    1.746075   -0.567520
 ---------------------------------------------------------------------
 Rotational constants (GHZ):      1.0154830      1.0154263      0.9038413
 Standard basis: 6-31+G(d,p) (6D, 7F)
 There are   180 symmetry adapted basis functions of A   symmetry.
 Integral buffers will be    131072 words long.
 Raffenetti 2 integral format.
 Two-electron integral symmetry is turned on.
   180 basis functions,   424 primitive gaussians,   180 cartesian basis functions
    53 alpha electrons       53 beta electrons
       nuclear repulsion energy       952.7196799148 Hartrees.
 NAtoms=    8 NActive=    8 NUniq=    8 SFac= 7.50D-01 NAtFMM=   80 NAOKFM=F Big=F
 One-electron integrals computed using PRISM.
 NBasis=   180 RedAO= T  NBF=   180
 NBsUse=   180 1.00D-06 NBFU=   180
 Harris functional with IExCor=  402 diagonalized for initial guess.
 ExpMin= 7.10D-03 ExpMax= 3.53D+04 ExpMxC= 5.30D+03 IAcc=3 IRadAn=         5 AccDes= 0.00D+00
 HarFok:  IExCor= 402 AccDes= 0.00D+00 IRadAn=         5 IDoV=1
 ScaDFX=  1.000000  1.000000  1.000000  1.000000
 Initial guess orbital symmetries:
       Occupied  (A) (A) (A) (A) (A) (A) (A) (A) (A) (A) (A) (A)
                 (A) (A) (A) (A) (A) (A) (A) (A) (A) (A) (A) (A)
                 (A) (A) (A) (A) (A) (A) (A) (A) (A) (A) (A) (A)
                 (A) (A) (A) (A) (A) (A) (A) (A) (A) (A) (A) (A)
                 (A) (A) (A) (A) (A)
       Virtual   (A) (A) (A) (A) (A) (A) (A) (A) (A) (A) (A) (A)
                 (A) (A) (A) (A) (A) (A) (A) (A) (A) (A) (A) (A)
                 (A) (A) (A) (A) (A) (A) (A) (A) (A) (A) (A) (A)
                 (A) (A) (A) (A) (A) (A) (A) (A) (A) (A) (A) (A)
                 (A) (A) (A) (A) (A) (A) (A) (A) (A) (A) (A) (A)
                 (A) (A) (A) (A) (A) (A) (A) (A) (A) (A) (A) (A)
                 (A) (A) (A) (A) (A) (A) (A) (A) (A) (A) (A) (A)
                 (A) (A) (A) (A) (A) (A) (A) (A) (A) (A) (A) (A)
                 (A) (A) (A) (A) (A) (A) (A) (A) (A) (A) (A) (A)
                 (A) (A) (A) (A) (A) (A) (A) (A) (A) (A) (A) (A)
                 (A) (A) (A) (A) (A) (A) (A)
 The electronic state of the initial guess is 1-A.
 Requested convergence on RMS density matrix=1.00D-04 within 128 cycles.
 Requested convergence on MAX density matrix=1.00D-02.
 Requested convergence on             energy=1.00D-02.
 No special actions if energy rises.
 SCF Done:  E(RB+HF-LYP) =  -2675.07103742     A.U. after    8 cycles
             Convg  =    0.8339D-04             -V/T =  2.0028
             S**2   =   0.0000

 **********************************************************************

            Population analysis using the SCF density.

 **********************************************************************

 Orbital symmetries:
       Occupied  (A) (A) (A) (A) (A) (A) (A) (A) (A) (A) (A) (A)
                 (A) (A) (A) (A) (A) (A) (A) (A) (A) (A) (A) (A)
                 (A) (A) (A) (A) (A) (A) (A) (A) (A) (A) (A) (A)
                 (A) (A) (A) (A) (A) (A) (A) (A) (A) (A) (A) (A)
                 (A) (A) (A) (A) (A)
       Virtual   (A) (A) (A) (A) (A) (A) (A) (A) (A) (A) (A) (A)
                 (A) (A) (A) (A) (A) (A) (A) (A) (A) (A) (A) (A)
                 (A) (A) (A) (A) (A) (A) (A) (A) (A) (A) (A) (A)
                 (A) (A) (A) (A) (A) (A) (A) (A) (A) (A) (A) (A)
                 (A) (A) (A) (A) (A) (A) (A) (A) (A) (A) (A) (A)
                 (A) (A) (A) (A) (A) (A) (A) (A) (A) (A) (A) (A)
                 (A) (A) (A) (A) (A) (A) (A) (A) (A) (A) (A) (A)
                 (A) (A) (A) (A) (A) (A) (A) (A) (A) (A) (A) (A)
                 (A) (A) (A) (A) (A) (A) (A) (A) (A) (A) (A) (A)
                 (A) (A) (A) (A) (A) (A) (A) (A) (A) (A) (A) (A)
                 (A) (A) (A) (A) (A) (A) (A)
 The electronic state is 1-A.
 Alpha  occ. eigenvalues -- -145.49652-145.49631-145.49626 -77.25053 -19.21236
 Alpha  occ. eigenvalues --  -19.21226 -19.21203 -19.15944 -15.56486 -15.56466
 Alpha  occ. eigenvalues --  -15.56462 -12.69684 -12.69664 -12.69662 -12.69661
 Alpha  occ. eigenvalues --  -12.69642 -12.69638 -12.69615 -12.69594 -12.69591
 Alpha  occ. eigenvalues --   -6.70083  -4.86431  -4.86431  -4.85895  -1.93824
 Alpha  occ. eigenvalues --   -1.93744  -1.93732  -1.22376  -1.21698  -1.21691
 Alpha  occ. eigenvalues --   -1.21307  -1.21139  -1.21067  -1.21059  -1.20648
 Alpha  occ. eigenvalues --   -1.20636  -1.06758  -1.00357  -1.00349  -0.90945
 Alpha  occ. eigenvalues --   -0.62639  -0.50526  -0.50523  -0.47959  -0.43356
 Alpha  occ. eigenvalues --   -0.43354  -0.38345  -0.38338  -0.38174  -0.36141
 Alpha  occ. eigenvalues --   -0.36139  -0.34594  -0.30857
 Alpha virt. eigenvalues --   -0.19950  -0.18030  -0.18024  -0.12558  -0.12552
 Alpha virt. eigenvalues --   -0.10894  -0.09479  -0.09476  -0.08338  -0.07772
 Alpha virt. eigenvalues --   -0.06545  -0.06115  -0.06114  -0.04764  -0.04715
 Alpha virt. eigenvalues --   -0.04714  -0.04673  -0.04473  -0.04471  -0.04004
 Alpha virt. eigenvalues --   -0.04002  -0.03232  -0.02943  -0.02942  -0.02357
 Alpha virt. eigenvalues --   -0.02356  -0.00866   0.01029   0.02175   0.02615
 Alpha virt. eigenvalues --    0.02620   0.04574   0.04576   0.05227   0.06003
 Alpha virt. eigenvalues --    0.06006   0.06292   0.06296   0.07292   0.07293
 Alpha virt. eigenvalues --    0.07382   0.07662   0.07668   0.07822   0.08465
 Alpha virt. eigenvalues --    0.10682   0.10688   0.11333   0.11804   0.13662
 Alpha virt. eigenvalues --    0.15680   0.15682   0.19890   0.19894   0.20370
 Alpha virt. eigenvalues --    0.22084   0.22091   0.23487   0.23992   0.25318
 Alpha virt. eigenvalues --    0.25956   0.25963   0.30035   0.31448   0.31458
 Alpha virt. eigenvalues --    0.35745   0.35998   0.36012   0.37865   0.39078
 Alpha virt. eigenvalues --    0.39092   0.39779   0.45818   0.45854   0.53627
 Alpha virt. eigenvalues --    0.53637   0.55842   0.63367   0.63375   0.67687
 Alpha virt. eigenvalues --    0.82897   0.86951   0.86966   0.94103   0.94115
 Alpha virt. eigenvalues --    1.14549   1.16755   1.16758   1.18032   1.20784
 Alpha virt. eigenvalues --    1.21968   1.21980   1.23403   1.23407   1.28209
 Alpha virt. eigenvalues --    1.34155   1.34183   1.36427   1.54452   1.54473
 Alpha virt. eigenvalues --    1.57770   1.68377   1.71622   1.73142   1.73152
 Alpha virt. eigenvalues --    1.77480   1.77486   1.87077   1.87362   1.87381
 Alpha virt. eigenvalues --    1.88076   1.92067   1.92086   1.93332   1.98431
 Alpha virt. eigenvalues --    1.98445   2.03017   2.03036   2.14792   2.38181
 Alpha virt. eigenvalues --    2.55143   2.55180   3.54378   4.05633   4.14269
 Alpha virt. eigenvalues --    4.14295   4.31235
          Condensed to atoms (all electrons):
              1          2          3          4          5          6
     1  O    8.965586   0.058692   0.058576   0.024039  -0.200765   0.006217
     2  O    0.058692   8.966079   0.058708   0.023933  -0.201045   0.059882
     3  O    0.058576   0.058708   8.965985   0.023951  -0.200843   0.059913
     4  O    0.024039   0.023933   0.023951   8.852882  -0.039976   0.121993
     5  P   -0.200765  -0.201045  -0.200843  -0.039976  14.443088   0.033844
     6  Ca   0.006217   0.059882   0.059913   0.121993   0.033844  18.396745
     7  Ca   0.059862   0.059833   0.006269   0.122107   0.033823  -0.047723
     8  Ca   0.059741   0.006180   0.059731   0.122201   0.033847  -0.047529
              7          8
     1  O    0.059862   0.059741
     2  O    0.059833   0.006180
     3  O    0.006269   0.059731
     4  O    0.122107   0.122201
     5  P    0.033823   0.033847
     6  Ca  -0.047723  -0.047529
     7  Ca  18.397037  -0.047587
     8  Ca  -0.047587  18.396853
 Mulliken atomic charges:
              1
     1  O   -1.031947
     2  O   -1.032263
     3  O   -1.032289
     4  O   -1.251130
     5  P    1.098029
     6  Ca   1.416658
     7  Ca   1.416379
     8  Ca   1.416563
 Sum of Mulliken charges=   1.00000
 Atomic charges with hydrogens summed into heavy atoms:
              1
     1  O   -1.031947
     2  O   -1.032263
     3  O   -1.032289
     4  O   -1.251130
     5  P    1.098029
     6  Ca   1.416658
     7  Ca   1.416379
     8  Ca   1.416563
 Sum of Mulliken charges=   1.00000
 Electronic spatial extent (au):  <R**2>=  1510.1000
 Charge=     1.0000 electrons
 Dipole moment (field-independent basis, Debye):
    X=    -0.0076    Y=     0.0126    Z=    -8.2358  Tot=     8.2358
 Quadrupole moment (field-independent basis, Debye-Ang):
   XX=   -40.0255   YY=   -40.0478   ZZ=   -90.0076
   XY=     0.0004   XZ=    -0.0775   YZ=     0.0575
 Traceless Quadrupole moment (field-independent basis, Debye-Ang):
   XX=    16.6681   YY=    16.6459   ZZ=   -33.3140
   XY=     0.0004   XZ=    -0.0775   YZ=     0.0575
 Octapole moment (field-independent basis, Debye-Ang**2):
  XXX=    57.2906  YYY=    11.6692  ZZZ=    -1.7321  XYY=   -57.5218
  XXY=   -11.4030  XXZ=   -46.7630  XZZ=     0.1280  YZZ=    -0.1097
  YYZ=   -46.6046  XYZ=    -0.0523
 Hexadecapole moment (field-independent basis, Debye-Ang**3):
 XXXX=  -416.0555 YYYY=  -416.0901 ZZZZ=  -721.6891 XXXY=     0.0280
 XXXZ=   -15.4246 YYYX=    -0.0624 YYYZ=    -2.7953 ZZZX=    -0.3464
 ZZZY=     0.2878 XXYY=  -138.6708 XXZZ=  -187.5548 YYZZ=  -187.6313
 XXYZ=     3.0985 YYXZ=    15.0446 ZZXY=     0.0172
 N-N= 9.527196799148D+02 E-N=-8.229915647179D+03  KE= 2.667694747915D+03
 Merz-Kollman atomic radii used.
 Read replacement radii for each type of atom:
 Rad(20) =   1.188000000000D+00
 Atom Element Radius
    1     8    1.40
    2     8    1.40
    3     8    1.40
    4     8    1.40
    5    15    1.80
    6    20    1.19
    7    20    1.19
    8    20    1.19

 **********************************************************************

            Electrostatic Properties Using The SCF Density

 **********************************************************************

       Atomic Center    1 is at  -1.476054  0.095868  0.924460
       Atomic Center    2 is at   0.656011 -1.329712  0.919880
       Atomic Center    3 is at   0.824199  1.229846  0.923250
       Atomic Center    4 is at  -0.003502  0.002524 -1.711550
       Atomic Center    5 is at   0.002292 -0.002511  1.718150
       Atomic Center    6 is at   1.941086 -0.126850 -0.572680
       Atomic Center    7 is at  -1.082138 -1.616752 -0.570830
       Atomic Center    8 is at  -0.860928  1.746075 -0.567520
     675 points will be used for fitting atomic charges
 Fitting point charges to eletrostatic potential
 Charges from ESP fit, RMS=   0.00606 RRMS=   0.03726:
 Charge=   1.00000 Dipole=    -0.0052     0.0018    -8.4447 Tot=     8.4447
              1
     1  O   -0.951639
     2  O   -0.950240
     3  O   -0.949831
     4  O   -1.633603
     5  P    0.526623
     6  Ca   1.651864
     7  Ca   1.654194
     8  Ca   1.652632
 -----------------------------------------------------------------

              Electrostatic Properties (Atomic Units)

 -----------------------------------------------------------------
    Center     Electric         -------- Electric Field --------
               Potential          X             Y             Z
 -----------------------------------------------------------------
    1 Atom    -22.250873
    2 Atom    -22.251553
    3 Atom    -22.251401
    4 Atom    -22.290878
    5 Atom    -53.968052
    6 Atom    -80.043168
    7 Atom    -80.043386
    8 Atom    -80.043340
 -----------------------------------------------------------------
 1\1\GINC-N034\SP\RB3LYP\6-31+G(d,p)\Ca3O4P1(1+)\TIMN\12-Jun-2015\0\\# 
 b3lyp/6-31+G(d,p) int=ultrafine pop=(ReadRadii,MK)\\Ca3PO4_167.mol2c_p
 lusQ.z115805.zip.xyz\\1,1\O,0,-1.47428,0.1201,0.92446\O,0,0.63408,-1.3
 4031,0.91988\O,0,0.84429,1.21614,0.92325\O,0,-0.00346,0.00258,-1.71155
 \P,0,0.00225,-0.00255,1.71815\Ca,0,1.93874,-0.15872,-0.57268\Ca,0,-1.1
 0855,-1.59876,-0.57083\Ca,0,-0.83213,1.75998,-0.56752\\Version=EM64T-G
 03RevE.01\State=1-A\HF=-2675.0710374\RMSD=8.339e-05\Thermal=0.\Dipole=
 -0.0028916,0.0050156,-3.2402274\PG=C01 [X(Ca3O4P1)]\\@


 TOWERING GENIUS DISDAINS A BEATEN PATH.  IT SEEKS 
 REGIONS HITHERTO UNEXPLORED.

                                -- ABRAHAM LINCOLN
 Job cpu time:  0 days  0 hours  1 minutes 42.2 seconds.
 File lengths (MBytes):  RWF=     32 Int=      0 D2E=      0 Chk=     11 Scr=      1
 Normal termination of Gaussian 03 at Fri Jun 12 17:39:12 2015.
