 Entering Gaussian System, Link 0=/home/timn/tmp/g03.e01/g03
 Input=Ca3PO4_121.mol2c_plusQ.z51123.zip.xyz.gjf
 Output=Ca3PO4_121.mol2c_plusQ.z51123.zip.xyz.out
 Initial command:
 /home/timn/tmp/g03.e01/l1.exe /home/timn/tmp/g03.e01/Gau-11565.inp -scrdir=/home/timn/tmp/g03.e01/
 Default is to use a total of   2 processors:
                                2 via shared-memory
                                1 via Linda
 Entering Link 1 = /home/timn/tmp/g03.e01/l1.exe PID=     11566.
  
 Copyright (c) 1988,1990,1992,1993,1995,1998,2003,2004,2007, Gaussian, Inc.
                  All Rights Reserved.
  
 This is the Gaussian(R) 03 program.  It is based on the
 the Gaussian(R) 98 system (copyright 1998, Gaussian, Inc.),
 the Gaussian(R) 94 system (copyright 1995, Gaussian, Inc.),
 the Gaussian 92(TM) system (copyright 1992, Gaussian, Inc.),
 the Gaussian 90(TM) system (copyright 1990, Gaussian, Inc.),
 the Gaussian 88(TM) system (copyright 1988, Gaussian, Inc.),
 the Gaussian 86(TM) system (copyright 1986, Carnegie Mellon
 University), and the Gaussian 82(TM) system (copyright 1983,
 Carnegie Mellon University). Gaussian is a federally registered
 trademark of Gaussian, Inc.
  
 This software contains proprietary and confidential information,
 including trade secrets, belonging to Gaussian, Inc.
  
 This software is provided under written license and may be
 used, copied, transmitted, or stored only in accord with that
 written license.
  
 The following legend is applicable only to US Government
 contracts under FAR:
  
                    RESTRICTED RIGHTS LEGEND
  
 Use, reproduction and disclosure by the US Government is
 subject to restrictions as set forth in subparagraphs (a)
 and (c) of the Commercial Computer Software - Restricted
 Rights clause in FAR 52.227-19.
  
 Gaussian, Inc.
 340 Quinnipiac St., Bldg. 40, Wallingford CT 06492
  
  
 ---------------------------------------------------------------
 Warning -- This program may not be used in any manner that
 competes with the business of Gaussian, Inc. or will provide
 assistance to any competitor of Gaussian, Inc.  The licensee
 of this program is prohibited from giving any competitor of
 Gaussian, Inc. access to this program.  By using this program,
 the user acknowledges that Gaussian, Inc. is engaged in the
 business of creating and licensing software in the field of
 computational chemistry and represents and warrants to the
 licensee that it is not a competitor of Gaussian, Inc. and that
 it will not use this program in any manner prohibited above.
 ---------------------------------------------------------------
  

 Cite this work as:
 Gaussian 03, Revision E.01,
 M. J. Frisch, G. W. Trucks, H. B. Schlegel, G. E. Scuseria, 
 M. A. Robb, J. R. Cheeseman, J. A. Montgomery, Jr., T. Vreven, 
 K. N. Kudin, J. C. Burant, J. M. Millam, S. S. Iyengar, J. Tomasi, 
 V. Barone, B. Mennucci, M. Cossi, G. Scalmani, N. Rega, 
 G. A. Petersson, H. Nakatsuji, M. Hada, M. Ehara, K. Toyota, 
 R. Fukuda, J. Hasegawa, M. Ishida, T. Nakajima, Y. Honda, O. Kitao, 
 H. Nakai, M. Klene, X. Li, J. E. Knox, H. P. Hratchian, J. B. Cross, 
 V. Bakken, C. Adamo, J. Jaramillo, R. Gomperts, R. E. Stratmann, 
 O. Yazyev, A. J. Austin, R. Cammi, C. Pomelli, J. W. Ochterski, 
 P. Y. Ayala, K. Morokuma, G. A. Voth, P. Salvador, J. J. Dannenberg, 
 V. G. Zakrzewski, S. Dapprich, A. D. Daniels, M. C. Strain, 
 O. Farkas, D. K. Malick, A. D. Rabuck, K. Raghavachari, 
 J. B. Foresman, J. V. Ortiz, Q. Cui, A. G. Baboul, S. Clifford, 
 J. Cioslowski, B. B. Stefanov, G. Liu, A. Liashenko, P. Piskorz, 
 I. Komaromi, R. L. Martin, D. J. Fox, T. Keith, M. A. Al-Laham, 
 C. Y. Peng, A. Nanayakkara, M. Challacombe, P. M. W. Gill, 
 B. Johnson, W. Chen, M. W. Wong, C. Gonzalez, and J. A. Pople, 
 Gaussian, Inc., Wallingford CT, 2004.
 
 ******************************************
 Gaussian 03:  EM64T-G03RevE.01 11-Sep-2007
                12-Jun-2015 
 ******************************************
 %nproc=2
 Will use up to    2 processors via shared memory.
 Default route:  MP2=Direct MaxDisk=2000MB
 ----------------------------------------------------
 # b3lyp/6-31+G(d,p) int=ultrafine pop=(ReadRadii,MK)
 ----------------------------------------------------

 Warning!  SCF SP cutoffs with diffuse functions may be unreliable.
 Consider SCF=Tight

 1/38=1/1;
 2/17=6,18=5,40=1/2;
 3/5=1,6=6,7=111,11=2,16=1,25=1,30=1,74=-5,75=5/1,2,3;
 4//1;
 5/5=2,32=1,38=5/2;
 6/7=2,8=2,9=2,10=2,15=8,20=101,28=1/1,2;
 99/5=1,9=1/99;
 -------------------------------------
 Ca3PO4_121.mol2c_plusQ.z51123.zip.xyz
 -------------------------------------
 Symbolic Z-matrix:
 Charge =  1 Multiplicity = 1
 O                     2.0477   -0.88546   0.78554 
 O                     2.04811  -0.8869   -0.78488 
 O                    -1.73664  -1.70936  -0.00038 
 O                    -2.25951   0.77741   0.00029 
 P                    -2.85561  -0.64306  -0.00168 
 Ca                   -0.89003   2.62647   0.00118 
 Ca                    2.5253    1.17702  -0.0014 
 Ca                    0.46657  -2.23948   0.00126 
 
                          Input orientation:                          
 ---------------------------------------------------------------------
 Center     Atomic     Atomic              Coordinates (Angstroms)
 Number     Number      Type              X           Y           Z
 ---------------------------------------------------------------------
    1          8             0        2.047700   -0.885460    0.785540
    2          8             0        2.048110   -0.886900   -0.784880
    3          8             0       -1.736640   -1.709360   -0.000380
    4          8             0       -2.259510    0.777410    0.000290
    5         15             0       -2.855610   -0.643060   -0.001680
    6         20             0       -0.890030    2.626470    0.001180
    7         20             0        2.525300    1.177020   -0.001400
    8         20             0        0.466570   -2.239480    0.001260
 ---------------------------------------------------------------------
                    Distance matrix (angstroms):
                    1          2          3          4          5
     1  O    0.000000
     2  O    1.570421   0.000000
     3  O    3.951925   3.951735   0.000000
     4  O    4.683355   4.684230   2.541145   0.000000
     5  P    4.972014   4.971854   1.545669   1.540479   0.000000
     6  Ca   4.645334   4.646970   4.417711   2.300978   3.814884
     7  Ca   2.258584   2.258610   5.147361   4.801468   5.680395
     8  Ca   2.224508   2.224580   2.266090   4.066096   3.685844
                    6          7          8
     6  Ca   0.000000
     7  Ca   3.710174   0.000000
     8  Ca   5.051518   3.988841   0.000000
 Stoichiometry    Ca3O4P(1+)
 Framework group  C1[X(Ca3O4P)]
 Deg. of freedom    18
 Full point group                 C1
 Largest Abelian subgroup         C1      NOp   1
 Largest concise Abelian subgroup C1      NOp   1
                         Standard orientation:                         
 ---------------------------------------------------------------------
 Center     Atomic     Atomic              Coordinates (Angstroms)
 Number     Number      Type              X           Y           Z
 ---------------------------------------------------------------------
    1          8             0        2.047700   -0.885460    0.785539
    2          8             0        2.048110   -0.886900   -0.784881
    3          8             0       -1.736641   -1.709357   -0.000381
    4          8             0       -2.259509    0.777414    0.000289
    5         15             0       -2.855610   -0.643055   -0.001681
    6         20             0       -0.890027    2.626473    0.001179
    7         20             0        2.525302    1.177019   -0.001401
    8         20             0        0.466568   -2.239479    0.001259
 ---------------------------------------------------------------------
 Rotational constants (GHZ):      0.7829272      0.6077597      0.3515445
 Standard basis: 6-31+G(d,p) (6D, 7F)
 There are   180 symmetry adapted basis functions of A   symmetry.
 Integral buffers will be    131072 words long.
 Raffenetti 2 integral format.
 Two-electron integral symmetry is turned on.
   180 basis functions,   424 primitive gaussians,   180 cartesian basis functions
    53 alpha electrons       53 beta electrons
       nuclear repulsion energy       774.7706246153 Hartrees.
 NAtoms=    8 NActive=    8 NUniq=    8 SFac= 7.50D-01 NAtFMM=   80 NAOKFM=F Big=F
 One-electron integrals computed using PRISM.
 NBasis=   180 RedAO= T  NBF=   180
 NBsUse=   180 1.00D-06 NBFU=   180
 Harris functional with IExCor=  402 diagonalized for initial guess.
 ExpMin= 7.10D-03 ExpMax= 3.53D+04 ExpMxC= 5.30D+03 IAcc=3 IRadAn=         5 AccDes= 0.00D+00
 HarFok:  IExCor= 402 AccDes= 0.00D+00 IRadAn=         5 IDoV=1
 ScaDFX=  1.000000  1.000000  1.000000  1.000000
 Initial guess orbital symmetries:
       Occupied  (A) (A) (A) (A) (A) (A) (A) (A) (A) (A) (A) (A)
                 (A) (A) (A) (A) (A) (A) (A) (A) (A) (A) (A) (A)
                 (A) (A) (A) (A) (A) (A) (A) (A) (A) (A) (A) (A)
                 (A) (A) (A) (A) (A) (A) (A) (A) (A) (A) (A) (A)
                 (A) (A) (A) (A) (A)
       Virtual   (A) (A) (A) (A) (A) (A) (A) (A) (A) (A) (A) (A)
                 (A) (A) (A) (A) (A) (A) (A) (A) (A) (A) (A) (A)
                 (A) (A) (A) (A) (A) (A) (A) (A) (A) (A) (A) (A)
                 (A) (A) (A) (A) (A) (A) (A) (A) (A) (A) (A) (A)
                 (A) (A) (A) (A) (A) (A) (A) (A) (A) (A) (A) (A)
                 (A) (A) (A) (A) (A) (A) (A) (A) (A) (A) (A) (A)
                 (A) (A) (A) (A) (A) (A) (A) (A) (A) (A) (A) (A)
                 (A) (A) (A) (A) (A) (A) (A) (A) (A) (A) (A) (A)
                 (A) (A) (A) (A) (A) (A) (A) (A) (A) (A) (A) (A)
                 (A) (A) (A) (A) (A) (A) (A) (A) (A) (A) (A) (A)
                 (A) (A) (A) (A) (A) (A) (A)
 The electronic state of the initial guess is 1-A.
 Requested convergence on RMS density matrix=1.00D-04 within 128 cycles.
 Requested convergence on MAX density matrix=1.00D-02.
 Requested convergence on             energy=1.00D-02.
 No special actions if energy rises.
 EnCoef did     4 forward-backward iterations
 EnCoef did   100 forward-backward iterations
 SCF Done:  E(RB+HF-LYP) =  -2674.90063730     A.U. after   10 cycles
             Convg  =    0.2228D-04             -V/T =  2.0027
             S**2   =   0.0000

 **********************************************************************

            Population analysis using the SCF density.

 **********************************************************************

 Orbital symmetries:
       Occupied  (A) (A) (A) (A) (A) (A) (A) (A) (A) (A) (A) (A)
                 (A) (A) (A) (A) (A) (A) (A) (A) (A) (A) (A) (A)
                 (A) (A) (A) (A) (A) (A) (A) (A) (A) (A) (A) (A)
                 (A) (A) (A) (A) (A) (A) (A) (A) (A) (A) (A) (A)
                 (A) (A) (A) (A) (A)
       Virtual   (A) (A) (A) (A) (A) (A) (A) (A) (A) (A) (A) (A)
                 (A) (A) (A) (A) (A) (A) (A) (A) (A) (A) (A) (A)
                 (A) (A) (A) (A) (A) (A) (A) (A) (A) (A) (A) (A)
                 (A) (A) (A) (A) (A) (A) (A) (A) (A) (A) (A) (A)
                 (A) (A) (A) (A) (A) (A) (A) (A) (A) (A) (A) (A)
                 (A) (A) (A) (A) (A) (A) (A) (A) (A) (A) (A) (A)
                 (A) (A) (A) (A) (A) (A) (A) (A) (A) (A) (A) (A)
                 (A) (A) (A) (A) (A) (A) (A) (A) (A) (A) (A) (A)
                 (A) (A) (A) (A) (A) (A) (A) (A) (A) (A) (A) (A)
                 (A) (A) (A) (A) (A) (A) (A) (A) (A) (A) (A) (A)
                 (A) (A) (A) (A) (A) (A) (A)
 The electronic state is 1-A.
 Alpha  occ. eigenvalues -- -145.51406-145.50957-145.49492 -77.29437 -19.27283
 Alpha  occ. eigenvalues --  -19.27145 -19.23961 -19.23931 -15.58396 -15.57831
 Alpha  occ. eigenvalues --  -15.56467 -12.71591 -12.71576 -12.71465 -12.71064
 Alpha  occ. eigenvalues --  -12.71049 -12.70903 -12.69684 -12.69652 -12.69538
 Alpha  occ. eigenvalues --   -6.74924  -4.91369  -4.91150  -4.90701  -1.95526
 Alpha  occ. eigenvalues --   -1.95025  -1.93677  -1.23157  -1.23029  -1.22961
 Alpha  occ. eigenvalues --   -1.22711  -1.22658  -1.22631  -1.21318  -1.21153
 Alpha  occ. eigenvalues --   -1.20984  -1.13243  -1.07948  -1.06513  -0.87737
 Alpha  occ. eigenvalues --   -0.67205  -0.56772  -0.52050  -0.51926  -0.47330
 Alpha  occ. eigenvalues --   -0.46451  -0.45148  -0.44571  -0.43333  -0.39977
 Alpha  occ. eigenvalues --   -0.35755  -0.32201  -0.27375
 Alpha virt. eigenvalues --   -0.19207  -0.18703  -0.17854  -0.14891  -0.13674
 Alpha virt. eigenvalues --   -0.12168  -0.11966  -0.10033  -0.09275  -0.08009
 Alpha virt. eigenvalues --   -0.07804  -0.07422  -0.06922  -0.06780  -0.05864
 Alpha virt. eigenvalues --   -0.05478  -0.05326  -0.05247  -0.04991  -0.04600
 Alpha virt. eigenvalues --   -0.04386  -0.04265  -0.04160  -0.03408  -0.03141
 Alpha virt. eigenvalues --   -0.03061  -0.02811  -0.02743  -0.01627  -0.00942
 Alpha virt. eigenvalues --    0.00158   0.02192   0.02561   0.03335   0.03777
 Alpha virt. eigenvalues --    0.03917   0.04413   0.04615   0.05274   0.06096
 Alpha virt. eigenvalues --    0.06138   0.06747   0.06967   0.07386   0.08109
 Alpha virt. eigenvalues --    0.08724   0.08855   0.09101   0.10250   0.11063
 Alpha virt. eigenvalues --    0.11152   0.12148   0.12561   0.13642   0.15126
 Alpha virt. eigenvalues --    0.16262   0.16311   0.18003   0.18488   0.19608
 Alpha virt. eigenvalues --    0.20853   0.21483   0.23755   0.24027   0.27038
 Alpha virt. eigenvalues --    0.28256   0.30322   0.32821   0.33159   0.34698
 Alpha virt. eigenvalues --    0.36701   0.36916   0.38549   0.38586   0.41697
 Alpha virt. eigenvalues --    0.48122   0.48850   0.55897   0.57797   0.59252
 Alpha virt. eigenvalues --    0.65092   0.74591   0.78657   0.84223   0.91748
 Alpha virt. eigenvalues --    0.99809   1.06148   1.07958   1.08644   1.09915
 Alpha virt. eigenvalues --    1.11085   1.12314   1.15634   1.17468   1.22323
 Alpha virt. eigenvalues --    1.25153   1.25627   1.27083   1.39464   1.40584
 Alpha virt. eigenvalues --    1.48780   1.50597   1.55928   1.57379   1.65948
 Alpha virt. eigenvalues --    1.66405   1.68431   1.71585   1.73340   1.75853
 Alpha virt. eigenvalues --    1.83388   1.85130   1.86981   1.88049   1.88238
 Alpha virt. eigenvalues --    1.91171   2.09165   2.18313   2.18754   2.54163
 Alpha virt. eigenvalues --    2.68932   3.01915   3.40392   3.81622   3.89738
 Alpha virt. eigenvalues --    3.94774   4.05885
          Condensed to atoms (all electrons):
              1          2          3          4          5          6
     1  O    8.565330  -0.073836  -0.000088   0.001755  -0.000368  -0.018458
     2  O   -0.073836   8.565944  -0.000081   0.001741  -0.000292  -0.018483
     3  O   -0.000088  -0.000081   8.869423  -0.069352  -0.159636   0.006771
     4  O    0.001755   0.001741  -0.069352   8.935989  -0.169460  -0.044344
     5  P   -0.000368  -0.000292  -0.159636  -0.169460  14.753923  -0.091181
     6  Ca  -0.018458  -0.018483   0.006771  -0.044344  -0.091181  19.221296
     7  Ca   0.059725   0.059927  -0.008924  -0.026258   0.049476   0.297098
     8  Ca   0.107369   0.107218   0.073916  -0.002844  -0.060400   0.061023
              7          8
     1  O    0.059725   0.107369
     2  O    0.059927   0.107218
     3  O   -0.008924   0.073916
     4  O   -0.026258  -0.002844
     5  P    0.049476  -0.060400
     6  Ca   0.297098   0.061023
     7  Ca  18.649187   0.006817
     8  Ca   0.006817  18.261243
 Mulliken atomic charges:
              1
     1  O   -0.641428
     2  O   -0.642138
     3  O   -0.712030
     4  O   -0.627227
     5  P    0.677938
     6  Ca   0.586276
     7  Ca   0.912951
     8  Ca   1.445658
 Sum of Mulliken charges=   1.00000
 Atomic charges with hydrogens summed into heavy atoms:
              1
     1  O   -0.641428
     2  O   -0.642138
     3  O   -0.712030
     4  O   -0.627227
     5  P    0.677938
     6  Ca   0.586276
     7  Ca   0.912951
     8  Ca   1.445658
 Sum of Mulliken charges=   1.00000
 Electronic spatial extent (au):  <R**2>=  2720.5807
 Charge=     1.0000 electrons
 Dipole moment (field-independent basis, Debye):
    X=     1.8180    Y=     0.6442    Z=     0.0067  Tot=     1.9288
 Quadrupole moment (field-independent basis, Debye-Ang):
   XX=   -62.3732   YY=   -34.5735   ZZ=   -80.2284
   XY=     0.0003   XZ=    -0.0190   YZ=    -0.0181
 Traceless Quadrupole moment (field-independent basis, Debye-Ang):
   XX=    -3.3148   YY=    24.4848   ZZ=   -21.1700
   XY=     0.0003   XZ=    -0.0190   YZ=    -0.0181
 Octapole moment (field-independent basis, Debye-Ang**2):
  XXX=    68.5367  YYY=   -89.7900  ZZZ=     0.0175  XYY=    -7.0415
  XXY=    56.0533  XXZ=    -0.0402  XZZ=    -7.8858  YZZ=   -16.9741
  YYZ=     0.1141  XYZ=    -0.0546
 Hexadecapole moment (field-independent basis, Debye-Ang**3):
 XXXX= -1661.9155 YYYY= -1196.9174 ZZZZ=  -176.7283 XXXY=   145.9565
 XXXZ=    -0.2587 YYYX=  -224.6358 YYYZ=    -0.0608 ZZZX=    -0.0522
 ZZZY=    -0.0384 XXYY=  -530.4976 XXZZ=  -344.5789 YYZZ=  -282.9513
 XXYZ=    -0.1046 YYXZ=    -0.0517 ZZXY=    -3.2786
 N-N= 7.747706246153D+02 E-N=-7.871334431135D+03  KE= 2.667647818655D+03
 Merz-Kollman atomic radii used.
 Read replacement radii for each type of atom:
 Rad(20) =   1.188000000000D+00
 Atom Element Radius
    1     8    1.40
    2     8    1.40
    3     8    1.40
    4     8    1.40
    5    15    1.80
    6    20    1.19
    7    20    1.19
    8    20    1.19

 **********************************************************************

            Electrostatic Properties Using The SCF Density

 **********************************************************************

       Atomic Center    1 is at   2.047700 -0.885460  0.785539
       Atomic Center    2 is at   2.048110 -0.886900 -0.784881
       Atomic Center    3 is at  -1.736641 -1.709357 -0.000381
       Atomic Center    4 is at  -2.259509  0.777414  0.000289
       Atomic Center    5 is at  -2.855610 -0.643055 -0.001681
       Atomic Center    6 is at  -0.890027  2.626473  0.001179
       Atomic Center    7 is at   2.525302  1.177019 -0.001401
       Atomic Center    8 is at   0.466568 -2.239479  0.001259
     864 points will be used for fitting atomic charges
 Fitting point charges to eletrostatic potential
 Charges from ESP fit, RMS=   0.02658 RRMS=   0.17735:
 Charge=   1.00000 Dipole=     2.2768     3.1436     0.0028 Tot=     3.8815
              1
     1  O   -0.665895
     2  O   -0.665948
     3  O   -0.712645
     4  O   -0.248778
     5  P    0.365755
     6  Ca   0.484446
     7  Ca   0.843987
     8  Ca   1.599077
 -----------------------------------------------------------------

              Electrostatic Properties (Atomic Units)

 -----------------------------------------------------------------
    Center     Electric         -------- Electric Field --------
               Potential          X             Y             Z
 -----------------------------------------------------------------
    1 Atom    -22.232106
    2 Atom    -22.232995
    3 Atom    -22.189638
    4 Atom    -22.193320
    5 Atom    -53.922391
    6 Atom    -80.029466
    7 Atom    -80.047808
    8 Atom    -80.031365
 -----------------------------------------------------------------
 1\1\GINC-N034\SP\RB3LYP\6-31+G(d,p)\Ca3O4P1(1+)\TIMN\12-Jun-2015\0\\# 
 b3lyp/6-31+G(d,p) int=ultrafine pop=(ReadRadii,MK)\\Ca3PO4_121.mol2c_p
 lusQ.z51123.zip.xyz\\1,1\O,0,2.0477,-0.88546,0.78554\O,0,2.04811,-0.88
 69,-0.78488\O,0,-1.73664,-1.70936,-0.00038\O,0,-2.25951,0.77741,0.0002
 9\P,0,-2.85561,-0.64306,-0.00168\Ca,0,-0.89003,2.62647,0.00118\Ca,0,2.
 5253,1.17702,-0.0014\Ca,0,0.46657,-2.23948,0.00126\\Version=EM64T-G03R
 evE.01\State=1-A\HF=-2674.9006373\RMSD=2.228e-05\Thermal=0.\Dipole=0.7
 152563,0.2534465,0.0026465\PG=C01 [X(Ca3O4P1)]\\@


 A MAN SHOULD NEVER BE ASHAMED TO OWN HE HAS BEEN IN THE WRONG
 WHICH IS BUT SAYING IN OTHER WORDS,
 THAT HE IS WISER TODAY THAN HE WAS YESTERDAY.

                          -- JONATHAN SWIFT
 Job cpu time:  0 days  0 hours  1 minutes 45.5 seconds.
 File lengths (MBytes):  RWF=     32 Int=      0 D2E=      0 Chk=     11 Scr=      1
 Normal termination of Gaussian 03 at Fri Jun 12 17:36:31 2015.
