 Entering Gaussian System, Link 0=/home/timn/tmp/g03.e01/g03
 Input=Ca3PO4_181.mol2c_plusQ.z51189.zip.xyz.gjf
 Output=Ca3PO4_181.mol2c_plusQ.z51189.zip.xyz.out
 Initial command:
 /home/timn/tmp/g03.e01/l1.exe /home/timn/tmp/g03.e01/Gau-18027.inp -scrdir=/home/timn/tmp/g03.e01/
 Default is to use a total of   2 processors:
                                2 via shared-memory
                                1 via Linda
 Entering Link 1 = /home/timn/tmp/g03.e01/l1.exe PID=     18028.
  
 Copyright (c) 1988,1990,1992,1993,1995,1998,2003,2004,2007, Gaussian, Inc.
                  All Rights Reserved.
  
 This is the Gaussian(R) 03 program.  It is based on the
 the Gaussian(R) 98 system (copyright 1998, Gaussian, Inc.),
 the Gaussian(R) 94 system (copyright 1995, Gaussian, Inc.),
 the Gaussian 92(TM) system (copyright 1992, Gaussian, Inc.),
 the Gaussian 90(TM) system (copyright 1990, Gaussian, Inc.),
 the Gaussian 88(TM) system (copyright 1988, Gaussian, Inc.),
 the Gaussian 86(TM) system (copyright 1986, Carnegie Mellon
 University), and the Gaussian 82(TM) system (copyright 1983,
 Carnegie Mellon University). Gaussian is a federally registered
 trademark of Gaussian, Inc.
  
 This software contains proprietary and confidential information,
 including trade secrets, belonging to Gaussian, Inc.
  
 This software is provided under written license and may be
 used, copied, transmitted, or stored only in accord with that
 written license.
  
 The following legend is applicable only to US Government
 contracts under FAR:
  
                    RESTRICTED RIGHTS LEGEND
  
 Use, reproduction and disclosure by the US Government is
 subject to restrictions as set forth in subparagraphs (a)
 and (c) of the Commercial Computer Software - Restricted
 Rights clause in FAR 52.227-19.
  
 Gaussian, Inc.
 340 Quinnipiac St., Bldg. 40, Wallingford CT 06492
  
  
 ---------------------------------------------------------------
 Warning -- This program may not be used in any manner that
 competes with the business of Gaussian, Inc. or will provide
 assistance to any competitor of Gaussian, Inc.  The licensee
 of this program is prohibited from giving any competitor of
 Gaussian, Inc. access to this program.  By using this program,
 the user acknowledges that Gaussian, Inc. is engaged in the
 business of creating and licensing software in the field of
 computational chemistry and represents and warrants to the
 licensee that it is not a competitor of Gaussian, Inc. and that
 it will not use this program in any manner prohibited above.
 ---------------------------------------------------------------
  

 Cite this work as:
 Gaussian 03, Revision E.01,
 M. J. Frisch, G. W. Trucks, H. B. Schlegel, G. E. Scuseria, 
 M. A. Robb, J. R. Cheeseman, J. A. Montgomery, Jr., T. Vreven, 
 K. N. Kudin, J. C. Burant, J. M. Millam, S. S. Iyengar, J. Tomasi, 
 V. Barone, B. Mennucci, M. Cossi, G. Scalmani, N. Rega, 
 G. A. Petersson, H. Nakatsuji, M. Hada, M. Ehara, K. Toyota, 
 R. Fukuda, J. Hasegawa, M. Ishida, T. Nakajima, Y. Honda, O. Kitao, 
 H. Nakai, M. Klene, X. Li, J. E. Knox, H. P. Hratchian, J. B. Cross, 
 V. Bakken, C. Adamo, J. Jaramillo, R. Gomperts, R. E. Stratmann, 
 O. Yazyev, A. J. Austin, R. Cammi, C. Pomelli, J. W. Ochterski, 
 P. Y. Ayala, K. Morokuma, G. A. Voth, P. Salvador, J. J. Dannenberg, 
 V. G. Zakrzewski, S. Dapprich, A. D. Daniels, M. C. Strain, 
 O. Farkas, D. K. Malick, A. D. Rabuck, K. Raghavachari, 
 J. B. Foresman, J. V. Ortiz, Q. Cui, A. G. Baboul, S. Clifford, 
 J. Cioslowski, B. B. Stefanov, G. Liu, A. Liashenko, P. Piskorz, 
 I. Komaromi, R. L. Martin, D. J. Fox, T. Keith, M. A. Al-Laham, 
 C. Y. Peng, A. Nanayakkara, M. Challacombe, P. M. W. Gill, 
 B. Johnson, W. Chen, M. W. Wong, C. Gonzalez, and J. A. Pople, 
 Gaussian, Inc., Wallingford CT, 2004.
 
 ******************************************
 Gaussian 03:  EM64T-G03RevE.01 11-Sep-2007
                12-Jun-2015 
 ******************************************
 %nproc=2
 Will use up to    2 processors via shared memory.
 Default route:  MP2=Direct MaxDisk=2000MB
 ----------------------------------------------------
 # b3lyp/6-31+G(d,p) int=ultrafine pop=(ReadRadii,MK)
 ----------------------------------------------------

 Warning!  SCF SP cutoffs with diffuse functions may be unreliable.
 Consider SCF=Tight

 1/38=1/1;
 2/17=6,18=5,40=1/2;
 3/5=1,6=6,7=111,11=2,16=1,25=1,30=1,74=-5,75=5/1,2,3;
 4//1;
 5/5=2,32=1,38=5/2;
 6/7=2,8=2,9=2,10=2,15=8,20=101,28=1/1,2;
 99/5=1,9=1/99;
 -------------------------------------
 Ca3PO4_181.mol2c_plusQ.z51189.zip.xyz
 -------------------------------------
 Symbolic Z-matrix:
 Charge =  1 Multiplicity = 1
 O                    -1.66863  -1.50398  -0.00009 
 O                    -2.94607   0.67017   0.00107 
 O                     0.83011   0.94381  -0.00019 
 O                     2.83992  -1.41584   0.00034 
 P                    -3.07339  -0.8774   -0.00051 
 Ca                    0.67211  -1.45821   0.00014 
 Ca                   -1.0743    1.94784  -0.00006 
 Ca                    3.0851    0.69076  -0.00015 
 
                          Input orientation:                          
 ---------------------------------------------------------------------
 Center     Atomic     Atomic              Coordinates (Angstroms)
 Number     Number      Type              X           Y           Z
 ---------------------------------------------------------------------
    1          8             0       -1.668630   -1.503980   -0.000090
    2          8             0       -2.946070    0.670170    0.001070
    3          8             0        0.830110    0.943810   -0.000190
    4          8             0        2.839920   -1.415840    0.000340
    5         15             0       -3.073390   -0.877400   -0.000510
    6         20             0        0.672110   -1.458210    0.000140
    7         20             0       -1.074300    1.947840   -0.000060
    8         20             0        3.085100    0.690760   -0.000150
 ---------------------------------------------------------------------
                    Distance matrix (angstroms):
                    1          2          3          4          5
     1  O    0.000000
     2  O    2.521663   0.000000
     3  O    3.497910   3.786082   0.000000
     4  O    4.509411   6.150538   3.099562   0.000000
     5  P    1.538166   1.552799   4.307449   5.937773   0.000000
     6  Ca   2.341187   4.197765   2.407211   2.168224   3.790265
     7  Ca   3.502612   2.266267   2.152871   5.160955   3.460974
     8  Ca   5.235918   6.031205   2.269144   2.120820   6.355008
                    6          7          8
     6  Ca   0.000000
     7  Ca   3.827679   0.000000
     8  Ca   3.231191   4.345211   0.000000
 Stoichiometry    Ca3O4P(1+)
 Framework group  C1[X(Ca3O4P)]
 Deg. of freedom    18
 Full point group                 C1
 Largest Abelian subgroup         C1      NOp   1
 Largest concise Abelian subgroup C1      NOp   1
                         Standard orientation:                         
 ---------------------------------------------------------------------
 Center     Atomic     Atomic              Coordinates (Angstroms)
 Number     Number      Type              X           Y           Z
 ---------------------------------------------------------------------
    1          8             0       -1.668629   -1.503982   -0.000090
    2          8             0       -2.946070    0.670168    0.001070
    3          8             0        0.830110    0.943810   -0.000190
    4          8             0        2.839921   -1.415839    0.000340
    5         15             0       -3.073389   -0.877402   -0.000510
    6         20             0        0.672111   -1.458210    0.000140
    7         20             0       -1.074301    1.947839   -0.000060
    8         20             0        3.085100    0.690761   -0.000150
 ---------------------------------------------------------------------
 Rotational constants (GHZ):      1.3689583      0.4765701      0.3535056
 Standard basis: 6-31+G(d,p) (6D, 7F)
 There are   180 symmetry adapted basis functions of A   symmetry.
 Integral buffers will be    131072 words long.
 Raffenetti 2 integral format.
 Two-electron integral symmetry is turned on.
   180 basis functions,   424 primitive gaussians,   180 cartesian basis functions
    53 alpha electrons       53 beta electrons
       nuclear repulsion energy       801.1416807434 Hartrees.
 NAtoms=    8 NActive=    8 NUniq=    8 SFac= 7.50D-01 NAtFMM=   80 NAOKFM=F Big=F
 One-electron integrals computed using PRISM.
 NBasis=   180 RedAO= T  NBF=   180
 NBsUse=   180 1.00D-06 NBFU=   180
 Harris functional with IExCor=  402 diagonalized for initial guess.
 ExpMin= 7.10D-03 ExpMax= 3.53D+04 ExpMxC= 5.30D+03 IAcc=3 IRadAn=         5 AccDes= 0.00D+00
 HarFok:  IExCor= 402 AccDes= 0.00D+00 IRadAn=         5 IDoV=1
 ScaDFX=  1.000000  1.000000  1.000000  1.000000
 Initial guess orbital symmetries:
       Occupied  (A) (A) (A) (A) (A) (A) (A) (A) (A) (A) (A) (A)
                 (A) (A) (A) (A) (A) (A) (A) (A) (A) (A) (A) (A)
                 (A) (A) (A) (A) (A) (A) (A) (A) (A) (A) (A) (A)
                 (A) (A) (A) (A) (A) (A) (A) (A) (A) (A) (A) (A)
                 (A) (A) (A) (A) (A)
       Virtual   (A) (A) (A) (A) (A) (A) (A) (A) (A) (A) (A) (A)
                 (A) (A) (A) (A) (A) (A) (A) (A) (A) (A) (A) (A)
                 (A) (A) (A) (A) (A) (A) (A) (A) (A) (A) (A) (A)
                 (A) (A) (A) (A) (A) (A) (A) (A) (A) (A) (A) (A)
                 (A) (A) (A) (A) (A) (A) (A) (A) (A) (A) (A) (A)
                 (A) (A) (A) (A) (A) (A) (A) (A) (A) (A) (A) (A)
                 (A) (A) (A) (A) (A) (A) (A) (A) (A) (A) (A) (A)
                 (A) (A) (A) (A) (A) (A) (A) (A) (A) (A) (A) (A)
                 (A) (A) (A) (A) (A) (A) (A) (A) (A) (A) (A) (A)
                 (A) (A) (A) (A) (A) (A) (A) (A) (A) (A) (A) (A)
                 (A) (A) (A) (A) (A) (A) (A)
 The electronic state of the initial guess is 1-A.
 Requested convergence on RMS density matrix=1.00D-04 within 128 cycles.
 Requested convergence on MAX density matrix=1.00D-02.
 Requested convergence on             energy=1.00D-02.
 No special actions if energy rises.
 EnCoef did     3 forward-backward iterations
 EnCoef did   100 forward-backward iterations
 EnCoef did     4 forward-backward iterations
 EnCoef did     3 forward-backward iterations
 SCF Done:  E(RB+HF-LYP) =  -2675.00579396     A.U. after   10 cycles
             Convg  =    0.8295D-04             -V/T =  2.0028
             S**2   =   0.0000

 **********************************************************************

            Population analysis using the SCF density.

 **********************************************************************

 Orbital symmetries:
       Occupied  (A) (A) (A) (A) (A) (A) (A) (A) (A) (A) (A) (A)
                 (A) (A) (A) (A) (A) (A) (A) (A) (A) (A) (A) (A)
                 (A) (A) (A) (A) (A) (A) (A) (A) (A) (A) (A) (A)
                 (A) (A) (A) (A) (A) (A) (A) (A) (A) (A) (A) (A)
                 (A) (A) (A) (A) (A)
       Virtual   (A) (A) (A) (A) (A) (A) (A) (A) (A) (A) (A) (A)
                 (A) (A) (A) (A) (A) (A) (A) (A) (A) (A) (A) (A)
                 (A) (A) (A) (A) (A) (A) (A) (A) (A) (A) (A) (A)
                 (A) (A) (A) (A) (A) (A) (A) (A) (A) (A) (A) (A)
                 (A) (A) (A) (A) (A) (A) (A) (A) (A) (A) (A) (A)
                 (A) (A) (A) (A) (A) (A) (A) (A) (A) (A) (A) (A)
                 (A) (A) (A) (A) (A) (A) (A) (A) (A) (A) (A) (A)
                 (A) (A) (A) (A) (A) (A) (A) (A) (A) (A) (A) (A)
                 (A) (A) (A) (A) (A) (A) (A) (A) (A) (A) (A) (A)
                 (A) (A) (A) (A) (A) (A) (A) (A) (A) (A) (A) (A)
                 (A) (A) (A) (A) (A) (A) (A)
 The electronic state is 1-A.
 Alpha  occ. eigenvalues -- -145.53282-145.47084-145.44471 -77.29398 -19.27567
 Alpha  occ. eigenvalues --  -19.27185 -19.17725 -19.10354 -15.60175 -15.53983
 Alpha  occ. eigenvalues --  -15.51430 -12.73431 -12.73378 -12.73218 -12.67223
 Alpha  occ. eigenvalues --  -12.67141 -12.67062 -12.64706 -12.64615 -12.64461
 Alpha  occ. eigenvalues --   -6.74947  -4.91387  -4.91163  -4.90726  -1.97373
 Alpha  occ. eigenvalues --   -1.91278  -1.88882  -1.25227  -1.25073  -1.24245
 Alpha  occ. eigenvalues --   -1.19145  -1.18817  -1.18236  -1.16987  -1.16377
 Alpha  occ. eigenvalues --   -1.16265  -1.13232  -1.07836  -0.92339  -0.84315
 Alpha  occ. eigenvalues --   -0.66972  -0.56436  -0.52387  -0.52175  -0.45132
 Alpha  occ. eigenvalues --   -0.43236  -0.40548  -0.38462  -0.37487  -0.36326
 Alpha  occ. eigenvalues --   -0.29847  -0.28437  -0.28141
 Alpha virt. eigenvalues --   -0.21387  -0.19371  -0.18297  -0.14047  -0.13465
 Alpha virt. eigenvalues --   -0.11748  -0.10628  -0.10451  -0.08680  -0.08516
 Alpha virt. eigenvalues --   -0.07774  -0.07168  -0.06435  -0.06126  -0.05565
 Alpha virt. eigenvalues --   -0.05538  -0.04823  -0.04711  -0.04333  -0.03840
 Alpha virt. eigenvalues --   -0.03762  -0.03761  -0.03490  -0.03199  -0.02768
 Alpha virt. eigenvalues --   -0.02683  -0.02490  -0.01507   0.00318   0.00761
 Alpha virt. eigenvalues --    0.02062   0.03223   0.03830   0.04050   0.04455
 Alpha virt. eigenvalues --    0.04567   0.05398   0.06089   0.06142   0.06377
 Alpha virt. eigenvalues --    0.06541   0.07575   0.07678   0.08101   0.08700
 Alpha virt. eigenvalues --    0.10060   0.10946   0.11856   0.11995   0.13504
 Alpha virt. eigenvalues --    0.14471   0.15684   0.15955   0.17395   0.18053
 Alpha virt. eigenvalues --    0.18308   0.20069   0.20946   0.21866   0.24092
 Alpha virt. eigenvalues --    0.25435   0.26593   0.27025   0.29668   0.30441
 Alpha virt. eigenvalues --    0.31665   0.32413   0.33018   0.35988   0.37354
 Alpha virt. eigenvalues --    0.39267   0.40365   0.43798   0.46195   0.48650
 Alpha virt. eigenvalues --    0.52110   0.56516   0.56666   0.58496   0.58678
 Alpha virt. eigenvalues --    0.67513   0.79934   0.90187   0.95064   1.01993
 Alpha virt. eigenvalues --    1.06691   1.07614   1.08713   1.10057   1.11358
 Alpha virt. eigenvalues --    1.17119   1.18607   1.19588   1.23472   1.26422
 Alpha virt. eigenvalues --    1.28688   1.32016   1.33518   1.39655   1.43373
 Alpha virt. eigenvalues --    1.47719   1.61510   1.66154   1.67047   1.70965
 Alpha virt. eigenvalues --    1.74764   1.77145   1.79304   1.82771   1.83765
 Alpha virt. eigenvalues --    1.85254   1.86225   1.87616   1.87714   1.89271
 Alpha virt. eigenvalues --    1.94196   1.99871   2.01581   2.10610   2.22806
 Alpha virt. eigenvalues --    2.53997   2.69089   3.39981   3.84717   3.91770
 Alpha virt. eigenvalues --    3.92603   4.07873
          Condensed to atoms (all electrons):
              1          2          3          4          5          6
     1  O    8.836764  -0.080397  -0.009284  -0.001477  -0.109347   0.034741
     2  O   -0.080397   8.782220   0.003006   0.000010  -0.072382  -0.001640
     3  O   -0.009284   0.003006   9.067172  -0.023418  -0.007081   0.040425
     4  O   -0.001477   0.000010  -0.023418   8.690843  -0.000360   0.222599
     5  P   -0.109347  -0.072382  -0.007081  -0.000360  14.559922   0.007272
     6  Ca   0.034741  -0.001640   0.040425   0.222599   0.007272  18.384167
     7  Ca   0.003213   0.086016   0.189567  -0.001252  -0.035397  -0.005994
     8  Ca   0.009043   0.003818   0.085528   0.232593  -0.013909  -0.028934
              7          8
     1  O    0.003213   0.009043
     2  O    0.086016   0.003818
     3  O    0.189567   0.085528
     4  O   -0.001252   0.232593
     5  P   -0.035397  -0.013909
     6  Ca  -0.005994  -0.028934
     7  Ca  18.245423  -0.006161
     8  Ca  -0.006161  18.391896
 Mulliken atomic charges:
              1
     1  O   -0.683256
     2  O   -0.720650
     3  O   -1.345915
     4  O   -1.119538
     5  P    0.671283
     6  Ca   1.347364
     7  Ca   1.524584
     8  Ca   1.326127
 Sum of Mulliken charges=   1.00000
 Atomic charges with hydrogens summed into heavy atoms:
              1
     1  O   -0.683256
     2  O   -0.720650
     3  O   -1.345915
     4  O   -1.119538
     5  P    0.671283
     6  Ca   1.347364
     7  Ca   1.524584
     8  Ca   1.326127
 Sum of Mulliken charges=   1.00000
 Electronic spatial extent (au):  <R**2>=  2666.4884
 Charge=     1.0000 electrons
 Dipole moment (field-independent basis, Debye):
    X=     0.3918    Y=    11.4569    Z=    -0.0041  Tot=    11.4636
 Quadrupole moment (field-independent basis, Debye-Ang):
   XX=   -59.0033   YY=   -46.9038   ZZ=   -69.1151
   XY=    17.5044   XZ=     0.0010   YZ=    -0.0036
 Traceless Quadrupole moment (field-independent basis, Debye-Ang):
   XX=    -0.6626   YY=    11.4370   ZZ=   -10.7744
   XY=    17.5044   XZ=     0.0010   YZ=    -0.0036
 Octapole moment (field-independent basis, Debye-Ang**2):
  XXX=   102.6549  YYY=    80.7489  ZZZ=    -0.0012  XYY=   -36.0556
  XXY=   115.6163  XXZ=    -0.0431  XZZ=     0.3018  YZZ=     8.1750
  YYZ=     0.0002  XYZ=     0.0225
 Hexadecapole moment (field-independent basis, Debye-Ang**3):
 XXXX= -2100.1836 YYYY=  -625.0027 ZZZZ=   -84.6688 XXXY=   423.6854
 XXXZ=    -0.0659 YYYX=   -48.8503 YYYZ=    -0.0092 ZZZX=    -0.0144
 ZZZY=    -0.0056 XXYY=  -564.6122 XXZZ=  -384.8604 YYZZ=  -135.6664
 XXYZ=    -0.0381 YYXZ=    -0.0142 ZZXY=     5.3944
 N-N= 8.011416807434D+02 E-N=-7.926785010581D+03  KE= 2.667645199009D+03
 Merz-Kollman atomic radii used.
 Read replacement radii for each type of atom:
 Rad(20) =   1.188000000000D+00
 Atom Element Radius
    1     8    1.40
    2     8    1.40
    3     8    1.40
    4     8    1.40
    5    15    1.80
    6    20    1.19
    7    20    1.19
    8    20    1.19

 **********************************************************************

            Electrostatic Properties Using The SCF Density

 **********************************************************************

       Atomic Center    1 is at  -1.668629 -1.503982 -0.000090
       Atomic Center    2 is at  -2.946070  0.670168  0.001070
       Atomic Center    3 is at   0.830110  0.943810 -0.000190
       Atomic Center    4 is at   2.839921 -1.415839  0.000340
       Atomic Center    5 is at  -3.073389 -0.877402 -0.000510
       Atomic Center    6 is at   0.672111 -1.458210  0.000140
       Atomic Center    7 is at  -1.074301  1.947839 -0.000060
       Atomic Center    8 is at   3.085100  0.690761 -0.000150
     826 points will be used for fitting atomic charges
 Fitting point charges to eletrostatic potential
 Charges from ESP fit, RMS=   0.00609 RRMS=   0.04020:
 Charge=   1.00000 Dipole=     0.7536    11.7954    -0.0060 Tot=    11.8194
              1
     1  O   -0.652801
     2  O   -0.699259
     3  O   -1.690584
     4  O   -1.466476
     5  P    0.536157
     6  Ca   1.689644
     7  Ca   1.692930
     8  Ca   1.590388
 -----------------------------------------------------------------

              Electrostatic Properties (Atomic Units)

 -----------------------------------------------------------------
    Center     Electric         -------- Electric Field --------
               Potential          X             Y             Z
 -----------------------------------------------------------------
    1 Atom    -22.191221
    2 Atom    -22.188877
    3 Atom    -22.280808
    4 Atom    -22.359715
    5 Atom    -53.918914
    6 Atom    -80.096915
    7 Atom    -80.008533
    8 Atom    -80.072198
 -----------------------------------------------------------------
 1\1\GINC-N027\SP\RB3LYP\6-31+G(d,p)\Ca3O4P1(1+)\TIMN\12-Jun-2015\0\\# 
 b3lyp/6-31+G(d,p) int=ultrafine pop=(ReadRadii,MK)\\Ca3PO4_181.mol2c_p
 lusQ.z51189.zip.xyz\\1,1\O,0,-1.66863,-1.50398,-0.00009\O,0,-2.94607,0
 .67017,0.00107\O,0,0.83011,0.94381,-0.00019\O,0,2.83992,-1.41584,0.000
 34\P,0,-3.07339,-0.8774,-0.00051\Ca,0,0.67211,-1.45821,0.00014\Ca,0,-1
 .0743,1.94784,-0.00006\Ca,0,3.0851,0.69076,-0.00015\\Version=EM64T-G03
 RevE.01\State=1-A\HF=-2675.005794\RMSD=8.295e-05\Thermal=0.\Dipole=0.1
 541308,4.5075063,-0.001612\PG=C01 [X(Ca3O4P1)]\\@


 WHAT THE SLIME CONTAINS, THE GLOWING REVEALS
 BY THE FLAME'S BRIGHT HUE WHEN YOU IGNITE IT.
   --  LEONARD THURNEYSSER, 1531-1596
 DESCRIBING HIS FLAME PHOTOLYSIS ANALYTIC METHOD
 Job cpu time:  0 days  0 hours  1 minutes 45.8 seconds.
 File lengths (MBytes):  RWF=     32 Int=      0 D2E=      0 Chk=     11 Scr=      1
 Normal termination of Gaussian 03 at Fri Jun 12 17:40:18 2015.
