 Entering Gaussian System, Link 0=/home/timn/tmp/g03.e01/g03
 Input=Ca3PO4_22.mol2_plusQ.z51433.zip.xyz.gjf
 Output=Ca3PO4_22.mol2_plusQ.z51433.zip.xyz.out
 Initial command:
 /home/timn/tmp/g03.e01/l1.exe /home/timn/tmp/g03.e01/Gau-17236.inp -scrdir=/home/timn/tmp/g03.e01/
 Default is to use a total of   2 processors:
                                2 via shared-memory
                                1 via Linda
 Entering Link 1 = /home/timn/tmp/g03.e01/l1.exe PID=     17237.
  
 Copyright (c) 1988,1990,1992,1993,1995,1998,2003,2004,2007, Gaussian, Inc.
                  All Rights Reserved.
  
 This is the Gaussian(R) 03 program.  It is based on the
 the Gaussian(R) 98 system (copyright 1998, Gaussian, Inc.),
 the Gaussian(R) 94 system (copyright 1995, Gaussian, Inc.),
 the Gaussian 92(TM) system (copyright 1992, Gaussian, Inc.),
 the Gaussian 90(TM) system (copyright 1990, Gaussian, Inc.),
 the Gaussian 88(TM) system (copyright 1988, Gaussian, Inc.),
 the Gaussian 86(TM) system (copyright 1986, Carnegie Mellon
 University), and the Gaussian 82(TM) system (copyright 1983,
 Carnegie Mellon University). Gaussian is a federally registered
 trademark of Gaussian, Inc.
  
 This software contains proprietary and confidential information,
 including trade secrets, belonging to Gaussian, Inc.
  
 This software is provided under written license and may be
 used, copied, transmitted, or stored only in accord with that
 written license.
  
 The following legend is applicable only to US Government
 contracts under FAR:
  
                    RESTRICTED RIGHTS LEGEND
  
 Use, reproduction and disclosure by the US Government is
 subject to restrictions as set forth in subparagraphs (a)
 and (c) of the Commercial Computer Software - Restricted
 Rights clause in FAR 52.227-19.
  
 Gaussian, Inc.
 340 Quinnipiac St., Bldg. 40, Wallingford CT 06492
  
  
 ---------------------------------------------------------------
 Warning -- This program may not be used in any manner that
 competes with the business of Gaussian, Inc. or will provide
 assistance to any competitor of Gaussian, Inc.  The licensee
 of this program is prohibited from giving any competitor of
 Gaussian, Inc. access to this program.  By using this program,
 the user acknowledges that Gaussian, Inc. is engaged in the
 business of creating and licensing software in the field of
 computational chemistry and represents and warrants to the
 licensee that it is not a competitor of Gaussian, Inc. and that
 it will not use this program in any manner prohibited above.
 ---------------------------------------------------------------
  

 Cite this work as:
 Gaussian 03, Revision E.01,
 M. J. Frisch, G. W. Trucks, H. B. Schlegel, G. E. Scuseria, 
 M. A. Robb, J. R. Cheeseman, J. A. Montgomery, Jr., T. Vreven, 
 K. N. Kudin, J. C. Burant, J. M. Millam, S. S. Iyengar, J. Tomasi, 
 V. Barone, B. Mennucci, M. Cossi, G. Scalmani, N. Rega, 
 G. A. Petersson, H. Nakatsuji, M. Hada, M. Ehara, K. Toyota, 
 R. Fukuda, J. Hasegawa, M. Ishida, T. Nakajima, Y. Honda, O. Kitao, 
 H. Nakai, M. Klene, X. Li, J. E. Knox, H. P. Hratchian, J. B. Cross, 
 V. Bakken, C. Adamo, J. Jaramillo, R. Gomperts, R. E. Stratmann, 
 O. Yazyev, A. J. Austin, R. Cammi, C. Pomelli, J. W. Ochterski, 
 P. Y. Ayala, K. Morokuma, G. A. Voth, P. Salvador, J. J. Dannenberg, 
 V. G. Zakrzewski, S. Dapprich, A. D. Daniels, M. C. Strain, 
 O. Farkas, D. K. Malick, A. D. Rabuck, K. Raghavachari, 
 J. B. Foresman, J. V. Ortiz, Q. Cui, A. G. Baboul, S. Clifford, 
 J. Cioslowski, B. B. Stefanov, G. Liu, A. Liashenko, P. Piskorz, 
 I. Komaromi, R. L. Martin, D. J. Fox, T. Keith, M. A. Al-Laham, 
 C. Y. Peng, A. Nanayakkara, M. Challacombe, P. M. W. Gill, 
 B. Johnson, W. Chen, M. W. Wong, C. Gonzalez, and J. A. Pople, 
 Gaussian, Inc., Wallingford CT, 2004.
 
 ******************************************
 Gaussian 03:  EM64T-G03RevE.01 11-Sep-2007
                12-Jun-2015 
 ******************************************
 %nproc=2
 Will use up to    2 processors via shared memory.
 Default route:  MP2=Direct MaxDisk=2000MB
 ----------------------------------------------------
 # b3lyp/6-31+G(d,p) int=ultrafine pop=(ReadRadii,MK)
 ----------------------------------------------------

 Warning!  SCF SP cutoffs with diffuse functions may be unreliable.
 Consider SCF=Tight

 1/38=1/1;
 2/17=6,18=5,40=1/2;
 3/5=1,6=6,7=111,11=2,16=1,25=1,30=1,74=-5,75=5/1,2,3;
 4//1;
 5/5=2,32=1,38=5/2;
 6/7=2,8=2,9=2,10=2,15=8,20=101,28=1/1,2;
 99/5=1,9=1/99;
 -----------------------------------
 Ca3PO4_22.mol2_plusQ.z51433.zip.xyz
 -----------------------------------
 Symbolic Z-matrix:
 Charge =  1 Multiplicity = 1
 O                    -1.20734  -1.3047   -0.45519 
 O                     0.74942   0.00011   1.32245 
 O                     2.16722   0.00032   0.76168 
 O                    -1.20773   1.3044   -0.45523 
 P                    -1.09249  -0.00015  -1.56095 
 Ca                    1.05905   1.69143  -0.33679 
 Ca                    1.05955  -1.6912   -0.33675 
 Ca                   -1.49986  -0.00016   1.37478 
 
                          Input orientation:                          
 ---------------------------------------------------------------------
 Center     Atomic     Atomic              Coordinates (Angstroms)
 Number     Number      Type              X           Y           Z
 ---------------------------------------------------------------------
    1          8             0       -1.207340   -1.304700   -0.455190
    2          8             0        0.749420    0.000110    1.322450
    3          8             0        2.167220    0.000320    0.761680
    4          8             0       -1.207730    1.304400   -0.455230
    5         15             0       -1.092490   -0.000150   -1.560950
    6         20             0        1.059050    1.691430   -0.336790
    7         20             0        1.059550   -1.691200   -0.336750
    8         20             0       -1.499860   -0.000160    1.374780
 ---------------------------------------------------------------------
                    Distance matrix (angstroms):
                    1          2          3          4          5
     1  O    0.000000
     2  O    2.948125   0.000000
     3  O    3.817264   1.524670   0.000000
     4  O    2.609100   2.948178   3.817300   0.000000
     5  P    1.713986   3.421495   4.002539   1.713986   0.000000
     6  Ca   3.758635   2.389458   2.300985   2.302631   2.998189
     7  Ca   2.302651   2.389488   2.301026   3.758752   2.998265
     8  Ca   2.266315   2.249889   3.717979   2.266308   2.963859
                    6          7          8
     6  Ca   0.000000
     7  Ca   3.382630   0.000000
     8  Ca   3.512687   3.512767   0.000000
 Stoichiometry    Ca3O4P(1+)
 Framework group  C1[X(Ca3O4P)]
 Deg. of freedom    18
 Full point group                 C1
 Largest Abelian subgroup         C1      NOp   1
 Largest concise Abelian subgroup C1      NOp   1
                         Standard orientation:                         
 ---------------------------------------------------------------------
 Center     Atomic     Atomic              Coordinates (Angstroms)
 Number     Number      Type              X           Y           Z
 ---------------------------------------------------------------------
    1          8             0       -1.207351   -1.304692   -0.455192
    2          8             0        0.749420    0.000102    1.322448
    3          8             0        2.167220    0.000301    0.761678
    4          8             0       -1.207720    1.304408   -0.455232
    5         15             0       -1.092490   -0.000143   -1.560952
    6         20             0        1.059063    1.691420   -0.336792
    7         20             0        1.059536   -1.691210   -0.336752
    8         20             0       -1.499860   -0.000150    1.374778
 ---------------------------------------------------------------------
 Rotational constants (GHZ):      1.0377709      0.9168103      0.8016871
 Standard basis: 6-31+G(d,p) (6D, 7F)
 There are   180 symmetry adapted basis functions of A   symmetry.
 Integral buffers will be    131072 words long.
 Raffenetti 2 integral format.
 Two-electron integral symmetry is turned on.
   180 basis functions,   424 primitive gaussians,   180 cartesian basis functions
    53 alpha electrons       53 beta electrons
       nuclear repulsion energy       925.1653363664 Hartrees.
 NAtoms=    8 NActive=    8 NUniq=    8 SFac= 7.50D-01 NAtFMM=   80 NAOKFM=F Big=F
 One-electron integrals computed using PRISM.
 NBasis=   180 RedAO= T  NBF=   180
 NBsUse=   180 1.00D-06 NBFU=   180
 Harris functional with IExCor=  402 diagonalized for initial guess.
 ExpMin= 7.10D-03 ExpMax= 3.53D+04 ExpMxC= 5.30D+03 IAcc=3 IRadAn=         5 AccDes= 0.00D+00
 HarFok:  IExCor= 402 AccDes= 0.00D+00 IRadAn=         5 IDoV=1
 ScaDFX=  1.000000  1.000000  1.000000  1.000000
 Initial guess orbital symmetries:
       Occupied  (A) (A) (A) (A) (A) (A) (A) (A) (A) (A) (A) (A)
                 (A) (A) (A) (A) (A) (A) (A) (A) (A) (A) (A) (A)
                 (A) (A) (A) (A) (A) (A) (A) (A) (A) (A) (A) (A)
                 (A) (A) (A) (A) (A) (A) (A) (A) (A) (A) (A) (A)
                 (A) (A) (A) (A) (A)
       Virtual   (A) (A) (A) (A) (A) (A) (A) (A) (A) (A) (A) (A)
                 (A) (A) (A) (A) (A) (A) (A) (A) (A) (A) (A) (A)
                 (A) (A) (A) (A) (A) (A) (A) (A) (A) (A) (A) (A)
                 (A) (A) (A) (A) (A) (A) (A) (A) (A) (A) (A) (A)
                 (A) (A) (A) (A) (A) (A) (A) (A) (A) (A) (A) (A)
                 (A) (A) (A) (A) (A) (A) (A) (A) (A) (A) (A) (A)
                 (A) (A) (A) (A) (A) (A) (A) (A) (A) (A) (A) (A)
                 (A) (A) (A) (A) (A) (A) (A) (A) (A) (A) (A) (A)
                 (A) (A) (A) (A) (A) (A) (A) (A) (A) (A) (A) (A)
                 (A) (A) (A) (A) (A) (A) (A) (A) (A) (A) (A) (A)
                 (A) (A) (A) (A) (A) (A) (A)
 The electronic state of the initial guess is 1-A.
 Requested convergence on RMS density matrix=1.00D-04 within 128 cycles.
 Requested convergence on MAX density matrix=1.00D-02.
 Requested convergence on             energy=1.00D-02.
 No special actions if energy rises.
 SCF Done:  E(RB+HF-LYP) =  -2674.89010757     A.U. after    7 cycles
             Convg  =    0.6200D-04             -V/T =  2.0027
             S**2   =   0.0000

 **********************************************************************

            Population analysis using the SCF density.

 **********************************************************************

 Orbital symmetries:
       Occupied  (A) (A) (A) (A) (A) (A) (A) (A) (A) (A) (A) (A)
                 (A) (A) (A) (A) (A) (A) (A) (A) (A) (A) (A) (A)
                 (A) (A) (A) (A) (A) (A) (A) (A) (A) (A) (A) (A)
                 (A) (A) (A) (A) (A) (A) (A) (A) (A) (A) (A) (A)
                 (A) (A) (A) (A) (A)
       Virtual   (A) (A) (A) (A) (A) (A) (A) (A) (A) (A) (A) (A)
                 (A) (A) (A) (A) (A) (A) (A) (A) (A) (A) (A) (A)
                 (A) (A) (A) (A) (A) (A) (A) (A) (A) (A) (A) (A)
                 (A) (A) (A) (A) (A) (A) (A) (A) (A) (A) (A) (A)
                 (A) (A) (A) (A) (A) (A) (A) (A) (A) (A) (A) (A)
                 (A) (A) (A) (A) (A) (A) (A) (A) (A) (A) (A) (A)
                 (A) (A) (A) (A) (A) (A) (A) (A) (A) (A) (A) (A)
                 (A) (A) (A) (A) (A) (A) (A) (A) (A) (A) (A) (A)
                 (A) (A) (A) (A) (A) (A) (A) (A) (A) (A) (A) (A)
                 (A) (A) (A) (A) (A) (A) (A) (A) (A) (A) (A) (A)
                 (A) (A) (A) (A) (A) (A) (A)
 The electronic state is 1-A.
 Alpha  occ. eigenvalues -- -145.52803-145.50766-145.50764 -77.21499 -19.26309
 Alpha  occ. eigenvalues --  -19.25932 -19.22267 -19.22266 -15.59576 -15.57616
 Alpha  occ. eigenvalues --  -15.57615 -12.72760 -12.72759 -12.72736 -12.70851
 Alpha  occ. eigenvalues --  -12.70850 -12.70800 -12.70798 -12.70719 -12.70718
 Alpha  occ. eigenvalues --   -6.67307  -4.83742  -4.83471  -4.83047  -1.96755
 Alpha  occ. eigenvalues --   -1.94813  -1.94757  -1.24736  -1.24303  -1.24213
 Alpha  occ. eigenvalues --   -1.23220  -1.22469  -1.22316  -1.22189  -1.22124
 Alpha  occ. eigenvalues --   -1.21780  -1.10224  -1.04707  -1.00706  -0.89616
 Alpha  occ. eigenvalues --   -0.63141  -0.51639  -0.49770  -0.48649  -0.48468
 Alpha  occ. eigenvalues --   -0.47617  -0.44982  -0.41625  -0.39266  -0.37730
 Alpha  occ. eigenvalues --   -0.35796  -0.34544  -0.25356
 Alpha virt. eigenvalues --   -0.20580  -0.19190  -0.18824  -0.13461  -0.13068
 Alpha virt. eigenvalues --   -0.11280  -0.11006  -0.10668  -0.09122  -0.08672
 Alpha virt. eigenvalues --   -0.08246  -0.07167  -0.06822  -0.06447  -0.05779
 Alpha virt. eigenvalues --   -0.05351  -0.04890  -0.04819  -0.04651  -0.04333
 Alpha virt. eigenvalues --   -0.04125  -0.04023  -0.03575  -0.03314  -0.03199
 Alpha virt. eigenvalues --   -0.03009  -0.02737  -0.01255   0.01108   0.01404
 Alpha virt. eigenvalues --    0.01979   0.02549   0.03600   0.04245   0.04738
 Alpha virt. eigenvalues --    0.04770   0.05101   0.05300   0.05686   0.06417
 Alpha virt. eigenvalues --    0.06637   0.06719   0.07190   0.07306   0.07652
 Alpha virt. eigenvalues --    0.08592   0.09616   0.10485   0.11216   0.11620
 Alpha virt. eigenvalues --    0.13793   0.14468   0.15816   0.16592   0.17847
 Alpha virt. eigenvalues --    0.20348   0.20376   0.22072   0.23492   0.23764
 Alpha virt. eigenvalues --    0.25244   0.25282   0.26937   0.28518   0.30608
 Alpha virt. eigenvalues --    0.32951   0.33521   0.34298   0.36809   0.38664
 Alpha virt. eigenvalues --    0.39011   0.40357   0.41807   0.44950   0.49020
 Alpha virt. eigenvalues --    0.52341   0.55272   0.62326   0.64374   0.66443
 Alpha virt. eigenvalues --    0.69762   0.77274   0.81286   0.90599   0.90723
 Alpha virt. eigenvalues --    1.09432   1.11893   1.12031   1.15297   1.16038
 Alpha virt. eigenvalues --    1.18146   1.19584   1.20281   1.22090   1.23265
 Alpha virt. eigenvalues --    1.27722   1.29908   1.36897   1.45705   1.47986
 Alpha virt. eigenvalues --    1.53676   1.57244   1.60103   1.65721   1.72421
 Alpha virt. eigenvalues --    1.74199   1.76409   1.79535   1.80805   1.81931
 Alpha virt. eigenvalues --    1.84624   1.87889   1.89424   1.90272   1.91638
 Alpha virt. eigenvalues --    1.91935   2.00854   2.20604   2.23484   2.32163
 Alpha virt. eigenvalues --    2.47065   3.05986   3.49311   3.99329   4.09150
 Alpha virt. eigenvalues --    4.13125   4.19316
          Condensed to atoms (all electrons):
              1          2          3          4          5          6
     1  O    9.166816   0.119908   0.000705   0.175624  -0.689183  -0.061384
     2  O    0.119908   8.676779  -0.076728   0.119903  -0.247589  -0.010608
     3  O    0.000705  -0.076728   8.599109   0.000705  -0.055996   0.086368
     4  O    0.175624   0.119903   0.000705   9.166792  -0.689172  -0.031189
     5  P   -0.689183  -0.247589  -0.055996  -0.689172  16.371573   0.282512
     6  Ca  -0.061384  -0.010608   0.086368  -0.031189   0.282512  18.475634
     7  Ca  -0.031193  -0.010605   0.086364  -0.061368   0.282492   0.039779
     8  Ca   0.094922   0.102416  -0.032332   0.094921  -0.028130  -0.041391
              7          8
     1  O   -0.031193   0.094922
     2  O   -0.010605   0.102416
     3  O    0.086364  -0.032332
     4  O   -0.061368   0.094921
     5  P    0.282492  -0.028130
     6  Ca   0.039779  -0.041391
     7  Ca  18.475604  -0.041384
     8  Ca  -0.041384  18.310960
 Mulliken atomic charges:
              1
     1  O   -0.776215
     2  O   -0.673476
     3  O   -0.608194
     4  O   -0.776215
     5  P   -0.226506
     6  Ca   1.260278
     7  Ca   1.260310
     8  Ca   1.540019
 Sum of Mulliken charges=   1.00000
 Atomic charges with hydrogens summed into heavy atoms:
              1
     1  O   -0.776215
     2  O   -0.673476
     3  O   -0.608194
     4  O   -0.776215
     5  P   -0.226506
     6  Ca   1.260278
     7  Ca   1.260310
     8  Ca   1.540019
 Sum of Mulliken charges=   1.00000
 Electronic spatial extent (au):  <R**2>=  1619.8463
 Charge=     1.0000 electrons
 Dipole moment (field-independent basis, Debye):
    X=     0.9955    Y=    -0.0001    Z=     5.3808  Tot=     5.4721
 Quadrupole moment (field-independent basis, Debye-Ang):
   XX=   -67.1633   YY=   -43.8710   ZZ=   -71.2052
   XY=    -0.0041   XZ=   -29.6538   YZ=    -0.0037
 Traceless Quadrupole moment (field-independent basis, Debye-Ang):
   XX=    -6.4168   YY=    16.8755   ZZ=   -10.4587
   XY=    -0.0041   XZ=   -29.6538   YZ=    -0.0037
 Octapole moment (field-independent basis, Debye-Ang**2):
  XXX=   -26.8737  YYY=     0.0218  ZZZ=    56.3622  XYY=    65.6569
  XXY=    -0.0214  XXZ=    28.6281  XZZ=   -30.7991  YZZ=    -0.0029
  YYZ=     2.4896  XYZ=     0.0016
 Hexadecapole moment (field-independent basis, Debye-Ang**3):
 XXXX=  -813.4925 YYYY=  -463.9919 ZZZZ=  -561.2935 XXXY=    -0.0222
 XXXZ=  -138.5280 YYYX=    -0.0157 YYYZ=    -0.0152 ZZZX=  -103.9665
 ZZZY=    -0.0134 XXYY=  -203.1349 XXZZ=  -210.6012 YYZZ=  -181.9321
 XXYZ=    -0.0075 YYXZ=   -37.6299 ZZXY=    -0.0020
 N-N= 9.251653363664D+02 E-N=-8.173122443095D+03  KE= 2.667636857848D+03
 Merz-Kollman atomic radii used.
 Read replacement radii for each type of atom:
 Rad(20) =   1.188000000000D+00
 Atom Element Radius
    1     8    1.40
    2     8    1.40
    3     8    1.40
    4     8    1.40
    5    15    1.80
    6    20    1.19
    7    20    1.19
    8    20    1.19

 **********************************************************************

            Electrostatic Properties Using The SCF Density

 **********************************************************************

       Atomic Center    1 is at  -1.207351 -1.304692 -0.455192
       Atomic Center    2 is at   0.749420  0.000102  1.322448
       Atomic Center    3 is at   2.167220  0.000301  0.761678
       Atomic Center    4 is at  -1.207720  1.304408 -0.455232
       Atomic Center    5 is at  -1.092490 -0.000143 -1.560952
       Atomic Center    6 is at   1.059063  1.691420 -0.336792
       Atomic Center    7 is at   1.059536 -1.691210 -0.336752
       Atomic Center    8 is at  -1.499860 -0.000150  1.374778
     706 points will be used for fitting atomic charges
 Fitting point charges to eletrostatic potential
 Charges from ESP fit, RMS=   0.01646 RRMS=   0.10223:
 Charge=   1.00000 Dipole=     1.6000    -0.0004     5.0463 Tot=     5.2938
              1
     1  O   -0.600944
     2  O   -0.734219
     3  O   -0.694903
     4  O   -0.601101
     5  P   -0.481085
     6  Ca   1.285627
     7  Ca   1.285555
     8  Ca   1.541071
 -----------------------------------------------------------------

              Electrostatic Properties (Atomic Units)

 -----------------------------------------------------------------
    Center     Electric         -------- Electric Field --------
               Potential          X             Y             Z
 -----------------------------------------------------------------
    1 Atom    -22.242207
    2 Atom    -22.201798
    3 Atom    -22.211199
    4 Atom    -22.242206
    5 Atom    -54.003387
    6 Atom    -80.033149
    7 Atom    -80.033140
    8 Atom    -80.011794
 -----------------------------------------------------------------
 1\1\GINC-N025\SP\RB3LYP\6-31+G(d,p)\Ca3O4P1(1+)\TIMN\12-Jun-2015\0\\# 
 b3lyp/6-31+G(d,p) int=ultrafine pop=(ReadRadii,MK)\\Ca3PO4_22.mol2_plu
 sQ.z51433.zip.xyz\\1,1\O,0,-1.20734,-1.3047,-0.45519\O,0,0.74942,0.000
 11,1.32245\O,0,2.16722,0.00032,0.76168\O,0,-1.20773,1.3044,-0.45523\P,
 0,-1.09249,-0.00015,-1.56095\Ca,0,1.05905,1.69143,-0.33679\Ca,0,1.0595
 5,-1.6912,-0.33675\Ca,0,-1.49986,-0.00016,1.37478\\Version=EM64T-G03Re
 vE.01\State=1-A\HF=-2674.8901076\RMSD=6.200e-05\Thermal=0.\Dipole=0.39
 16436,-0.0000275,2.1169588\PG=C01 [X(Ca3O4P1)]\\@


 Sometimes the fool who rushes in gets the job done.
                                    -- Al Bernstein
 Job cpu time:  0 days  0 hours  1 minutes 28.7 seconds.
 File lengths (MBytes):  RWF=     32 Int=      0 D2E=      0 Chk=     11 Scr=      1
 Normal termination of Gaussian 03 at Fri Jun 12 17:42:13 2015.
