 Entering Gaussian System, Link 0=/home/timn/tmp/g03.e01/g03
 Input=Ca3PO4_80.mol2_plusQ.z51497.zip.xyz.gjf
 Output=Ca3PO4_80.mol2_plusQ.z51497.zip.xyz.out
 Initial command:
 /home/timn/tmp/g03.e01/l1.exe /home/timn/tmp/g03.e01/Gau-17483.inp -scrdir=/home/timn/tmp/g03.e01/
 Default is to use a total of   2 processors:
                                2 via shared-memory
                                1 via Linda
 Entering Link 1 = /home/timn/tmp/g03.e01/l1.exe PID=     17484.
  
 Copyright (c) 1988,1990,1992,1993,1995,1998,2003,2004,2007, Gaussian, Inc.
                  All Rights Reserved.
  
 This is the Gaussian(R) 03 program.  It is based on the
 the Gaussian(R) 98 system (copyright 1998, Gaussian, Inc.),
 the Gaussian(R) 94 system (copyright 1995, Gaussian, Inc.),
 the Gaussian 92(TM) system (copyright 1992, Gaussian, Inc.),
 the Gaussian 90(TM) system (copyright 1990, Gaussian, Inc.),
 the Gaussian 88(TM) system (copyright 1988, Gaussian, Inc.),
 the Gaussian 86(TM) system (copyright 1986, Carnegie Mellon
 University), and the Gaussian 82(TM) system (copyright 1983,
 Carnegie Mellon University). Gaussian is a federally registered
 trademark of Gaussian, Inc.
  
 This software contains proprietary and confidential information,
 including trade secrets, belonging to Gaussian, Inc.
  
 This software is provided under written license and may be
 used, copied, transmitted, or stored only in accord with that
 written license.
  
 The following legend is applicable only to US Government
 contracts under FAR:
  
                    RESTRICTED RIGHTS LEGEND
  
 Use, reproduction and disclosure by the US Government is
 subject to restrictions as set forth in subparagraphs (a)
 and (c) of the Commercial Computer Software - Restricted
 Rights clause in FAR 52.227-19.
  
 Gaussian, Inc.
 340 Quinnipiac St., Bldg. 40, Wallingford CT 06492
  
  
 ---------------------------------------------------------------
 Warning -- This program may not be used in any manner that
 competes with the business of Gaussian, Inc. or will provide
 assistance to any competitor of Gaussian, Inc.  The licensee
 of this program is prohibited from giving any competitor of
 Gaussian, Inc. access to this program.  By using this program,
 the user acknowledges that Gaussian, Inc. is engaged in the
 business of creating and licensing software in the field of
 computational chemistry and represents and warrants to the
 licensee that it is not a competitor of Gaussian, Inc. and that
 it will not use this program in any manner prohibited above.
 ---------------------------------------------------------------
  

 Cite this work as:
 Gaussian 03, Revision E.01,
 M. J. Frisch, G. W. Trucks, H. B. Schlegel, G. E. Scuseria, 
 M. A. Robb, J. R. Cheeseman, J. A. Montgomery, Jr., T. Vreven, 
 K. N. Kudin, J. C. Burant, J. M. Millam, S. S. Iyengar, J. Tomasi, 
 V. Barone, B. Mennucci, M. Cossi, G. Scalmani, N. Rega, 
 G. A. Petersson, H. Nakatsuji, M. Hada, M. Ehara, K. Toyota, 
 R. Fukuda, J. Hasegawa, M. Ishida, T. Nakajima, Y. Honda, O. Kitao, 
 H. Nakai, M. Klene, X. Li, J. E. Knox, H. P. Hratchian, J. B. Cross, 
 V. Bakken, C. Adamo, J. Jaramillo, R. Gomperts, R. E. Stratmann, 
 O. Yazyev, A. J. Austin, R. Cammi, C. Pomelli, J. W. Ochterski, 
 P. Y. Ayala, K. Morokuma, G. A. Voth, P. Salvador, J. J. Dannenberg, 
 V. G. Zakrzewski, S. Dapprich, A. D. Daniels, M. C. Strain, 
 O. Farkas, D. K. Malick, A. D. Rabuck, K. Raghavachari, 
 J. B. Foresman, J. V. Ortiz, Q. Cui, A. G. Baboul, S. Clifford, 
 J. Cioslowski, B. B. Stefanov, G. Liu, A. Liashenko, P. Piskorz, 
 I. Komaromi, R. L. Martin, D. J. Fox, T. Keith, M. A. Al-Laham, 
 C. Y. Peng, A. Nanayakkara, M. Challacombe, P. M. W. Gill, 
 B. Johnson, W. Chen, M. W. Wong, C. Gonzalez, and J. A. Pople, 
 Gaussian, Inc., Wallingford CT, 2004.
 
 ******************************************
 Gaussian 03:  EM64T-G03RevE.01 11-Sep-2007
                12-Jun-2015 
 ******************************************
 %nproc=2
 Will use up to    2 processors via shared memory.
 Default route:  MP2=Direct MaxDisk=2000MB
 ----------------------------------------------------
 # b3lyp/6-31+G(d,p) int=ultrafine pop=(ReadRadii,MK)
 ----------------------------------------------------

 Warning!  SCF SP cutoffs with diffuse functions may be unreliable.
 Consider SCF=Tight

 1/38=1/1;
 2/17=6,18=5,40=1/2;
 3/5=1,6=6,7=111,11=2,16=1,25=1,30=1,74=-5,75=5/1,2,3;
 4//1;
 5/5=2,32=1,38=5/2;
 6/7=2,8=2,9=2,10=2,15=8,20=101,28=1/1,2;
 99/5=1,9=1/99;
 -----------------------------------
 Ca3PO4_80.mol2_plusQ.z51497.zip.xyz
 -----------------------------------
 Symbolic Z-matrix:
 Charge =  1 Multiplicity = 1
 O                     0.9499    0.40607   0.82821 
 O                    -1.00107  -1.42412   0.85459 
 O                    -0.9499    0.41296  -0.82319 
 O                     0.99177  -1.42645  -0.85461 
 P                    -0.00243  -0.61034   0.00148 
 Ca                   -2.91318  -0.55461  -0.01073 
 Ca                    2.90905  -0.56431   0.00773 
 Ca                    0.00966   2.38929  -0.00011 
 
                          Input orientation:                          
 ---------------------------------------------------------------------
 Center     Atomic     Atomic              Coordinates (Angstroms)
 Number     Number      Type              X           Y           Z
 ---------------------------------------------------------------------
    1          8             0        0.949900    0.406070    0.828210
    2          8             0       -1.001070   -1.424120    0.854590
    3          8             0       -0.949900    0.412960   -0.823190
    4          8             0        0.991770   -1.426450   -0.854610
    5         15             0       -0.002430   -0.610340    0.001480
    6         20             0       -2.913180   -0.554610   -0.010730
    7         20             0        2.909050   -0.564310    0.007730
    8         20             0        0.009660    2.389290   -0.000110
 ---------------------------------------------------------------------
                    Distance matrix (angstroms):
                    1          2          3          4          5
     1  O    0.000000
     2  O    2.675178   0.000000
     3  O    2.517223   2.488459   0.000000
     4  O    2.488326   2.625411   2.674789   0.000000
     5  P    1.619723   1.545094   1.620161   1.545108   0.000000
     6  Ca   4.068183   2.271781   2.334684   4.089116   2.911309
     7  Ca   2.335186   4.092125   4.066569   2.272197   2.911851
     8  Ca   2.345917   4.036605   2.346081   4.031697   2.999655
                    6          7          8
     6  Ca   0.000000
     7  Ca   5.822267   0.000000
     8  Ca   4.148452   4.138874   0.000000
 Stoichiometry    Ca3O4P(1+)
 Framework group  C1[X(Ca3O4P)]
 Deg. of freedom    18
 Full point group                 C1
 Largest Abelian subgroup         C1      NOp   1
 Largest concise Abelian subgroup C1      NOp   1
                         Standard orientation:                         
 ---------------------------------------------------------------------
 Center     Atomic     Atomic              Coordinates (Angstroms)
 Number     Number      Type              X           Y           Z
 ---------------------------------------------------------------------
    1          8             0        0.949903    0.406068    0.828210
    2          8             0       -1.001071   -1.424118    0.854590
    3          8             0       -0.949897    0.412962   -0.823190
    4          8             0        0.991769   -1.426452   -0.854610
    5         15             0       -0.002429   -0.610340    0.001480
    6         20             0       -2.913179   -0.554604   -0.010730
    7         20             0        2.909051   -0.564316    0.007730
    8         20             0        0.009667    2.389290   -0.000110
 ---------------------------------------------------------------------
 Rotational constants (GHZ):      1.3291736      0.6453200      0.4709946
 Standard basis: 6-31+G(d,p) (6D, 7F)
 There are   180 symmetry adapted basis functions of A   symmetry.
 Integral buffers will be    131072 words long.
 Raffenetti 2 integral format.
 Two-electron integral symmetry is turned on.
   180 basis functions,   424 primitive gaussians,   180 cartesian basis functions
    53 alpha electrons       53 beta electrons
       nuclear repulsion energy       884.2286810130 Hartrees.
 NAtoms=    8 NActive=    8 NUniq=    8 SFac= 7.50D-01 NAtFMM=   80 NAOKFM=F Big=F
 One-electron integrals computed using PRISM.
 NBasis=   180 RedAO= T  NBF=   180
 NBsUse=   180 1.00D-06 NBFU=   180
 Harris functional with IExCor=  402 diagonalized for initial guess.
 ExpMin= 7.10D-03 ExpMax= 3.53D+04 ExpMxC= 5.30D+03 IAcc=3 IRadAn=         5 AccDes= 0.00D+00
 HarFok:  IExCor= 402 AccDes= 0.00D+00 IRadAn=         5 IDoV=1
 ScaDFX=  1.000000  1.000000  1.000000  1.000000
 Initial guess orbital symmetries:
       Occupied  (A) (A) (A) (A) (A) (A) (A) (A) (A) (A) (A) (A)
                 (A) (A) (A) (A) (A) (A) (A) (A) (A) (A) (A) (A)
                 (A) (A) (A) (A) (A) (A) (A) (A) (A) (A) (A) (A)
                 (A) (A) (A) (A) (A) (A) (A) (A) (A) (A) (A) (A)
                 (A) (A) (A) (A) (A)
       Virtual   (A) (A) (A) (A) (A) (A) (A) (A) (A) (A) (A) (A)
                 (A) (A) (A) (A) (A) (A) (A) (A) (A) (A) (A) (A)
                 (A) (A) (A) (A) (A) (A) (A) (A) (A) (A) (A) (A)
                 (A) (A) (A) (A) (A) (A) (A) (A) (A) (A) (A) (A)
                 (A) (A) (A) (A) (A) (A) (A) (A) (A) (A) (A) (A)
                 (A) (A) (A) (A) (A) (A) (A) (A) (A) (A) (A) (A)
                 (A) (A) (A) (A) (A) (A) (A) (A) (A) (A) (A) (A)
                 (A) (A) (A) (A) (A) (A) (A) (A) (A) (A) (A) (A)
                 (A) (A) (A) (A) (A) (A) (A) (A) (A) (A) (A) (A)
                 (A) (A) (A) (A) (A) (A) (A) (A) (A) (A) (A) (A)
                 (A) (A) (A) (A) (A) (A) (A)
 The electronic state of the initial guess is 1-A.
 Requested convergence on RMS density matrix=1.00D-04 within 128 cycles.
 Requested convergence on MAX density matrix=1.00D-02.
 Requested convergence on             energy=1.00D-02.
 No special actions if energy rises.
 EnCoef did     5 forward-backward iterations
 SCF Done:  E(RB+HF-LYP) =  -2675.02389374     A.U. after   10 cycles
             Convg  =    0.6376D-04             -V/T =  2.0027
             S**2   =   0.0000

 **********************************************************************

            Population analysis using the SCF density.

 **********************************************************************

 Orbital symmetries:
       Occupied  (A) (A) (A) (A) (A) (A) (A) (A) (A) (A) (A) (A)
                 (A) (A) (A) (A) (A) (A) (A) (A) (A) (A) (A) (A)
                 (A) (A) (A) (A) (A) (A) (A) (A) (A) (A) (A) (A)
                 (A) (A) (A) (A) (A) (A) (A) (A) (A) (A) (A) (A)
                 (A) (A) (A) (A) (A)
       Virtual   (A) (A) (A) (A) (A) (A) (A) (A) (A) (A) (A) (A)
                 (A) (A) (A) (A) (A) (A) (A) (A) (A) (A) (A) (A)
                 (A) (A) (A) (A) (A) (A) (A) (A) (A) (A) (A) (A)
                 (A) (A) (A) (A) (A) (A) (A) (A) (A) (A) (A) (A)
                 (A) (A) (A) (A) (A) (A) (A) (A) (A) (A) (A) (A)
                 (A) (A) (A) (A) (A) (A) (A) (A) (A) (A) (A) (A)
                 (A) (A) (A) (A) (A) (A) (A) (A) (A) (A) (A) (A)
                 (A) (A) (A) (A) (A) (A) (A) (A) (A) (A) (A) (A)
                 (A) (A) (A) (A) (A) (A) (A) (A) (A) (A) (A) (A)
                 (A) (A) (A) (A) (A) (A) (A) (A) (A) (A) (A) (A)
                 (A) (A) (A) (A) (A) (A) (A)
 The electronic state is 1-A.
 Alpha  occ. eigenvalues -- -145.53440-145.53372-145.51697 -77.32250 -19.24224
 Alpha  occ. eigenvalues --  -19.24191 -19.22123 -19.22109 -15.60326 -15.60258
 Alpha  occ. eigenvalues --  -15.58623 -12.73553 -12.73487 -12.73486 -12.73439
 Alpha  occ. eigenvalues --  -12.73419 -12.73372 -12.71839 -12.71780 -12.71731
 Alpha  occ. eigenvalues --   -6.76616  -4.93045  -4.92957  -4.92881  -1.97351
 Alpha  occ. eigenvalues --   -1.97285  -1.95705  -1.25068  -1.24944  -1.24881
 Alpha  occ. eigenvalues --   -1.24808  -1.24610  -1.24545  -1.23261  -1.23200
 Alpha  occ. eigenvalues --   -1.23018  -1.13449  -1.05315  -1.04508  -1.03720
 Alpha  occ. eigenvalues --   -0.63573  -0.55112  -0.54384  -0.53416  -0.48072
 Alpha  occ. eigenvalues --   -0.45549  -0.45057  -0.43197  -0.42769  -0.40360
 Alpha  occ. eigenvalues --   -0.39059  -0.37939  -0.25279
 Alpha virt. eigenvalues --   -0.22086  -0.20678  -0.15424  -0.13348  -0.13276
 Alpha virt. eigenvalues --   -0.12183  -0.11584  -0.11420  -0.10359  -0.08711
 Alpha virt. eigenvalues --   -0.07705  -0.07169  -0.06127  -0.05498  -0.05269
 Alpha virt. eigenvalues --   -0.04944  -0.04688  -0.04503  -0.04356  -0.04316
 Alpha virt. eigenvalues --   -0.03708  -0.03502  -0.03454  -0.02486  -0.02389
 Alpha virt. eigenvalues --   -0.01124  -0.01114   0.00008   0.00776   0.02249
 Alpha virt. eigenvalues --    0.02400   0.02526   0.02658   0.03156   0.04018
 Alpha virt. eigenvalues --    0.04400   0.04666   0.04928   0.05349   0.05603
 Alpha virt. eigenvalues --    0.06138   0.06454   0.06655   0.06784   0.06877
 Alpha virt. eigenvalues --    0.07862   0.08222   0.08634   0.09147   0.09515
 Alpha virt. eigenvalues --    0.10525   0.13328   0.15079   0.16204   0.16802
 Alpha virt. eigenvalues --    0.18060   0.19625   0.19852   0.20664   0.21726
 Alpha virt. eigenvalues --    0.23138   0.23536   0.24940   0.26916   0.27510
 Alpha virt. eigenvalues --    0.28606   0.29701   0.29833   0.33303   0.34269
 Alpha virt. eigenvalues --    0.36361   0.39014   0.39857   0.46489   0.53273
 Alpha virt. eigenvalues --    0.53453   0.54600   0.57678   0.59204   0.70142
 Alpha virt. eigenvalues --    0.74812   0.76887   0.79565   0.93663   0.95040
 Alpha virt. eigenvalues --    0.98530   1.13179   1.14097   1.16803   1.17533
 Alpha virt. eigenvalues --    1.19028   1.20702   1.20902   1.22727   1.22951
 Alpha virt. eigenvalues --    1.26206   1.28403   1.28571   1.45766   1.48931
 Alpha virt. eigenvalues --    1.55706   1.65180   1.68172   1.69371   1.70242
 Alpha virt. eigenvalues --    1.72922   1.73245   1.76858   1.80450   1.82601
 Alpha virt. eigenvalues --    1.83692   1.85401   1.86746   1.98536   1.99512
 Alpha virt. eigenvalues --    2.08957   2.13512   2.19346   2.47076   2.63209
 Alpha virt. eigenvalues --    2.71785   2.76488   3.47210   4.01383   4.01865
 Alpha virt. eigenvalues --    4.06367   4.09430
          Condensed to atoms (all electrons):
              1          2          3          4          5          6
     1  O    9.208890   0.051438   0.005201  -0.113521  -0.009190  -0.035119
     2  O    0.051438   8.864480  -0.113690  -0.096189   0.144948   0.004936
     3  O    0.005201  -0.113690   9.209973   0.051746  -0.010007  -0.063462
     4  O   -0.113521  -0.096189   0.051746   8.862409   0.146823  -0.023308
     5  P   -0.009190   0.144948  -0.010007   0.146823  12.794341   0.055113
     6  Ca  -0.035119   0.004936  -0.063462  -0.023308   0.055113  18.925506
     7  Ca  -0.064238  -0.023611  -0.035510   0.004570   0.055221   0.128361
     8  Ca  -0.046681  -0.024880  -0.046680  -0.025074   0.044352   0.104662
              7          8
     1  O   -0.064238  -0.046681
     2  O   -0.023611  -0.024880
     3  O   -0.035510  -0.046680
     4  O    0.004570  -0.025074
     5  P    0.055221   0.044352
     6  Ca   0.128361   0.104662
     7  Ca  18.923894   0.106630
     8  Ca   0.106630  18.864824
 Mulliken atomic charges:
              1
     1  O   -0.996780
     2  O   -0.807432
     3  O   -0.997571
     4  O   -0.807456
     5  P    1.778400
     6  Ca   0.903310
     7  Ca   0.904683
     8  Ca   1.022847
 Sum of Mulliken charges=   1.00000
 Atomic charges with hydrogens summed into heavy atoms:
              1
     1  O   -0.996780
     2  O   -0.807432
     3  O   -0.997571
     4  O   -0.807456
     5  P    1.778400
     6  Ca   0.903310
     7  Ca   0.904683
     8  Ca   1.022847
 Sum of Mulliken charges=   1.00000
 Electronic spatial extent (au):  <R**2>=  2123.6128
 Charge=     1.0000 electrons
 Dipole moment (field-independent basis, Debye):
    X=     0.0683    Y=     3.1888    Z=    -0.0097  Tot=     3.1895
 Quadrupole moment (field-independent basis, Debye-Ang):
   XX=   -11.1990   YY=   -69.6187   ZZ=   -88.7200
   XY=    -0.1483   XZ=     2.2591   YZ=     0.0271
 Traceless Quadrupole moment (field-independent basis, Debye-Ang):
   XX=    45.3136   YY=   -13.1061   ZZ=   -32.2074
   XY=    -0.1483   XZ=     2.2591   YZ=     0.0271
 Octapole moment (field-independent basis, Debye-Ang**2):
  XXX=     0.2747  YYY=    21.8107  ZZZ=     0.0119  XYY=     0.4226
  XXY=   -80.6515  XXZ=    -0.1240  XZZ=     0.0084  YZZ=    -5.8144
  YYZ=     0.0797  XYZ=   -10.3714
 Hexadecapole moment (field-independent basis, Debye-Ang**3):
 XXXX= -1123.9486 YYYY=  -923.5870 ZZZZ=  -271.4384 XXXY=    -2.1411
 XXXZ=    19.2593 YYYX=    -0.6389 YYYZ=     0.0935 ZZZX=     7.4545
 ZZZY=     0.0885 XXYY=  -433.7190 XXZZ=  -339.5116 YYZZ=  -214.6759
 XXYZ=     0.2458 YYXZ=    17.3522 ZZXY=    -0.2192
 N-N= 8.842286810130D+02 E-N=-8.088999358595D+03  KE= 2.667713608891D+03
 Merz-Kollman atomic radii used.
 Read replacement radii for each type of atom:
 Rad(20) =   1.188000000000D+00
 Atom Element Radius
    1     8    1.40
    2     8    1.40
    3     8    1.40
    4     8    1.40
    5    15    1.80
    6    20    1.19
    7    20    1.19
    8    20    1.19

 **********************************************************************

            Electrostatic Properties Using The SCF Density

 **********************************************************************

       Atomic Center    1 is at   0.949903  0.406068  0.828210
       Atomic Center    2 is at  -1.001071 -1.424118  0.854590
       Atomic Center    3 is at  -0.949897  0.412962 -0.823190
       Atomic Center    4 is at   0.991769 -1.426452 -0.854610
       Atomic Center    5 is at  -0.002429 -0.610340  0.001480
       Atomic Center    6 is at  -2.913179 -0.554604 -0.010730
       Atomic Center    7 is at   2.909051 -0.564316  0.007730
       Atomic Center    8 is at   0.009667  2.389290 -0.000110
     678 points will be used for fitting atomic charges
 Fitting point charges to eletrostatic potential
 Charges from ESP fit, RMS=   0.02525 RRMS=   0.15135:
 Charge=   1.00000 Dipole=     0.1191     6.6984    -0.0022 Tot=     6.6994
              1
     1  O   -1.185196
     2  O   -1.081427
     3  O   -1.195462
     4  O   -1.077964
     5  P    2.377092
     6  Ca   1.154846
     7  Ca   1.156173
     8  Ca   0.851939
 -----------------------------------------------------------------

              Electrostatic Properties (Atomic Units)

 -----------------------------------------------------------------
    Center     Electric         -------- Electric Field --------
               Potential          X             Y             Z
 -----------------------------------------------------------------
    1 Atom    -22.222087
    2 Atom    -22.244074
    3 Atom    -22.222878
    4 Atom    -22.243838
    5 Atom    -53.883111
    6 Atom    -80.008413
    7 Atom    -80.007327
    8 Atom    -80.025875
 -----------------------------------------------------------------
 1\1\GINC-N025\SP\RB3LYP\6-31+G(d,p)\Ca3O4P1(1+)\TIMN\12-Jun-2015\0\\# 
 b3lyp/6-31+G(d,p) int=ultrafine pop=(ReadRadii,MK)\\Ca3PO4_80.mol2_plu
 sQ.z51497.zip.xyz\\1,1\O,0,0.9499,0.40607,0.82821\O,0,-1.00107,-1.4241
 2,0.85459\O,0,-0.9499,0.41296,-0.82319\O,0,0.99177,-1.42645,-0.85461\P
 ,0,-0.00243,-0.61034,0.00148\Ca,0,-2.91318,-0.55461,-0.01073\Ca,0,2.90
 905,-0.56431,0.00773\Ca,0,0.00966,2.38929,-0.00011\\Version=EM64T-G03R
 evE.01\State=1-A\HF=-2675.0238937\RMSD=6.376e-05\Thermal=0.\Dipole=0.0
 26877,1.254559,-0.0038126\PG=C01 [X(Ca3O4P1)]\\@


 IF THERE IS ONE WAY BETTER THAN ANOTHER IT IS THE WAY OF NATURE.

                          -- ARISTOTLE
 Job cpu time:  0 days  0 hours  1 minutes 59.7 seconds.
 File lengths (MBytes):  RWF=     32 Int=      0 D2E=      0 Chk=     11 Scr=      1
 Normal termination of Gaussian 03 at Fri Jun 12 17:45:55 2015.
