 Entering Gaussian System, Link 0=/home/timn/tmp/g03.e01/g03
 Input=Ca3PO4_157.mol2c_plusQc.z51687.zip.xyz.gjf
 Output=Ca3PO4_157.mol2c_plusQc.z51687.zip.xyz.out
 Initial command:
 /home/timn/tmp/g03.e01/l1.exe /home/timn/tmp/g03.e01/Gau-13621.inp -scrdir=/home/timn/tmp/g03.e01/
 Default is to use a total of   2 processors:
                                2 via shared-memory
                                1 via Linda
 Entering Link 1 = /home/timn/tmp/g03.e01/l1.exe PID=     13622.
  
 Copyright (c) 1988,1990,1992,1993,1995,1998,2003,2004,2007, Gaussian, Inc.
                  All Rights Reserved.
  
 This is the Gaussian(R) 03 program.  It is based on the
 the Gaussian(R) 98 system (copyright 1998, Gaussian, Inc.),
 the Gaussian(R) 94 system (copyright 1995, Gaussian, Inc.),
 the Gaussian 92(TM) system (copyright 1992, Gaussian, Inc.),
 the Gaussian 90(TM) system (copyright 1990, Gaussian, Inc.),
 the Gaussian 88(TM) system (copyright 1988, Gaussian, Inc.),
 the Gaussian 86(TM) system (copyright 1986, Carnegie Mellon
 University), and the Gaussian 82(TM) system (copyright 1983,
 Carnegie Mellon University). Gaussian is a federally registered
 trademark of Gaussian, Inc.
  
 This software contains proprietary and confidential information,
 including trade secrets, belonging to Gaussian, Inc.
  
 This software is provided under written license and may be
 used, copied, transmitted, or stored only in accord with that
 written license.
  
 The following legend is applicable only to US Government
 contracts under FAR:
  
                    RESTRICTED RIGHTS LEGEND
  
 Use, reproduction and disclosure by the US Government is
 subject to restrictions as set forth in subparagraphs (a)
 and (c) of the Commercial Computer Software - Restricted
 Rights clause in FAR 52.227-19.
  
 Gaussian, Inc.
 340 Quinnipiac St., Bldg. 40, Wallingford CT 06492
  
  
 ---------------------------------------------------------------
 Warning -- This program may not be used in any manner that
 competes with the business of Gaussian, Inc. or will provide
 assistance to any competitor of Gaussian, Inc.  The licensee
 of this program is prohibited from giving any competitor of
 Gaussian, Inc. access to this program.  By using this program,
 the user acknowledges that Gaussian, Inc. is engaged in the
 business of creating and licensing software in the field of
 computational chemistry and represents and warrants to the
 licensee that it is not a competitor of Gaussian, Inc. and that
 it will not use this program in any manner prohibited above.
 ---------------------------------------------------------------
  

 Cite this work as:
 Gaussian 03, Revision E.01,
 M. J. Frisch, G. W. Trucks, H. B. Schlegel, G. E. Scuseria, 
 M. A. Robb, J. R. Cheeseman, J. A. Montgomery, Jr., T. Vreven, 
 K. N. Kudin, J. C. Burant, J. M. Millam, S. S. Iyengar, J. Tomasi, 
 V. Barone, B. Mennucci, M. Cossi, G. Scalmani, N. Rega, 
 G. A. Petersson, H. Nakatsuji, M. Hada, M. Ehara, K. Toyota, 
 R. Fukuda, J. Hasegawa, M. Ishida, T. Nakajima, Y. Honda, O. Kitao, 
 H. Nakai, M. Klene, X. Li, J. E. Knox, H. P. Hratchian, J. B. Cross, 
 V. Bakken, C. Adamo, J. Jaramillo, R. Gomperts, R. E. Stratmann, 
 O. Yazyev, A. J. Austin, R. Cammi, C. Pomelli, J. W. Ochterski, 
 P. Y. Ayala, K. Morokuma, G. A. Voth, P. Salvador, J. J. Dannenberg, 
 V. G. Zakrzewski, S. Dapprich, A. D. Daniels, M. C. Strain, 
 O. Farkas, D. K. Malick, A. D. Rabuck, K. Raghavachari, 
 J. B. Foresman, J. V. Ortiz, Q. Cui, A. G. Baboul, S. Clifford, 
 J. Cioslowski, B. B. Stefanov, G. Liu, A. Liashenko, P. Piskorz, 
 I. Komaromi, R. L. Martin, D. J. Fox, T. Keith, M. A. Al-Laham, 
 C. Y. Peng, A. Nanayakkara, M. Challacombe, P. M. W. Gill, 
 B. Johnson, W. Chen, M. W. Wong, C. Gonzalez, and J. A. Pople, 
 Gaussian, Inc., Wallingford CT, 2004.
 
 ******************************************
 Gaussian 03:  EM64T-G03RevE.01 11-Sep-2007
                12-Jun-2015 
 ******************************************
 %nproc=2
 Will use up to    2 processors via shared memory.
 Default route:  MP2=Direct MaxDisk=2000MB
 ----------------------------------------------------
 # b3lyp/6-31+G(d,p) int=ultrafine pop=(ReadRadii,MK)
 ----------------------------------------------------

 Warning!  SCF SP cutoffs with diffuse functions may be unreliable.
 Consider SCF=Tight

 1/38=1/1;
 2/17=6,18=5,40=1/2;
 3/5=1,6=6,7=111,11=2,16=1,25=1,30=1,74=-5,75=5/1,2,3;
 4//1;
 5/5=2,32=1,38=5/2;
 6/7=2,8=2,9=2,10=2,15=8,20=101,28=1/1,2;
 99/5=1,9=1/99;
 --------------------------------------
 Ca3PO4_157.mol2c_plusQc.z51687.zip.xyz
 --------------------------------------
 Symbolic Z-matrix:
 Charge =  1 Multiplicity = 1
 O                    -2.50154  -1.08704   0.78334 
 O                     1.95935  -0.87491   0.00071 
 O                    -0.38514   1.11409  -0.00008 
 O                    -2.50145  -1.08728  -0.7833 
 P                     3.5467   -0.70333  -0.00069 
 Ca                    1.72642   1.56449   0.00033 
 Ca                   -0.38853  -1.2686    0.00025 
 Ca                   -2.6264    1.00566  -0.00033 
 
                          Input orientation:                          
 ---------------------------------------------------------------------
 Center     Atomic     Atomic              Coordinates (Angstroms)
 Number     Number      Type              X           Y           Z
 ---------------------------------------------------------------------
    1          8             0       -2.501540   -1.087040    0.783340
    2          8             0        1.959350   -0.874910    0.000710
    3          8             0       -0.385140    1.114090   -0.000080
    4          8             0       -2.501450   -1.087280   -0.783300
    5         15             0        3.546700   -0.703330   -0.000690
    6         20             0        1.726420    1.564490    0.000330
    7         20             0       -0.388530   -1.268600    0.000250
    8         20             0       -2.626400    1.005660   -0.000330
 ---------------------------------------------------------------------
                    Distance matrix (angstroms):
                    1          2          3          4          5
     1  O    0.000000
     2  O    4.533988   0.000000
     3  O    3.152439   3.074533   0.000000
     4  O    1.566640   4.534149   3.152496   0.000000
     5  P    6.110904   1.596597   4.331556   6.110648   0.000000
     6  Ca   5.051669   2.450496   2.159061   5.051816   2.907994
     7  Ca   2.260753   2.380658   2.382692   2.260809   3.975621
     8  Ca   2.238107   4.956374   2.243881   2.238091   6.405296
                    6          7          8
     6  Ca   0.000000
     7  Ca   3.535451   0.000000
     8  Ca   4.388546   3.190662   0.000000
 Stoichiometry    Ca3O4P(1+)
 Framework group  C1[X(Ca3O4P)]
 Deg. of freedom    18
 Full point group                 C1
 Largest Abelian subgroup         C1      NOp   1
 Largest concise Abelian subgroup C1      NOp   1
                         Standard orientation:                         
 ---------------------------------------------------------------------
 Center     Atomic     Atomic              Coordinates (Angstroms)
 Number     Number      Type              X           Y           Z
 ---------------------------------------------------------------------
    1          8             0       -2.501541   -1.087039    0.783340
    2          8             0        1.959349   -0.874909    0.000710
    3          8             0       -0.385140    1.114091   -0.000080
    4          8             0       -2.501451   -1.087279   -0.783300
    5         15             0        3.546699   -0.703330   -0.000690
    6         20             0        1.726420    1.564491    0.000330
    7         20             0       -0.388531   -1.268599    0.000250
    8         20             0       -2.626400    1.005661   -0.000330
 ---------------------------------------------------------------------
 Rotational constants (GHZ):      1.6440999      0.4705766      0.3765614
 Standard basis: 6-31+G(d,p) (6D, 7F)
 There are   180 symmetry adapted basis functions of A   symmetry.
 Integral buffers will be    131072 words long.
 Raffenetti 2 integral format.
 Two-electron integral symmetry is turned on.
   180 basis functions,   424 primitive gaussians,   180 cartesian basis functions
    53 alpha electrons       53 beta electrons
       nuclear repulsion energy       821.7932815519 Hartrees.
 NAtoms=    8 NActive=    8 NUniq=    8 SFac= 7.50D-01 NAtFMM=   80 NAOKFM=F Big=F
 One-electron integrals computed using PRISM.
 NBasis=   180 RedAO= T  NBF=   180
 NBsUse=   180 1.00D-06 NBFU=   180
 Harris functional with IExCor=  402 diagonalized for initial guess.
 ExpMin= 7.10D-03 ExpMax= 3.53D+04 ExpMxC= 5.30D+03 IAcc=3 IRadAn=         5 AccDes= 0.00D+00
 HarFok:  IExCor= 402 AccDes= 0.00D+00 IRadAn=         5 IDoV=1
 ScaDFX=  1.000000  1.000000  1.000000  1.000000
 Initial guess orbital symmetries:
       Occupied  (A) (A) (A) (A) (A) (A) (A) (A) (A) (A) (A) (A)
                 (A) (A) (A) (A) (A) (A) (A) (A) (A) (A) (A) (A)
                 (A) (A) (A) (A) (A) (A) (A) (A) (A) (A) (A) (A)
                 (A) (A) (A) (A) (A) (A) (A) (A) (A) (A) (A) (A)
                 (A) (A) (A) (A) (A)
       Virtual   (A) (A) (A) (A) (A) (A) (A) (A) (A) (A) (A) (A)
                 (A) (A) (A) (A) (A) (A) (A) (A) (A) (A) (A) (A)
                 (A) (A) (A) (A) (A) (A) (A) (A) (A) (A) (A) (A)
                 (A) (A) (A) (A) (A) (A) (A) (A) (A) (A) (A) (A)
                 (A) (A) (A) (A) (A) (A) (A) (A) (A) (A) (A) (A)
                 (A) (A) (A) (A) (A) (A) (A) (A) (A) (A) (A) (A)
                 (A) (A) (A) (A) (A) (A) (A) (A) (A) (A) (A) (A)
                 (A) (A) (A) (A) (A) (A) (A) (A) (A) (A) (A) (A)
                 (A) (A) (A) (A) (A) (A) (A) (A) (A) (A) (A) (A)
                 (A) (A) (A) (A) (A) (A) (A) (A) (A) (A) (A) (A)
                 (A) (A) (A) (A) (A) (A) (A)
 The electronic state of the initial guess is 1-A.
 Requested convergence on RMS density matrix=1.00D-04 within 128 cycles.
 Requested convergence on MAX density matrix=1.00D-02.
 Requested convergence on             energy=1.00D-02.
 No special actions if energy rises.
 Rare condition: small coef for last iteration:  0.000D+00
 EnCoef did   100 forward-backward iterations
 EnCoef did   100 forward-backward iterations
 EnCoef did   100 forward-backward iterations
 SCF Done:  E(RB+HF-LYP) =  -2674.85229006     A.U. after   11 cycles
             Convg  =    0.9650D-04             -V/T =  2.0027
             S**2   =   0.0000

 **********************************************************************

            Population analysis using the SCF density.

 **********************************************************************

 Orbital symmetries:
       Occupied  (A) (A) (A) (A) (A) (A) (A) (A) (A) (A) (A) (A)
                 (A) (A) (A) (A) (A) (A) (A) (A) (A) (A) (A) (A)
                 (A) (A) (A) (A) (A) (A) (A) (A) (A) (A) (A) (A)
                 (A) (A) (A) (A) (A) (A) (A) (A) (A) (A) (A) (A)
                 (A) (A) (A) (A) (A)
       Virtual   (A) (A) (A) (A) (A) (A) (A) (A) (A) (A) (A) (A)
                 (A) (A) (A) (A) (A) (A) (A) (A) (A) (A) (A) (A)
                 (A) (A) (A) (A) (A) (A) (A) (A) (A) (A) (A) (A)
                 (A) (A) (A) (A) (A) (A) (A) (A) (A) (A) (A) (A)
                 (A) (A) (A) (A) (A) (A) (A) (A) (A) (A) (A) (A)
                 (A) (A) (A) (A) (A) (A) (A) (A) (A) (A) (A) (A)
                 (A) (A) (A) (A) (A) (A) (A) (A) (A) (A) (A) (A)
                 (A) (A) (A) (A) (A) (A) (A) (A) (A) (A) (A) (A)
                 (A) (A) (A) (A) (A) (A) (A) (A) (A) (A) (A) (A)
                 (A) (A) (A) (A) (A) (A) (A) (A) (A) (A) (A) (A)
                 (A) (A) (A) (A) (A) (A) (A)
 The electronic state is 1-A.
 Alpha  occ. eigenvalues -- -145.52190-145.48103-145.46162 -77.25949 -19.30446
 Alpha  occ. eigenvalues --  -19.20543 -19.20537 -19.16983 -15.59121 -15.54965
 Alpha  occ. eigenvalues --  -15.53019 -12.72381 -12.72319 -12.72156 -12.68176
 Alpha  occ. eigenvalues --  -12.68145 -12.68075 -12.66258 -12.66216 -12.66106
 Alpha  occ. eigenvalues --   -6.72269  -4.88983  -4.88477  -4.87596  -1.96361
 Alpha  occ. eigenvalues --   -1.92253  -1.90354  -1.24261  -1.24187  -1.23089
 Alpha  occ. eigenvalues --   -1.20686  -1.19864  -1.19439  -1.18155  -1.18056
 Alpha  occ. eigenvalues --   -1.17783  -1.11740  -1.03170  -0.91746  -0.84296
 Alpha  occ. eigenvalues --   -0.68453  -0.51858  -0.50981  -0.50719  -0.44022
 Alpha  occ. eigenvalues --   -0.42399  -0.41546  -0.37606  -0.36605  -0.35805
 Alpha  occ. eigenvalues --   -0.31051  -0.30804  -0.29370
 Alpha virt. eigenvalues --   -0.25147  -0.20606  -0.17848  -0.14974  -0.13445
 Alpha virt. eigenvalues --   -0.11183  -0.11020  -0.11007  -0.09563  -0.09027
 Alpha virt. eigenvalues --   -0.08148  -0.07021  -0.06603  -0.05864  -0.05789
 Alpha virt. eigenvalues --   -0.05275  -0.04786  -0.04561  -0.04330  -0.04197
 Alpha virt. eigenvalues --   -0.03973  -0.03729  -0.03673  -0.03298  -0.02791
 Alpha virt. eigenvalues --   -0.02679  -0.02119  -0.01945  -0.00573   0.00271
 Alpha virt. eigenvalues --    0.01243   0.02908   0.03372   0.03616   0.04035
 Alpha virt. eigenvalues --    0.05445   0.06026   0.06156   0.06643   0.06864
 Alpha virt. eigenvalues --    0.07037   0.07248   0.08432   0.08503   0.09890
 Alpha virt. eigenvalues --    0.10162   0.10640   0.10796   0.11685   0.11952
 Alpha virt. eigenvalues --    0.14276   0.15659   0.16549   0.17903   0.18537
 Alpha virt. eigenvalues --    0.19579   0.20146   0.21741   0.22496   0.22592
 Alpha virt. eigenvalues --    0.23761   0.28591   0.28927   0.30197   0.31162
 Alpha virt. eigenvalues --    0.32473   0.33187   0.34588   0.36286   0.37049
 Alpha virt. eigenvalues --    0.37504   0.39814   0.40582   0.45540   0.49269
 Alpha virt. eigenvalues --    0.51862   0.52405   0.55110   0.58586   0.60162
 Alpha virt. eigenvalues --    0.63618   0.69465   0.88576   0.89865   1.05510
 Alpha virt. eigenvalues --    1.07747   1.10864   1.11977   1.15846   1.17039
 Alpha virt. eigenvalues --    1.18659   1.19599   1.20122   1.21998   1.24523
 Alpha virt. eigenvalues --    1.28477   1.32192   1.39134   1.42616   1.49018
 Alpha virt. eigenvalues --    1.53542   1.54347   1.65267   1.67134   1.70785
 Alpha virt. eigenvalues --    1.74868   1.77178   1.78570   1.79571   1.80784
 Alpha virt. eigenvalues --    1.81396   1.83429   1.84945   1.89530   1.91727
 Alpha virt. eigenvalues --    1.94953   2.01279   2.10009   2.21667   2.23969
 Alpha virt. eigenvalues --    2.49080   3.06659   3.37354   3.85447   3.94746
 Alpha virt. eigenvalues --    4.09779   4.13899
          Condensed to atoms (all electrons):
              1          2          3          4          5          6
     1  O    8.482196  -0.001694  -0.004086  -0.026469  -0.000111  -0.000164
     2  O   -0.001694   9.056804  -0.003452  -0.001694  -0.429540  -0.068570
     3  O   -0.004086  -0.003452   8.994165  -0.004100  -0.011932   0.179815
     4  O   -0.026469  -0.001694  -0.004100   8.482266  -0.000116  -0.000159
     5  P   -0.000111  -0.429540  -0.011932  -0.000116  15.128003   0.244838
     6  Ca  -0.000164  -0.068570   0.179815  -0.000159   0.244838  18.355968
     7  Ca   0.105175   0.029511   0.055067   0.105192   0.021090  -0.008613
     8  Ca   0.097301  -0.005634   0.115522   0.097298  -0.003511  -0.012004
              7          8
     1  O    0.105175   0.097301
     2  O    0.029511  -0.005634
     3  O    0.055067   0.115522
     4  O    0.105192   0.097298
     5  P    0.021090  -0.003511
     6  Ca  -0.008613  -0.012004
     7  Ca  18.346707  -0.046789
     8  Ca  -0.046789  18.309552
 Mulliken atomic charges:
              1
     1  O   -0.652147
     2  O   -0.575731
     3  O   -1.320997
     4  O   -0.652217
     5  P    0.051277
     6  Ca   1.308889
     7  Ca   1.392660
     8  Ca   1.448266
 Sum of Mulliken charges=   1.00000
 Atomic charges with hydrogens summed into heavy atoms:
              1
     1  O   -0.652147
     2  O   -0.575731
     3  O   -1.320997
     4  O   -0.652217
     5  P    0.051277
     6  Ca   1.308889
     7  Ca   1.392660
     8  Ca   1.448266
 Sum of Mulliken charges=   1.00000
 Electronic spatial extent (au):  <R**2>=  2541.1453
 Charge=     1.0000 electrons
 Dipole moment (field-independent basis, Debye):
    X=     3.2049    Y=    10.0551    Z=     0.0011  Tot=    10.5535
 Quadrupole moment (field-independent basis, Debye-Ang):
   XX=   -52.0050   YY=   -51.7121   ZZ=   -72.7094
   XY=   -13.5017   XZ=     0.0104   YZ=     0.0017
 Traceless Quadrupole moment (field-independent basis, Debye-Ang):
   XX=     6.8038   YY=     7.0967   ZZ=   -13.9006
   XY=   -13.5017   XZ=     0.0104   YZ=     0.0017
 Octapole moment (field-independent basis, Debye-Ang**2):
  XXX=   -68.4459  YYY=    43.9415  ZZZ=     0.0072  XYY=     2.2086
  XXY=   134.4322  XXZ=     0.0010  XZZ=     6.2502  YZZ=     9.1836
  YYZ=     0.0139  XYZ=     0.0216
 Hexadecapole moment (field-independent basis, Debye-Ang**3):
 XXXX= -2201.8249 YYYY=  -542.0323 ZZZZ=  -128.4813 XXXY=  -243.5299
 XXXZ=     0.1679 YYYX=    37.3929 YYYZ=    -0.0030 ZZZX=     0.0341
 ZZZY=     0.0018 XXYY=  -470.4623 XXZZ=  -411.3460 YYZZ=  -124.6712
 XXYZ=    -0.0124 YYXZ=     0.0396 ZZXY=   -18.8445
 N-N= 8.217932815519D+02 E-N=-7.967997297227D+03  KE= 2.667611146125D+03
 Merz-Kollman atomic radii used.
 Read replacement radii for each type of atom:
 Rad(20) =   1.188000000000D+00
 Atom Element Radius
    1     8    1.40
    2     8    1.40
    3     8    1.40
    4     8    1.40
    5    15    1.80
    6    20    1.19
    7    20    1.19
    8    20    1.19

 **********************************************************************

            Electrostatic Properties Using The SCF Density

 **********************************************************************

       Atomic Center    1 is at  -2.501541 -1.087039  0.783340
       Atomic Center    2 is at   1.959349 -0.874909  0.000710
       Atomic Center    3 is at  -0.385140  1.114091 -0.000080
       Atomic Center    4 is at  -2.501451 -1.087279 -0.783300
       Atomic Center    5 is at   3.546699 -0.703330 -0.000690
       Atomic Center    6 is at   1.726420  1.564491  0.000330
       Atomic Center    7 is at  -0.388531 -1.268599  0.000250
       Atomic Center    8 is at  -2.626400  1.005661 -0.000330
     865 points will be used for fitting atomic charges
 Fitting point charges to eletrostatic potential
 Charges from ESP fit, RMS=   0.00976 RRMS=   0.06585:
 Charge=   1.00000 Dipole=     3.2196    10.7467     0.0008 Tot=    11.2186
              1
     1  O   -0.759000
     2  O   -0.456442
     3  O   -1.584852
     4  O   -0.759001
     5  P   -0.096259
     6  Ca   1.422533
     7  Ca   1.579037
     8  Ca   1.653984
 -----------------------------------------------------------------

              Electrostatic Properties (Atomic Units)

 -----------------------------------------------------------------
    Center     Electric         -------- Electric Field --------
               Potential          X             Y             Z
 -----------------------------------------------------------------
    1 Atom    -22.274236
    2 Atom    -22.156096
    3 Atom    -22.290781
    4 Atom    -22.274299
    5 Atom    -53.949214
    6 Atom    -80.017491
    7 Atom    -80.080377
    8 Atom    -80.062591
 -----------------------------------------------------------------
 1\1\GINC-N035\SP\RB3LYP\6-31+G(d,p)\Ca3O4P1(1+)\TIMN\12-Jun-2015\0\\# 
 b3lyp/6-31+G(d,p) int=ultrafine pop=(ReadRadii,MK)\\Ca3PO4_157.mol2c_p
 lusQc.z51687.zip.xyz\\1,1\O,0,-2.50154,-1.08704,0.78334\O,0,1.95935,-0
 .87491,0.00071\O,0,-0.38514,1.11409,-0.00008\O,0,-2.50145,-1.08728,-0.
 7833\P,0,3.5467,-0.70333,-0.00069\Ca,0,1.72642,1.56449,0.00033\Ca,0,-0
 .38853,-1.2686,0.00025\Ca,0,-2.6264,1.00566,-0.00033\\Version=EM64T-G0
 3RevE.01\State=1-A\HF=-2674.8522901\RMSD=9.650e-05\Thermal=0.\Dipole=1
 .2609133,3.9559934,0.0004222\PG=C01 [X(Ca3O4P1)]\\@


 TIME GOES, YOU SAY?  AH NO!
 ALAS, TIME STAYS, WE GO.
    -- A. DOBSON (1840-1921)
 Job cpu time:  0 days  0 hours  1 minutes 59.8 seconds.
 File lengths (MBytes):  RWF=     32 Int=      0 D2E=      0 Chk=     11 Scr=      1
 Normal termination of Gaussian 03 at Fri Jun 12 17:39:03 2015.
