 Entering Gaussian System, Link 0=/home/timn/tmp/g03.e01/g03
 Input=Ca3PO4_28.mol2_plusQ.z51439.zip.xyz.gjf
 Output=Ca3PO4_28.mol2_plusQ.z51439.zip.xyz.out
 Initial command:
 /home/timn/tmp/g03.e01/l1.exe /home/timn/tmp/g03.e01/Gau-12090.inp -scrdir=/home/timn/tmp/g03.e01/
 Default is to use a total of   2 processors:
                                2 via shared-memory
                                1 via Linda
 Entering Link 1 = /home/timn/tmp/g03.e01/l1.exe PID=     12091.
  
 Copyright (c) 1988,1990,1992,1993,1995,1998,2003,2004,2007, Gaussian, Inc.
                  All Rights Reserved.
  
 This is the Gaussian(R) 03 program.  It is based on the
 the Gaussian(R) 98 system (copyright 1998, Gaussian, Inc.),
 the Gaussian(R) 94 system (copyright 1995, Gaussian, Inc.),
 the Gaussian 92(TM) system (copyright 1992, Gaussian, Inc.),
 the Gaussian 90(TM) system (copyright 1990, Gaussian, Inc.),
 the Gaussian 88(TM) system (copyright 1988, Gaussian, Inc.),
 the Gaussian 86(TM) system (copyright 1986, Carnegie Mellon
 University), and the Gaussian 82(TM) system (copyright 1983,
 Carnegie Mellon University). Gaussian is a federally registered
 trademark of Gaussian, Inc.
  
 This software contains proprietary and confidential information,
 including trade secrets, belonging to Gaussian, Inc.
  
 This software is provided under written license and may be
 used, copied, transmitted, or stored only in accord with that
 written license.
  
 The following legend is applicable only to US Government
 contracts under FAR:
  
                    RESTRICTED RIGHTS LEGEND
  
 Use, reproduction and disclosure by the US Government is
 subject to restrictions as set forth in subparagraphs (a)
 and (c) of the Commercial Computer Software - Restricted
 Rights clause in FAR 52.227-19.
  
 Gaussian, Inc.
 340 Quinnipiac St., Bldg. 40, Wallingford CT 06492
  
  
 ---------------------------------------------------------------
 Warning -- This program may not be used in any manner that
 competes with the business of Gaussian, Inc. or will provide
 assistance to any competitor of Gaussian, Inc.  The licensee
 of this program is prohibited from giving any competitor of
 Gaussian, Inc. access to this program.  By using this program,
 the user acknowledges that Gaussian, Inc. is engaged in the
 business of creating and licensing software in the field of
 computational chemistry and represents and warrants to the
 licensee that it is not a competitor of Gaussian, Inc. and that
 it will not use this program in any manner prohibited above.
 ---------------------------------------------------------------
  

 Cite this work as:
 Gaussian 03, Revision E.01,
 M. J. Frisch, G. W. Trucks, H. B. Schlegel, G. E. Scuseria, 
 M. A. Robb, J. R. Cheeseman, J. A. Montgomery, Jr., T. Vreven, 
 K. N. Kudin, J. C. Burant, J. M. Millam, S. S. Iyengar, J. Tomasi, 
 V. Barone, B. Mennucci, M. Cossi, G. Scalmani, N. Rega, 
 G. A. Petersson, H. Nakatsuji, M. Hada, M. Ehara, K. Toyota, 
 R. Fukuda, J. Hasegawa, M. Ishida, T. Nakajima, Y. Honda, O. Kitao, 
 H. Nakai, M. Klene, X. Li, J. E. Knox, H. P. Hratchian, J. B. Cross, 
 V. Bakken, C. Adamo, J. Jaramillo, R. Gomperts, R. E. Stratmann, 
 O. Yazyev, A. J. Austin, R. Cammi, C. Pomelli, J. W. Ochterski, 
 P. Y. Ayala, K. Morokuma, G. A. Voth, P. Salvador, J. J. Dannenberg, 
 V. G. Zakrzewski, S. Dapprich, A. D. Daniels, M. C. Strain, 
 O. Farkas, D. K. Malick, A. D. Rabuck, K. Raghavachari, 
 J. B. Foresman, J. V. Ortiz, Q. Cui, A. G. Baboul, S. Clifford, 
 J. Cioslowski, B. B. Stefanov, G. Liu, A. Liashenko, P. Piskorz, 
 I. Komaromi, R. L. Martin, D. J. Fox, T. Keith, M. A. Al-Laham, 
 C. Y. Peng, A. Nanayakkara, M. Challacombe, P. M. W. Gill, 
 B. Johnson, W. Chen, M. W. Wong, C. Gonzalez, and J. A. Pople, 
 Gaussian, Inc., Wallingford CT, 2004.
 
 ******************************************
 Gaussian 03:  EM64T-G03RevE.01 11-Sep-2007
                12-Jun-2015 
 ******************************************
 %nproc=2
 Will use up to    2 processors via shared memory.
 Default route:  MP2=Direct MaxDisk=2000MB
 ----------------------------------------------------
 # b3lyp/6-31+G(d,p) int=ultrafine pop=(ReadRadii,MK)
 ----------------------------------------------------

 Warning!  SCF SP cutoffs with diffuse functions may be unreliable.
 Consider SCF=Tight

 1/38=1/1;
 2/17=6,18=5,40=1/2;
 3/5=1,6=6,7=111,11=2,16=1,25=1,30=1,74=-5,75=5/1,2,3;
 4//1;
 5/5=2,32=1,38=5/2;
 6/7=2,8=2,9=2,10=2,15=8,20=101,28=1/1,2;
 99/5=1,9=1/99;
 -----------------------------------
 Ca3PO4_28.mol2_plusQ.z51439.zip.xyz
 -----------------------------------
 Symbolic Z-matrix:
 Charge =  1 Multiplicity = 1
 O                     2.23854   0.00058   1.33169 
 O                     0.58633  -1.25378  -0.10738 
 O                     0.58823   1.25361  -0.11153 
 O                    -2.69286   0.0007   -0.33285 
 P                     0.69144   0.0014    1.03429 
 Ca                   -1.62461  -1.8177   -0.07585 
 Ca                   -1.62254   1.81808  -0.07637 
 Ca                    2.44047  -0.00187  -0.93548 
 
                          Input orientation:                          
 ---------------------------------------------------------------------
 Center     Atomic     Atomic              Coordinates (Angstroms)
 Number     Number      Type              X           Y           Z
 ---------------------------------------------------------------------
    1          8             0        2.238540    0.000580    1.331690
    2          8             0        0.586330   -1.253780   -0.107380
    3          8             0        0.588230    1.253610   -0.111530
    4          8             0       -2.692860    0.000700   -0.332850
    5         15             0        0.691440    0.001400    1.034290
    6         20             0       -1.624610   -1.817700   -0.075850
    7         20             0       -1.622540    1.818080   -0.076370
    8         20             0        2.440470   -0.001870   -0.935480
 ---------------------------------------------------------------------
                    Distance matrix (angstroms):
                    1          2          3          4          5
     1  O    0.000000
     2  O    2.524706   0.000000
     3  O    2.525172   2.507394   0.000000
     4  O    5.204748   3.518188   3.519136   0.000000
     5  P    1.575426   1.699981   1.700466   3.650008   0.000000
     6  Ca   4.495691   2.281941   3.785615   2.124567   3.147320
     7  Ca   4.493760   3.783701   2.281966   2.124673   3.144582
     8  Ca   2.276146   2.385553   2.384516   5.168583   2.634219
                    6          7          8
     6  Ca   0.000000
     7  Ca   3.635781   0.000000
     8  Ca   4.534432   4.534130   0.000000
 Stoichiometry    Ca3O4P(1+)
 Framework group  C1[X(Ca3O4P)]
 Deg. of freedom    18
 Full point group                 C1
 Largest Abelian subgroup         C1      NOp   1
 Largest concise Abelian subgroup C1      NOp   1
                         Standard orientation:                         
 ---------------------------------------------------------------------
 Center     Atomic     Atomic              Coordinates (Angstroms)
 Number     Number      Type              X           Y           Z
 ---------------------------------------------------------------------
    1          8             0        2.238541    0.000583    1.331692
    2          8             0        0.586333   -1.253780   -0.107378
    3          8             0        0.588229    1.253610   -0.111528
    4          8             0       -2.692859    0.000695   -0.332848
    5         15             0        0.691441    0.001400    1.034292
    6         20             0       -1.624607   -1.817703   -0.075848
    7         20             0       -1.622542    1.818077   -0.076368
    8         20             0        2.440471   -0.001867   -0.935478
 ---------------------------------------------------------------------
 Rotational constants (GHZ):      1.2222125      0.6565423      0.5130308
 Standard basis: 6-31+G(d,p) (6D, 7F)
 There are   180 symmetry adapted basis functions of A   symmetry.
 Integral buffers will be    131072 words long.
 Raffenetti 2 integral format.
 Two-electron integral symmetry is turned on.
   180 basis functions,   424 primitive gaussians,   180 cartesian basis functions
    53 alpha electrons       53 beta electrons
       nuclear repulsion energy       872.1731892538 Hartrees.
 NAtoms=    8 NActive=    8 NUniq=    8 SFac= 7.50D-01 NAtFMM=   80 NAOKFM=F Big=F
 One-electron integrals computed using PRISM.
 NBasis=   180 RedAO= T  NBF=   180
 NBsUse=   180 1.00D-06 NBFU=   180
 Harris functional with IExCor=  402 diagonalized for initial guess.
 ExpMin= 7.10D-03 ExpMax= 3.53D+04 ExpMxC= 5.30D+03 IAcc=3 IRadAn=         5 AccDes= 0.00D+00
 HarFok:  IExCor= 402 AccDes= 0.00D+00 IRadAn=         5 IDoV=1
 ScaDFX=  1.000000  1.000000  1.000000  1.000000
 Initial guess orbital symmetries:
       Occupied  (A) (A) (A) (A) (A) (A) (A) (A) (A) (A) (A) (A)
                 (A) (A) (A) (A) (A) (A) (A) (A) (A) (A) (A) (A)
                 (A) (A) (A) (A) (A) (A) (A) (A) (A) (A) (A) (A)
                 (A) (A) (A) (A) (A) (A) (A) (A) (A) (A) (A) (A)
                 (A) (A) (A) (A) (A)
       Virtual   (A) (A) (A) (A) (A) (A) (A) (A) (A) (A) (A) (A)
                 (A) (A) (A) (A) (A) (A) (A) (A) (A) (A) (A) (A)
                 (A) (A) (A) (A) (A) (A) (A) (A) (A) (A) (A) (A)
                 (A) (A) (A) (A) (A) (A) (A) (A) (A) (A) (A) (A)
                 (A) (A) (A) (A) (A) (A) (A) (A) (A) (A) (A) (A)
                 (A) (A) (A) (A) (A) (A) (A) (A) (A) (A) (A) (A)
                 (A) (A) (A) (A) (A) (A) (A) (A) (A) (A) (A) (A)
                 (A) (A) (A) (A) (A) (A) (A) (A) (A) (A) (A) (A)
                 (A) (A) (A) (A) (A) (A) (A) (A) (A) (A) (A) (A)
                 (A) (A) (A) (A) (A) (A) (A) (A) (A) (A) (A) (A)
                 (A) (A) (A) (A) (A) (A) (A)
 The electronic state of the initial guess is 1-A.
 Requested convergence on RMS density matrix=1.00D-04 within 128 cycles.
 Requested convergence on MAX density matrix=1.00D-02.
 Requested convergence on             energy=1.00D-02.
 No special actions if energy rises.
 SCF Done:  E(RB+HF-LYP) =  -2674.99967953     A.U. after    8 cycles
             Convg  =    0.9149D-04             -V/T =  2.0027
             S**2   =   0.0000

 **********************************************************************

            Population analysis using the SCF density.

 **********************************************************************

 Orbital symmetries:
       Occupied  (A) (A) (A) (A) (A) (A) (A) (A) (A) (A) (A) (A)
                 (A) (A) (A) (A) (A) (A) (A) (A) (A) (A) (A) (A)
                 (A) (A) (A) (A) (A) (A) (A) (A) (A) (A) (A) (A)
                 (A) (A) (A) (A) (A) (A) (A) (A) (A) (A) (A) (A)
                 (A) (A) (A) (A) (A)
       Virtual   (A) (A) (A) (A) (A) (A) (A) (A) (A) (A) (A) (A)
                 (A) (A) (A) (A) (A) (A) (A) (A) (A) (A) (A) (A)
                 (A) (A) (A) (A) (A) (A) (A) (A) (A) (A) (A) (A)
                 (A) (A) (A) (A) (A) (A) (A) (A) (A) (A) (A) (A)
                 (A) (A) (A) (A) (A) (A) (A) (A) (A) (A) (A) (A)
                 (A) (A) (A) (A) (A) (A) (A) (A) (A) (A) (A) (A)
                 (A) (A) (A) (A) (A) (A) (A) (A) (A) (A) (A) (A)
                 (A) (A) (A) (A) (A) (A) (A) (A) (A) (A) (A) (A)
                 (A) (A) (A) (A) (A) (A) (A) (A) (A) (A) (A) (A)
                 (A) (A) (A) (A) (A) (A) (A) (A) (A) (A) (A) (A)
                 (A) (A) (A) (A) (A) (A) (A)
 The electronic state is 1-A.
 Alpha  occ. eigenvalues -- -145.52900-145.48522-145.48514 -77.24514 -19.21567
 Alpha  occ. eigenvalues --  -19.21552 -19.18917 -19.12187 -15.59696 -15.55425
 Alpha  occ. eigenvalues --  -15.55417 -12.72879 -12.72874 -12.72863 -12.68678
 Alpha  occ. eigenvalues --  -12.68670 -12.68609 -12.68601 -12.68484 -12.68476
 Alpha  occ. eigenvalues --   -6.69830  -4.86210  -4.86133  -4.85712  -1.96740
 Alpha  occ. eigenvalues --   -1.92689  -1.92662  -1.24717  -1.24002  -1.23965
 Alpha  occ. eigenvalues --   -1.20597  -1.20526  -1.20411  -1.20155  -1.19796
 Alpha  occ. eigenvalues --   -1.19304  -1.06954  -0.99981  -0.99927  -0.86571
 Alpha  occ. eigenvalues --   -0.61882  -0.49711  -0.49548  -0.48423  -0.42892
 Alpha  occ. eigenvalues --   -0.42358  -0.38149  -0.37921  -0.34579  -0.32848
 Alpha  occ. eigenvalues --   -0.32540  -0.30664  -0.30262
 Alpha virt. eigenvalues --   -0.20426  -0.18306  -0.17397  -0.12506  -0.11991
 Alpha virt. eigenvalues --   -0.10384  -0.10049  -0.08960  -0.08368  -0.08012
 Alpha virt. eigenvalues --   -0.07399  -0.06924  -0.06468  -0.05555  -0.05312
 Alpha virt. eigenvalues --   -0.05093  -0.04607  -0.04478  -0.04078  -0.03980
 Alpha virt. eigenvalues --   -0.03805  -0.03345  -0.03204  -0.03012  -0.02988
 Alpha virt. eigenvalues --   -0.02111  -0.00740   0.00380   0.00948   0.02176
 Alpha virt. eigenvalues --    0.02498   0.03695   0.04457   0.04595   0.05064
 Alpha virt. eigenvalues --    0.05151   0.05659   0.06263   0.06264   0.07336
 Alpha virt. eigenvalues --    0.07873   0.08140   0.08736   0.09153   0.09678
 Alpha virt. eigenvalues --    0.10494   0.10818   0.11186   0.11894   0.13950
 Alpha virt. eigenvalues --    0.15108   0.15332   0.15878   0.18525   0.20324
 Alpha virt. eigenvalues --    0.21763   0.22076   0.22896   0.23321   0.24874
 Alpha virt. eigenvalues --    0.25860   0.25887   0.27088   0.28293   0.28715
 Alpha virt. eigenvalues --    0.29954   0.33039   0.34496   0.37734   0.38557
 Alpha virt. eigenvalues --    0.39653   0.40752   0.44922   0.46902   0.48891
 Alpha virt. eigenvalues --    0.54421   0.59556   0.59731   0.64615   0.69000
 Alpha virt. eigenvalues --    0.69431   0.74889   0.88713   0.89354   0.91493
 Alpha virt. eigenvalues --    1.00702   1.12894   1.14377   1.16974   1.17777
 Alpha virt. eigenvalues --    1.18874   1.21568   1.22872   1.24366   1.25178
 Alpha virt. eigenvalues --    1.28331   1.28773   1.31234   1.46748   1.51236
 Alpha virt. eigenvalues --    1.55722   1.70968   1.73519   1.77157   1.77837
 Alpha virt. eigenvalues --    1.79136   1.80244   1.80572   1.84709   1.84847
 Alpha virt. eigenvalues --    1.85619   1.86067   1.88379   1.91426   1.95591
 Alpha virt. eigenvalues --    1.96190   2.00836   2.03132   2.10228   2.40162
 Alpha virt. eigenvalues --    2.50608   2.70539   3.51427   3.96531   4.03531
 Alpha virt. eigenvalues --    4.09011   4.17567
          Condensed to atoms (all electrons):
              1          2          3          4          5          6
     1  O    8.727692   0.011600   0.011564   0.004236  -0.020901   0.012983
     2  O    0.011600   9.126959   0.110748   0.011991  -0.461542   0.106747
     3  O    0.011564   0.110748   9.126725   0.012017  -0.461879   0.024013
     4  O    0.004236   0.011991   0.012017   8.773622  -0.063813   0.223128
     5  P   -0.020901  -0.461542  -0.461879  -0.063813  15.187826  -0.049549
     6  Ca   0.012983   0.106747   0.024013   0.223128  -0.049549  18.289622
     7  Ca   0.013051   0.024047   0.106920   0.223020  -0.049411  -0.012459
     8  Ca   0.119919   0.027037   0.027125  -0.000814   0.169676  -0.018738
              7          8
     1  O    0.013051   0.119919
     2  O    0.024047   0.027037
     3  O    0.106920   0.027125
     4  O    0.223020  -0.000814
     5  P   -0.049411   0.169676
     6  Ca  -0.012459  -0.018738
     7  Ca  18.289554  -0.018705
     8  Ca  -0.018705  18.313976
 Mulliken atomic charges:
              1
     1  O   -0.880143
     2  O   -0.957587
     3  O   -0.957233
     4  O   -1.183389
     5  P    0.749593
     6  Ca   1.424253
     7  Ca   1.423982
     8  Ca   1.380524
 Sum of Mulliken charges=   1.00000
 Atomic charges with hydrogens summed into heavy atoms:
              1
     1  O   -0.880143
     2  O   -0.957587
     3  O   -0.957233
     4  O   -1.183389
     5  P    0.749593
     6  Ca   1.424253
     7  Ca   1.423982
     8  Ca   1.380524
 Sum of Mulliken charges=   1.00000
 Electronic spatial extent (au):  <R**2>=  2050.1841
 Charge=     1.0000 electrons
 Dipole moment (field-independent basis, Debye):
    X=     1.5133    Y=    -0.0175    Z=    -7.4988  Tot=     7.6500
 Quadrupole moment (field-independent basis, Debye-Ang):
   XX=   -53.1292   YY=   -32.3148   ZZ=   -70.0801
   XY=    -0.0091   XZ=   -28.1101   YZ=     0.0234
 Traceless Quadrupole moment (field-independent basis, Debye-Ang):
   XX=    -1.2879   YY=    19.5266   ZZ=   -18.2387
   XY=    -0.0091   XZ=   -28.1101   YZ=     0.0234
 Octapole moment (field-independent basis, Debye-Ang**2):
  XXX=   138.4465  YYY=     0.0062  ZZZ=   -33.9006  XYY=   -98.6960
  XXY=    -0.2425  XXZ=   -59.5164  XZZ=     9.6959  YZZ=    -0.0503
  YYZ=    -7.9215  XYZ=     0.0594
 Hexadecapole moment (field-independent basis, Debye-Ang**3):
 XXXX= -1416.8942 YYYY=  -414.5745 ZZZZ=  -306.4458 XXXY=     0.0507
 XXXZ=  -249.7597 YYYX=     0.0068 YYYZ=     0.0371 ZZZX=   -75.7114
 ZZZY=    -0.0028 XXYY=  -179.6828 XXZZ=  -268.7491 YYZZ=  -139.9698
 XXYZ=     0.0818 YYXZ=    -7.4725 ZZXY=    -0.0391
 N-N= 8.721731892538D+02 E-N=-8.069641725760D+03  KE= 2.667721423815D+03
 Merz-Kollman atomic radii used.
 Read replacement radii for each type of atom:
 Rad(20) =   1.188000000000D+00
 Atom Element Radius
    1     8    1.40
    2     8    1.40
    3     8    1.40
    4     8    1.40
    5    15    1.80
    6    20    1.19
    7    20    1.19
    8    20    1.19

 **********************************************************************

            Electrostatic Properties Using The SCF Density

 **********************************************************************

       Atomic Center    1 is at   2.238541  0.000583  1.331692
       Atomic Center    2 is at   0.586333 -1.253780 -0.107378
       Atomic Center    3 is at   0.588229  1.253610 -0.111528
       Atomic Center    4 is at  -2.692859  0.000695 -0.332848
       Atomic Center    5 is at   0.691441  0.001400  1.034292
       Atomic Center    6 is at  -1.624607 -1.817703 -0.075848
       Atomic Center    7 is at  -1.622542  1.818077 -0.076368
       Atomic Center    8 is at   2.440471 -0.001867 -0.935478
     719 points will be used for fitting atomic charges
 Fitting point charges to eletrostatic potential
 Charges from ESP fit, RMS=   0.00725 RRMS=   0.04586:
 Charge=   1.00000 Dipole=     1.6606    -0.0180    -7.7231 Tot=     7.8996
              1
     1  O   -0.574696
     2  O   -1.023114
     3  O   -1.023186
     4  O   -1.560541
     5  P    0.186220
     6  Ca   1.684116
     7  Ca   1.683966
     8  Ca   1.627235
 -----------------------------------------------------------------

              Electrostatic Properties (Atomic Units)

 -----------------------------------------------------------------
    Center     Electric         -------- Electric Field --------
               Potential          X             Y             Z
 -----------------------------------------------------------------
    1 Atom    -22.271919
    2 Atom    -22.260121
    3 Atom    -22.259922
    4 Atom    -22.349635
    5 Atom    -53.969460
    6 Atom    -80.059895
    7 Atom    -80.059959
    8 Atom    -80.011177
 -----------------------------------------------------------------
 1\1\GINC-N031\SP\RB3LYP\6-31+G(d,p)\Ca3O4P1(1+)\TIMN\12-Jun-2015\0\\# 
 b3lyp/6-31+G(d,p) int=ultrafine pop=(ReadRadii,MK)\\Ca3PO4_28.mol2_plu
 sQ.z51439.zip.xyz\\1,1\O,0,2.23854,0.00058,1.33169\O,0,0.58633,-1.2537
 8,-0.10738\O,0,0.58823,1.25361,-0.11153\O,0,-2.69286,0.0007,-0.33285\P
 ,0,0.69144,0.0014,1.03429\Ca,0,-1.62461,-1.8177,-0.07585\Ca,0,-1.62254
 ,1.81808,-0.07637\Ca,0,2.44047,-0.00187,-0.93548\\Version=EM64T-G03Rev
 E.01\State=1-A\HF=-2674.9996795\RMSD=9.149e-05\Thermal=0.\Dipole=0.595
 3858,-0.0068964,-2.9502491\PG=C01 [X(Ca3O4P1)]\\@


 QED = W**5 (WHICH WAS WHAT WE WANTED)
 Job cpu time:  0 days  0 hours  1 minutes 34.6 seconds.
 File lengths (MBytes):  RWF=     32 Int=      0 D2E=      0 Chk=     11 Scr=      1
 Normal termination of Gaussian 03 at Fri Jun 12 17:42:37 2015.
