 Entering Gaussian System, Link 0=/home/timn/tmp/g03.e01/g03
 Input=Ca3PO4_200.mol2c_plusQ.z51410.zip.xyz.gjf
 Output=Ca3PO4_200.mol2c_plusQ.z51410.zip.xyz.out
 Initial command:
 /home/timn/tmp/g03.e01/l1.exe /home/timn/tmp/g03.e01/Gau-17238.inp -scrdir=/home/timn/tmp/g03.e01/
 Default is to use a total of   2 processors:
                                2 via shared-memory
                                1 via Linda
 Entering Link 1 = /home/timn/tmp/g03.e01/l1.exe PID=     17239.
  
 Copyright (c) 1988,1990,1992,1993,1995,1998,2003,2004,2007, Gaussian, Inc.
                  All Rights Reserved.
  
 This is the Gaussian(R) 03 program.  It is based on the
 the Gaussian(R) 98 system (copyright 1998, Gaussian, Inc.),
 the Gaussian(R) 94 system (copyright 1995, Gaussian, Inc.),
 the Gaussian 92(TM) system (copyright 1992, Gaussian, Inc.),
 the Gaussian 90(TM) system (copyright 1990, Gaussian, Inc.),
 the Gaussian 88(TM) system (copyright 1988, Gaussian, Inc.),
 the Gaussian 86(TM) system (copyright 1986, Carnegie Mellon
 University), and the Gaussian 82(TM) system (copyright 1983,
 Carnegie Mellon University). Gaussian is a federally registered
 trademark of Gaussian, Inc.
  
 This software contains proprietary and confidential information,
 including trade secrets, belonging to Gaussian, Inc.
  
 This software is provided under written license and may be
 used, copied, transmitted, or stored only in accord with that
 written license.
  
 The following legend is applicable only to US Government
 contracts under FAR:
  
                    RESTRICTED RIGHTS LEGEND
  
 Use, reproduction and disclosure by the US Government is
 subject to restrictions as set forth in subparagraphs (a)
 and (c) of the Commercial Computer Software - Restricted
 Rights clause in FAR 52.227-19.
  
 Gaussian, Inc.
 340 Quinnipiac St., Bldg. 40, Wallingford CT 06492
  
  
 ---------------------------------------------------------------
 Warning -- This program may not be used in any manner that
 competes with the business of Gaussian, Inc. or will provide
 assistance to any competitor of Gaussian, Inc.  The licensee
 of this program is prohibited from giving any competitor of
 Gaussian, Inc. access to this program.  By using this program,
 the user acknowledges that Gaussian, Inc. is engaged in the
 business of creating and licensing software in the field of
 computational chemistry and represents and warrants to the
 licensee that it is not a competitor of Gaussian, Inc. and that
 it will not use this program in any manner prohibited above.
 ---------------------------------------------------------------
  

 Cite this work as:
 Gaussian 03, Revision E.01,
 M. J. Frisch, G. W. Trucks, H. B. Schlegel, G. E. Scuseria, 
 M. A. Robb, J. R. Cheeseman, J. A. Montgomery, Jr., T. Vreven, 
 K. N. Kudin, J. C. Burant, J. M. Millam, S. S. Iyengar, J. Tomasi, 
 V. Barone, B. Mennucci, M. Cossi, G. Scalmani, N. Rega, 
 G. A. Petersson, H. Nakatsuji, M. Hada, M. Ehara, K. Toyota, 
 R. Fukuda, J. Hasegawa, M. Ishida, T. Nakajima, Y. Honda, O. Kitao, 
 H. Nakai, M. Klene, X. Li, J. E. Knox, H. P. Hratchian, J. B. Cross, 
 V. Bakken, C. Adamo, J. Jaramillo, R. Gomperts, R. E. Stratmann, 
 O. Yazyev, A. J. Austin, R. Cammi, C. Pomelli, J. W. Ochterski, 
 P. Y. Ayala, K. Morokuma, G. A. Voth, P. Salvador, J. J. Dannenberg, 
 V. G. Zakrzewski, S. Dapprich, A. D. Daniels, M. C. Strain, 
 O. Farkas, D. K. Malick, A. D. Rabuck, K. Raghavachari, 
 J. B. Foresman, J. V. Ortiz, Q. Cui, A. G. Baboul, S. Clifford, 
 J. Cioslowski, B. B. Stefanov, G. Liu, A. Liashenko, P. Piskorz, 
 I. Komaromi, R. L. Martin, D. J. Fox, T. Keith, M. A. Al-Laham, 
 C. Y. Peng, A. Nanayakkara, M. Challacombe, P. M. W. Gill, 
 B. Johnson, W. Chen, M. W. Wong, C. Gonzalez, and J. A. Pople, 
 Gaussian, Inc., Wallingford CT, 2004.
 
 ******************************************
 Gaussian 03:  EM64T-G03RevE.01 11-Sep-2007
                12-Jun-2015 
 ******************************************
 %nproc=2
 Will use up to    2 processors via shared memory.
 Default route:  MP2=Direct MaxDisk=2000MB
 ----------------------------------------------------
 # b3lyp/6-31+G(d,p) int=ultrafine pop=(ReadRadii,MK)
 ----------------------------------------------------

 Warning!  SCF SP cutoffs with diffuse functions may be unreliable.
 Consider SCF=Tight

 1/38=1/1;
 2/17=6,18=5,40=1/2;
 3/5=1,6=6,7=111,11=2,16=1,25=1,30=1,74=-5,75=5/1,2,3;
 4//1;
 5/5=2,32=1,38=5/2;
 6/7=2,8=2,9=2,10=2,15=8,20=101,28=1/1,2;
 99/5=1,9=1/99;
 -------------------------------------
 Ca3PO4_200.mol2c_plusQ.z51410.zip.xyz
 -------------------------------------
 Symbolic Z-matrix:
 Charge =  1 Multiplicity = 1
 O                    -0.26012   1.48682   1.36396 
 O                     0.00067  -0.00065  -0.68786 
 O                    -1.15726  -0.97638   1.3613 
 O                     1.42492  -0.5216    1.35971 
 P                     0.00236  -0.00345   1.06474 
 Ca                   -0.41843   2.34277  -0.71542 
 Ca                   -1.82595  -1.52762  -0.71953 
 Ca                    2.23933  -0.80784  -0.72245 
 
                          Input orientation:                          
 ---------------------------------------------------------------------
 Center     Atomic     Atomic              Coordinates (Angstroms)
 Number     Number      Type              X           Y           Z
 ---------------------------------------------------------------------
    1          8             0       -0.260120    1.486820    1.363960
    2          8             0        0.000670   -0.000650   -0.687860
    3          8             0       -1.157260   -0.976380    1.361300
    4          8             0        1.424920   -0.521600    1.359710
    5         15             0        0.002360   -0.003450    1.064740
    6         20             0       -0.418430    2.342770   -0.715420
    7         20             0       -1.825950   -1.527620   -0.719530
    8         20             0        2.239330   -0.807840   -0.722450
 ---------------------------------------------------------------------
                    Distance matrix (angstroms):
                    1          2          3          4          5
     1  O    0.000000
     2  O    2.547655   0.000000
     3  O    2.621492   2.547922   0.000000
     4  O    2.621665   2.548023   2.621923   0.000000
     5  P    1.542509   1.752603   1.542485   1.542454   0.000000
     6  Ca   2.254226   2.380761   3.984394   3.988574   2.975026
     7  Ca   3.984922   2.381004   2.254077   3.987916   2.974799
     8  Ca   3.983192   2.379990   3.988389   2.254016   2.974076
                    6          7          8
     6  Ca   0.000000
     7  Ca   4.118379   0.000000
     8  Ca   4.121903   4.128510   0.000000
 Stoichiometry    Ca3O4P(1+)
 Framework group  C1[X(Ca3O4P)]
 Deg. of freedom    18
 Full point group                 C1
 Largest Abelian subgroup         C1      NOp   1
 Largest concise Abelian subgroup C1      NOp   1
                         Standard orientation:                         
 ---------------------------------------------------------------------
 Center     Atomic     Atomic              Coordinates (Angstroms)
 Number     Number      Type              X           Y           Z
 ---------------------------------------------------------------------
    1          8             0       -0.259517    1.486926    1.363960
    2          8             0        0.000669   -0.000650   -0.687860
    3          8             0       -1.157657   -0.975909    1.361300
    4          8             0        1.424707   -0.522179    1.359710
    5         15             0        0.002358   -0.003451    1.064740
    6         20             0       -0.417479    2.342940   -0.715420
    7         20             0       -1.826571   -1.526878   -0.719530
    8         20             0        2.239001   -0.808750   -0.722450
 ---------------------------------------------------------------------
 Rotational constants (GHZ):      0.8605404      0.8576522      0.6403314
 Standard basis: 6-31+G(d,p) (6D, 7F)
 There are   180 symmetry adapted basis functions of A   symmetry.
 Integral buffers will be    131072 words long.
 Raffenetti 2 integral format.
 Two-electron integral symmetry is turned on.
   180 basis functions,   424 primitive gaussians,   180 cartesian basis functions
    53 alpha electrons       53 beta electrons
       nuclear repulsion energy       899.3210213161 Hartrees.
 NAtoms=    8 NActive=    8 NUniq=    8 SFac= 7.50D-01 NAtFMM=   80 NAOKFM=F Big=F
 One-electron integrals computed using PRISM.
 NBasis=   180 RedAO= T  NBF=   180
 NBsUse=   180 1.00D-06 NBFU=   180
 Harris functional with IExCor=  402 diagonalized for initial guess.
 ExpMin= 7.10D-03 ExpMax= 3.53D+04 ExpMxC= 5.30D+03 IAcc=3 IRadAn=         5 AccDes= 0.00D+00
 HarFok:  IExCor= 402 AccDes= 0.00D+00 IRadAn=         5 IDoV=1
 ScaDFX=  1.000000  1.000000  1.000000  1.000000
 Initial guess orbital symmetries:
       Occupied  (A) (A) (A) (A) (A) (A) (A) (A) (A) (A) (A) (A)
                 (A) (A) (A) (A) (A) (A) (A) (A) (A) (A) (A) (A)
                 (A) (A) (A) (A) (A) (A) (A) (A) (A) (A) (A) (A)
                 (A) (A) (A) (A) (A) (A) (A) (A) (A) (A) (A) (A)
                 (A) (A) (A) (A) (A)
       Virtual   (A) (A) (A) (A) (A) (A) (A) (A) (A) (A) (A) (A)
                 (A) (A) (A) (A) (A) (A) (A) (A) (A) (A) (A) (A)
                 (A) (A) (A) (A) (A) (A) (A) (A) (A) (A) (A) (A)
                 (A) (A) (A) (A) (A) (A) (A) (A) (A) (A) (A) (A)
                 (A) (A) (A) (A) (A) (A) (A) (A) (A) (A) (A) (A)
                 (A) (A) (A) (A) (A) (A) (A) (A) (A) (A) (A) (A)
                 (A) (A) (A) (A) (A) (A) (A) (A) (A) (A) (A) (A)
                 (A) (A) (A) (A) (A) (A) (A) (A) (A) (A) (A) (A)
                 (A) (A) (A) (A) (A) (A) (A) (A) (A) (A) (A) (A)
                 (A) (A) (A) (A) (A) (A) (A) (A) (A) (A) (A) (A)
                 (A) (A) (A) (A) (A) (A) (A)
 The electronic state of the initial guess is 1-A.
 Requested convergence on RMS density matrix=1.00D-04 within 128 cycles.
 Requested convergence on MAX density matrix=1.00D-02.
 Requested convergence on             energy=1.00D-02.
 No special actions if energy rises.
 SCF Done:  E(RB+HF-LYP) =  -2675.01212854     A.U. after   10 cycles
             Convg  =    0.3243D-04             -V/T =  2.0027
             S**2   =   0.0000

 **********************************************************************

            Population analysis using the SCF density.

 **********************************************************************

 Orbital symmetries:
       Occupied  (A) (A) (A) (A) (A) (A) (A) (A) (A) (A) (A) (A)
                 (A) (A) (A) (A) (A) (A) (A) (A) (A) (A) (A) (A)
                 (A) (A) (A) (A) (A) (A) (A) (A) (A) (A) (A) (A)
                 (A) (A) (A) (A) (A) (A) (A) (A) (A) (A) (A) (A)
                 (A) (A) (A) (A) (A)
       Virtual   (A) (A) (A) (A) (A) (A) (A) (A) (A) (A) (A) (A)
                 (A) (A) (A) (A) (A) (A) (A) (A) (A) (A) (A) (A)
                 (A) (A) (A) (A) (A) (A) (A) (A) (A) (A) (A) (A)
                 (A) (A) (A) (A) (A) (A) (A) (A) (A) (A) (A) (A)
                 (A) (A) (A) (A) (A) (A) (A) (A) (A) (A) (A) (A)
                 (A) (A) (A) (A) (A) (A) (A) (A) (A) (A) (A) (A)
                 (A) (A) (A) (A) (A) (A) (A) (A) (A) (A) (A) (A)
                 (A) (A) (A) (A) (A) (A) (A) (A) (A) (A) (A) (A)
                 (A) (A) (A) (A) (A) (A) (A) (A) (A) (A) (A) (A)
                 (A) (A) (A) (A) (A) (A) (A) (A) (A) (A) (A) (A)
                 (A) (A) (A) (A) (A) (A) (A)
 The electronic state is 1-A.
 Alpha  occ. eigenvalues -- -145.53744-145.53741-145.53714 -77.32320 -19.26066
 Alpha  occ. eigenvalues --  -19.22413 -19.22396 -19.22381 -15.60638 -15.60634
 Alpha  occ. eigenvalues --  -15.60608 -12.73864 -12.73861 -12.73834 -12.73799
 Alpha  occ. eigenvalues --  -12.73796 -12.73770 -12.73744 -12.73741 -12.73714
 Alpha  occ. eigenvalues --   -6.76690  -4.93232  -4.92933  -4.92933  -1.97699
 Alpha  occ. eigenvalues --   -1.97692  -1.97668  -1.25656  -1.25317  -1.25305
 Alpha  occ. eigenvalues --   -1.25265  -1.25029  -1.25012  -1.24990  -1.24912
 Alpha  occ. eigenvalues --   -1.24893  -1.13300  -1.04684  -1.04674  -1.04452
 Alpha  occ. eigenvalues --   -0.63472  -0.55544  -0.53616  -0.53610  -0.47936
 Alpha  occ. eigenvalues --   -0.47928  -0.43440  -0.43436  -0.42225  -0.40372
 Alpha  occ. eigenvalues --   -0.40357  -0.37474  -0.26992
 Alpha virt. eigenvalues --   -0.22186  -0.22162  -0.15991  -0.15978  -0.14864
 Alpha virt. eigenvalues --   -0.12675  -0.11783  -0.11765  -0.11231  -0.08623
 Alpha virt. eigenvalues --   -0.08605  -0.07723  -0.05591  -0.05586  -0.05429
 Alpha virt. eigenvalues --   -0.05328  -0.05326  -0.05026  -0.04312  -0.04311
 Alpha virt. eigenvalues --   -0.03643  -0.03426  -0.03424  -0.03216  -0.02598
 Alpha virt. eigenvalues --   -0.01510  -0.01507  -0.00213   0.00147   0.00172
 Alpha virt. eigenvalues --    0.00326   0.02753   0.03243   0.03259   0.03901
 Alpha virt. eigenvalues --    0.03908   0.04409   0.04424   0.04866   0.05142
 Alpha virt. eigenvalues --    0.06351   0.06372   0.06388   0.06709   0.06739
 Alpha virt. eigenvalues --    0.07572   0.07585   0.07725   0.09377   0.09381
 Alpha virt. eigenvalues --    0.09926   0.12923   0.13786   0.17748   0.17754
 Alpha virt. eigenvalues --    0.18542   0.19355   0.19376   0.20716   0.22496
 Alpha virt. eigenvalues --    0.22523   0.24092   0.24425   0.26208   0.27119
 Alpha virt. eigenvalues --    0.27138   0.29199   0.29211   0.33368   0.36141
 Alpha virt. eigenvalues --    0.36666   0.36679   0.47340   0.47422   0.53781
 Alpha virt. eigenvalues --    0.53786   0.56319   0.60278   0.60325   0.71130
 Alpha virt. eigenvalues --    0.77762   0.77864   0.81136   0.90365   0.97677
 Alpha virt. eigenvalues --    0.97678   1.15128   1.15807   1.15852   1.19225
 Alpha virt. eigenvalues --    1.19247   1.20341   1.22450   1.22529   1.25219
 Alpha virt. eigenvalues --    1.25224   1.25314   1.26623   1.48790   1.48799
 Alpha virt. eigenvalues --    1.52020   1.67597   1.69799   1.69807   1.70939
 Alpha virt. eigenvalues --    1.72432   1.72437   1.72933   1.80874   1.80893
 Alpha virt. eigenvalues --    1.85858   1.86276   1.86352   1.95064   2.02862
 Alpha virt. eigenvalues --    2.02869   2.20383   2.20415   2.33906   2.66361
 Alpha virt. eigenvalues --    2.75945   2.75965   3.46503   4.03212   4.03233
 Alpha virt. eigenvalues --    4.03278   4.15602
          Condensed to atoms (all electrons):
              1          2          3          4          5          6
     1  O    8.977577   0.099537  -0.049320  -0.049489  -0.093468   0.004052
     2  O    0.099537   9.675589   0.099311   0.099186  -0.421493  -0.147595
     3  O   -0.049320   0.099311   8.978272  -0.049762  -0.094877  -0.057997
     4  O   -0.049489   0.099186  -0.049762   8.979241  -0.096031  -0.057592
     5  P   -0.093468  -0.421493  -0.094877  -0.096031  13.488681   0.288752
     6  Ca   0.004052  -0.147595  -0.057997  -0.057592   0.288752  18.706243
     7  Ca  -0.057581  -0.146628   0.004793  -0.057582   0.287902   0.120164
     8  Ca  -0.057604  -0.145577  -0.057167   0.005594   0.286826   0.119246
              7          8
     1  O   -0.057581  -0.057604
     2  O   -0.146628  -0.145577
     3  O    0.004793  -0.057167
     4  O   -0.057582   0.005594
     5  P    0.287902   0.286826
     6  Ca   0.120164   0.119246
     7  Ca  18.704996   0.118146
     8  Ca   0.118146  18.701914
 Mulliken atomic charges:
              1
     1  O   -0.773704
     2  O   -1.112331
     3  O   -0.773252
     4  O   -0.773564
     5  P    1.353709
     6  Ca   1.024728
     7  Ca   1.025791
     8  Ca   1.028623
 Sum of Mulliken charges=   1.00000
 Atomic charges with hydrogens summed into heavy atoms:
              1
     1  O   -0.773704
     2  O   -1.112331
     3  O   -0.773252
     4  O   -0.773564
     5  P    1.353709
     6  Ca   1.024728
     7  Ca   1.025791
     8  Ca   1.028623
 Sum of Mulliken charges=   1.00000
 Electronic spatial extent (au):  <R**2>=  1893.1257
 Charge=     1.0000 electrons
 Dipole moment (field-independent basis, Debye):
    X=     0.0127    Y=     0.0110    Z=   -10.6808  Tot=    10.6808
 Quadrupole moment (field-independent basis, Debye-Ang):
   XX=   -46.4365   YY=   -46.6065   ZZ=   -93.5718
   XY=    -0.0131   XZ=    -0.1089   YZ=     0.1108
 Traceless Quadrupole moment (field-independent basis, Debye-Ang):
   XX=    15.7684   YY=    15.5984   ZZ=   -31.3669
   XY=    -0.0131   XZ=    -0.1089   YZ=     0.1108
 Octapole moment (field-independent basis, Debye-Ang**2):
  XXX=    27.0162  YYY=    45.9003  ZZZ=    14.8150  XYY=   -26.6527
  XXY=   -46.0471  XXZ=   -30.3983  XZZ=     0.2016  YZZ=    -0.2008
  YYZ=   -30.1848  XYZ=     0.0294
 Hexadecapole moment (field-independent basis, Debye-Ang**3):
 XXXX=  -784.1180 YYYY=  -780.5146 ZZZZ=  -697.8509 XXXY=     0.1874
 XXXZ=   -23.1200 YYYX=    -0.4031 YYYZ=   -37.4501 ZZZX=    -0.4339
 ZZZY=     0.3776 XXYY=  -261.0115 XXZZ=  -295.1101 YYZZ=  -294.5452
 XXYZ=    38.6995 YYXZ=    21.9217 ZZXY=    -0.0537
 N-N= 8.993210213161D+02 E-N=-8.118600011218D+03  KE= 2.667703609726D+03
 Merz-Kollman atomic radii used.
 Read replacement radii for each type of atom:
 Rad(20) =   1.188000000000D+00
 Atom Element Radius
    1     8    1.40
    2     8    1.40
    3     8    1.40
    4     8    1.40
    5    15    1.80
    6    20    1.19
    7    20    1.19
    8    20    1.19

 **********************************************************************

            Electrostatic Properties Using The SCF Density

 **********************************************************************

       Atomic Center    1 is at  -0.259517  1.486926  1.363960
       Atomic Center    2 is at   0.000669 -0.000650 -0.687860
       Atomic Center    3 is at  -1.157657 -0.975909  1.361300
       Atomic Center    4 is at   1.424707 -0.522179  1.359710
       Atomic Center    5 is at   0.002358 -0.003451  1.064740
       Atomic Center    6 is at  -0.417479  2.342940 -0.715420
       Atomic Center    7 is at  -1.826571 -1.526878 -0.719530
       Atomic Center    8 is at   2.239001 -0.808750 -0.722450
     671 points will be used for fitting atomic charges
 Fitting point charges to eletrostatic potential
 Charges from ESP fit, RMS=   0.02373 RRMS=   0.13752:
 Charge=   1.00000 Dipole=     0.0019     0.0053   -14.7740 Tot=    14.7740
              1
     1  O   -0.957146
     2  O   -1.547154
     3  O   -0.955090
     4  O   -0.951261
     5  P    2.046118
     6  Ca   1.119509
     7  Ca   1.121966
     8  Ca   1.123059
 -----------------------------------------------------------------

              Electrostatic Properties (Atomic Units)

 -----------------------------------------------------------------
    Center     Electric         -------- Electric Field --------
               Potential          X             Y             Z
 -----------------------------------------------------------------
    1 Atom    -22.241113
    2 Atom    -22.205679
    3 Atom    -22.240556
    4 Atom    -22.241110
    5 Atom    -53.882638
    6 Atom    -80.004942
    7 Atom    -80.004986
    8 Atom    -80.004608
 -----------------------------------------------------------------
 1\1\GINC-N021\SP\RB3LYP\6-31+G(d,p)\Ca3O4P1(1+)\TIMN\12-Jun-2015\0\\# 
 b3lyp/6-31+G(d,p) int=ultrafine pop=(ReadRadii,MK)\\Ca3PO4_200.mol2c_p
 lusQ.z51410.zip.xyz\\1,1\O,0,-0.26012,1.48682,1.36396\O,0,0.00067,-0.0
 0065,-0.68786\O,0,-1.15726,-0.97638,1.3613\O,0,1.42492,-0.5216,1.35971
 \P,0,0.00236,-0.00345,1.06474\Ca,0,-0.41843,2.34277,-0.71542\Ca,0,-1.8
 2595,-1.52762,-0.71953\Ca,0,2.23933,-0.80784,-0.72245\\Version=EM64T-G
 03RevE.01\State=1-A\HF=-2675.0121285\RMSD=3.243e-05\Thermal=0.\Dipole=
 0.0049752,0.004345,-4.2021496\PG=C01 [X(Ca3O4P1)]\\@


 Ideas are like rabbits. You get a couple and learn
 how to handle them, and pretty soon you have a dozen.
                                    -- John Steinbeck
 Job cpu time:  0 days  0 hours  2 minutes  1.9 seconds.
 File lengths (MBytes):  RWF=     32 Int=      0 D2E=      0 Chk=     11 Scr=      1
 Normal termination of Gaussian 03 at Fri Jun 12 17:41:34 2015.
