 Entering Gaussian System, Link 0=/home/timn/tmp/g03.e01/g03
 Input=Ca3PO4_7.mol2cc_plusQ.z51496.zip.xyz.gjf
 Output=Ca3PO4_7.mol2cc_plusQ.z51496.zip.xyz.out
 Initial command:
 /home/timn/tmp/g03.e01/l1.exe /home/timn/tmp/g03.e01/Gau-18452.inp -scrdir=/home/timn/tmp/g03.e01/
 Default is to use a total of   2 processors:
                                2 via shared-memory
                                1 via Linda
 Entering Link 1 = /home/timn/tmp/g03.e01/l1.exe PID=     18453.
  
 Copyright (c) 1988,1990,1992,1993,1995,1998,2003,2004,2007, Gaussian, Inc.
                  All Rights Reserved.
  
 This is the Gaussian(R) 03 program.  It is based on the
 the Gaussian(R) 98 system (copyright 1998, Gaussian, Inc.),
 the Gaussian(R) 94 system (copyright 1995, Gaussian, Inc.),
 the Gaussian 92(TM) system (copyright 1992, Gaussian, Inc.),
 the Gaussian 90(TM) system (copyright 1990, Gaussian, Inc.),
 the Gaussian 88(TM) system (copyright 1988, Gaussian, Inc.),
 the Gaussian 86(TM) system (copyright 1986, Carnegie Mellon
 University), and the Gaussian 82(TM) system (copyright 1983,
 Carnegie Mellon University). Gaussian is a federally registered
 trademark of Gaussian, Inc.
  
 This software contains proprietary and confidential information,
 including trade secrets, belonging to Gaussian, Inc.
  
 This software is provided under written license and may be
 used, copied, transmitted, or stored only in accord with that
 written license.
  
 The following legend is applicable only to US Government
 contracts under FAR:
  
                    RESTRICTED RIGHTS LEGEND
  
 Use, reproduction and disclosure by the US Government is
 subject to restrictions as set forth in subparagraphs (a)
 and (c) of the Commercial Computer Software - Restricted
 Rights clause in FAR 52.227-19.
  
 Gaussian, Inc.
 340 Quinnipiac St., Bldg. 40, Wallingford CT 06492
  
  
 ---------------------------------------------------------------
 Warning -- This program may not be used in any manner that
 competes with the business of Gaussian, Inc. or will provide
 assistance to any competitor of Gaussian, Inc.  The licensee
 of this program is prohibited from giving any competitor of
 Gaussian, Inc. access to this program.  By using this program,
 the user acknowledges that Gaussian, Inc. is engaged in the
 business of creating and licensing software in the field of
 computational chemistry and represents and warrants to the
 licensee that it is not a competitor of Gaussian, Inc. and that
 it will not use this program in any manner prohibited above.
 ---------------------------------------------------------------
  

 Cite this work as:
 Gaussian 03, Revision E.01,
 M. J. Frisch, G. W. Trucks, H. B. Schlegel, G. E. Scuseria, 
 M. A. Robb, J. R. Cheeseman, J. A. Montgomery, Jr., T. Vreven, 
 K. N. Kudin, J. C. Burant, J. M. Millam, S. S. Iyengar, J. Tomasi, 
 V. Barone, B. Mennucci, M. Cossi, G. Scalmani, N. Rega, 
 G. A. Petersson, H. Nakatsuji, M. Hada, M. Ehara, K. Toyota, 
 R. Fukuda, J. Hasegawa, M. Ishida, T. Nakajima, Y. Honda, O. Kitao, 
 H. Nakai, M. Klene, X. Li, J. E. Knox, H. P. Hratchian, J. B. Cross, 
 V. Bakken, C. Adamo, J. Jaramillo, R. Gomperts, R. E. Stratmann, 
 O. Yazyev, A. J. Austin, R. Cammi, C. Pomelli, J. W. Ochterski, 
 P. Y. Ayala, K. Morokuma, G. A. Voth, P. Salvador, J. J. Dannenberg, 
 V. G. Zakrzewski, S. Dapprich, A. D. Daniels, M. C. Strain, 
 O. Farkas, D. K. Malick, A. D. Rabuck, K. Raghavachari, 
 J. B. Foresman, J. V. Ortiz, Q. Cui, A. G. Baboul, S. Clifford, 
 J. Cioslowski, B. B. Stefanov, G. Liu, A. Liashenko, P. Piskorz, 
 I. Komaromi, R. L. Martin, D. J. Fox, T. Keith, M. A. Al-Laham, 
 C. Y. Peng, A. Nanayakkara, M. Challacombe, P. M. W. Gill, 
 B. Johnson, W. Chen, M. W. Wong, C. Gonzalez, and J. A. Pople, 
 Gaussian, Inc., Wallingford CT, 2004.
 
 ******************************************
 Gaussian 03:  EM64T-G03RevE.01 11-Sep-2007
                12-Jun-2015 
 ******************************************
 %nproc=2
 Will use up to    2 processors via shared memory.
 Default route:  MP2=Direct MaxDisk=2000MB
 ----------------------------------------------------
 # b3lyp/6-31+G(d,p) int=ultrafine pop=(ReadRadii,MK)
 ----------------------------------------------------

 Warning!  SCF SP cutoffs with diffuse functions may be unreliable.
 Consider SCF=Tight

 1/38=1/1;
 2/17=6,18=5,40=1/2;
 3/5=1,6=6,7=111,11=2,16=1,25=1,30=1,74=-5,75=5/1,2,3;
 4//1;
 5/5=2,32=1,38=5/2;
 6/7=2,8=2,9=2,10=2,15=8,20=101,28=1/1,2;
 99/5=1,9=1/99;
 ------------------------------------
 Ca3PO4_7.mol2cc_plusQ.z51496.zip.xyz
 ------------------------------------
 Symbolic Z-matrix:
 Charge =  1 Multiplicity = 1
 O                    -2.35357   1.14396   0.00169 
 O                     1.04463   0.1843    0.78179 
 O                    -2.05797  -1.36915  -0.00139 
 O                     1.04478   0.18387  -0.78139 
 P                    -3.08723  -0.21848   0.00059 
 Ca                    3.29544   0.0215    0.00045 
 Ca                   -0.22939   1.95257  -0.00099 
 Ca                    0.17821  -1.8674   -0.00018 
 
                          Input orientation:                          
 ---------------------------------------------------------------------
 Center     Atomic     Atomic              Coordinates (Angstroms)
 Number     Number      Type              X           Y           Z
 ---------------------------------------------------------------------
    1          8             0       -2.353570    1.143960    0.001690
    2          8             0        1.044630    0.184300    0.781790
    3          8             0       -2.057970   -1.369150   -0.001390
    4          8             0        1.044780    0.183870   -0.781390
    5         15             0       -3.087230   -0.218480    0.000590
    6         20             0        3.295440    0.021500    0.000450
    7         20             0       -0.229390    1.952570   -0.000990
    8         20             0        0.178210   -1.867400   -0.000180
 ---------------------------------------------------------------------
                    Distance matrix (angstroms):
                    1          2          3          4          5
     1  O    0.000000
     2  O    3.616250   0.000000
     3  O    2.530437   3.557064   0.000000
     4  O    3.617149   1.563180   3.556308   0.000000
     5  P    1.547418   4.224307   1.543833   4.224557   0.000000
     6  Ca   5.759447   2.388125   5.531086   2.388118   6.387180
     7  Ca   2.272883   2.315740   3.791771   2.315347   3.588971
     8  Ca   3.934235   2.360431   2.291016   2.359860   3.658147
                    6          7          8
     6  Ca   0.000000
     7  Ca   4.019137   0.000000
     8  Ca   3.644869   3.841654   0.000000
 Stoichiometry    Ca3O4P(1+)
 Framework group  C1[X(Ca3O4P)]
 Deg. of freedom    18
 Full point group                 C1
 Largest Abelian subgroup         C1      NOp   1
 Largest concise Abelian subgroup C1      NOp   1
                         Standard orientation:                         
 ---------------------------------------------------------------------
 Center     Atomic     Atomic              Coordinates (Angstroms)
 Number     Number      Type              X           Y           Z
 ---------------------------------------------------------------------
    1          8             0       -2.353567    1.143960    0.001690
    2          8             0        1.044633    0.184300    0.781790
    3          8             0       -2.057967   -1.369150   -0.001390
    4          8             0        1.044783    0.183870   -0.781390
    5         15             0       -3.087227   -0.218480    0.000590
    6         20             0        3.295443    0.021500    0.000450
    7         20             0       -0.229387    1.952570   -0.000990
    8         20             0        0.178213   -1.867400   -0.000180
 ---------------------------------------------------------------------
 Rotational constants (GHZ):      1.3855381      0.5357406      0.3982509
 Standard basis: 6-31+G(d,p) (6D, 7F)
 There are   180 symmetry adapted basis functions of A   symmetry.
 Integral buffers will be    131072 words long.
 Raffenetti 2 integral format.
 Two-electron integral symmetry is turned on.
   180 basis functions,   424 primitive gaussians,   180 cartesian basis functions
    53 alpha electrons       53 beta electrons
       nuclear repulsion energy       827.2331806845 Hartrees.
 NAtoms=    8 NActive=    8 NUniq=    8 SFac= 7.50D-01 NAtFMM=   80 NAOKFM=F Big=F
 One-electron integrals computed using PRISM.
 NBasis=   180 RedAO= T  NBF=   180
 NBsUse=   180 1.00D-06 NBFU=   180
 Harris functional with IExCor=  402 diagonalized for initial guess.
 ExpMin= 7.10D-03 ExpMax= 3.53D+04 ExpMxC= 5.30D+03 IAcc=3 IRadAn=         5 AccDes= 0.00D+00
 HarFok:  IExCor= 402 AccDes= 0.00D+00 IRadAn=         5 IDoV=1
 ScaDFX=  1.000000  1.000000  1.000000  1.000000
 Initial guess orbital symmetries:
       Occupied  (A) (A) (A) (A) (A) (A) (A) (A) (A) (A) (A) (A)
                 (A) (A) (A) (A) (A) (A) (A) (A) (A) (A) (A) (A)
                 (A) (A) (A) (A) (A) (A) (A) (A) (A) (A) (A) (A)
                 (A) (A) (A) (A) (A) (A) (A) (A) (A) (A) (A) (A)
                 (A) (A) (A) (A) (A)
       Virtual   (A) (A) (A) (A) (A) (A) (A) (A) (A) (A) (A) (A)
                 (A) (A) (A) (A) (A) (A) (A) (A) (A) (A) (A) (A)
                 (A) (A) (A) (A) (A) (A) (A) (A) (A) (A) (A) (A)
                 (A) (A) (A) (A) (A) (A) (A) (A) (A) (A) (A) (A)
                 (A) (A) (A) (A) (A) (A) (A) (A) (A) (A) (A) (A)
                 (A) (A) (A) (A) (A) (A) (A) (A) (A) (A) (A) (A)
                 (A) (A) (A) (A) (A) (A) (A) (A) (A) (A) (A) (A)
                 (A) (A) (A) (A) (A) (A) (A) (A) (A) (A) (A) (A)
                 (A) (A) (A) (A) (A) (A) (A) (A) (A) (A) (A) (A)
                 (A) (A) (A) (A) (A) (A) (A) (A) (A) (A) (A) (A)
                 (A) (A) (A) (A) (A) (A) (A)
 The electronic state of the initial guess is 1-A.
 Requested convergence on RMS density matrix=1.00D-04 within 128 cycles.
 Requested convergence on MAX density matrix=1.00D-02.
 Requested convergence on             energy=1.00D-02.
 No special actions if energy rises.
 EnCoef did     5 forward-backward iterations
 SCF Done:  E(RB+HF-LYP) =  -2674.91819227     A.U. after   13 cycles
             Convg  =    0.1713D-04             -V/T =  2.0027
             S**2   =   0.0000

 **********************************************************************

            Population analysis using the SCF density.

 **********************************************************************

 Orbital symmetries:
       Occupied  (A) (A) (A) (A) (A) (A) (A) (A) (A) (A) (A) (A)
                 (A) (A) (A) (A) (A) (A) (A) (A) (A) (A) (A) (A)
                 (A) (A) (A) (A) (A) (A) (A) (A) (A) (A) (A) (A)
                 (A) (A) (A) (A) (A) (A) (A) (A) (A) (A) (A) (A)
                 (A) (A) (A) (A) (A)
       Virtual   (A) (A) (A) (A) (A) (A) (A) (A) (A) (A) (A) (A)
                 (A) (A) (A) (A) (A) (A) (A) (A) (A) (A) (A) (A)
                 (A) (A) (A) (A) (A) (A) (A) (A) (A) (A) (A) (A)
                 (A) (A) (A) (A) (A) (A) (A) (A) (A) (A) (A) (A)
                 (A) (A) (A) (A) (A) (A) (A) (A) (A) (A) (A) (A)
                 (A) (A) (A) (A) (A) (A) (A) (A) (A) (A) (A) (A)
                 (A) (A) (A) (A) (A) (A) (A) (A) (A) (A) (A) (A)
                 (A) (A) (A) (A) (A) (A) (A) (A) (A) (A) (A) (A)
                 (A) (A) (A) (A) (A) (A) (A) (A) (A) (A) (A) (A)
                 (A) (A) (A) (A) (A) (A) (A) (A) (A) (A) (A) (A)
                 (A) (A) (A) (A) (A) (A) (A)
 The electronic state is 1-A.
 Alpha  occ. eigenvalues -- -145.53249-145.51962-145.50880 -77.29672 -19.29926
 Alpha  occ. eigenvalues --  -19.29897 -19.27465 -19.27374 -15.60124 -15.58858
 Alpha  occ. eigenvalues --  -15.57848 -12.73342 -12.73307 -12.73238 -12.72076
 Alpha  occ. eigenvalues --  -12.72024 -12.71983 -12.71041 -12.71012 -12.70949
 Alpha  occ. eigenvalues --   -6.75175  -4.91618  -4.91400  -4.90949  -1.97243
 Alpha  occ. eigenvalues --   -1.96001  -1.94928  -1.25613  -1.24829  -1.24746
 Alpha  occ. eigenvalues --   -1.23730  -1.23593  -1.23456  -1.22371  -1.22321
 Alpha  occ. eigenvalues --   -1.22282  -1.13589  -1.12931  -1.08060  -0.93690
 Alpha  occ. eigenvalues --   -0.67264  -0.56834  -0.53263  -0.52931  -0.52440
 Alpha  occ. eigenvalues --   -0.52212  -0.51593  -0.45276  -0.43338  -0.40614
 Alpha  occ. eigenvalues --   -0.40466  -0.39822  -0.25623
 Alpha virt. eigenvalues --   -0.20922  -0.19468  -0.19417  -0.17024  -0.14329
 Alpha virt. eigenvalues --   -0.12188  -0.12123  -0.11700  -0.10939  -0.10723
 Alpha virt. eigenvalues --   -0.08668  -0.08076  -0.07727  -0.07171  -0.06155
 Alpha virt. eigenvalues --   -0.05858  -0.05539  -0.05452  -0.05183  -0.04760
 Alpha virt. eigenvalues --   -0.04563  -0.04502  -0.04414  -0.04019  -0.03409
 Alpha virt. eigenvalues --   -0.03223  -0.03089  -0.03034  -0.01940  -0.00313
 Alpha virt. eigenvalues --    0.00566   0.01497   0.01675   0.02408   0.02704
 Alpha virt. eigenvalues --    0.03591   0.03594   0.03865   0.04579   0.05007
 Alpha virt. eigenvalues --    0.05135   0.05914   0.05960   0.06639   0.06896
 Alpha virt. eigenvalues --    0.06901   0.07349   0.07786   0.08098   0.08882
 Alpha virt. eigenvalues --    0.11362   0.12491   0.12748   0.14658   0.14790
 Alpha virt. eigenvalues --    0.15127   0.16016   0.17353   0.18315   0.20173
 Alpha virt. eigenvalues --    0.20979   0.23238   0.25328   0.27437   0.28271
 Alpha virt. eigenvalues --    0.29085   0.30090   0.32248   0.33355   0.33420
 Alpha virt. eigenvalues --    0.35145   0.36669   0.37421   0.45813   0.46335
 Alpha virt. eigenvalues --    0.46571   0.48797   0.56486   0.57080   0.58316
 Alpha virt. eigenvalues --    0.62348   0.68461   0.76800   0.87272   0.90912
 Alpha virt. eigenvalues --    0.95790   1.05075   1.05842   1.07878   1.09321
 Alpha virt. eigenvalues --    1.10306   1.11205   1.13639   1.16576   1.19185
 Alpha virt. eigenvalues --    1.21534   1.25251   1.28057   1.38905   1.42030
 Alpha virt. eigenvalues --    1.43657   1.47797   1.50248   1.57808   1.66606
 Alpha virt. eigenvalues --    1.67757   1.68539   1.71816   1.73860   1.77718
 Alpha virt. eigenvalues --    1.79210   1.80375   1.81143   1.86131   1.86766
 Alpha virt. eigenvalues --    1.87591   2.09992   2.13307   2.13906   2.53975
 Alpha virt. eigenvalues --    2.68496   2.97651   3.39364   3.84912   3.91228
 Alpha virt. eigenvalues --    3.99674   4.04042
          Condensed to atoms (all electrons):
              1          2          3          4          5          6
     1  O    8.825428   0.007321  -0.070531   0.007274  -0.112959   0.003096
     2  O    0.007321   8.711082   0.009030   0.012812  -0.016523  -0.099657
     3  O   -0.070531   0.009030   8.840296   0.009057  -0.122577   0.002102
     4  O    0.007274   0.012812   0.009057   8.710596  -0.016535  -0.099737
     5  P   -0.112959  -0.016523  -0.122577  -0.016535  14.599667   0.003555
     6  Ca   0.003096  -0.099657   0.002102  -0.099737   0.003555  19.082489
     7  Ca   0.052576   0.005399  -0.002764   0.005431   0.003461   0.128611
     8  Ca  -0.007576  -0.062269   0.030604  -0.062352   0.036061   0.271964
              7          8
     1  O    0.052576  -0.007576
     2  O    0.005399  -0.062269
     3  O   -0.002764   0.030604
     4  O    0.005431  -0.062352
     5  P    0.003461   0.036061
     6  Ca   0.128611   0.271964
     7  Ca  18.484357   0.091671
     8  Ca   0.091671  18.732995
 Mulliken atomic charges:
              1
     1  O   -0.704628
     2  O   -0.567196
     3  O   -0.695218
     4  O   -0.566546
     5  P    0.625851
     6  Ca   0.707576
     7  Ca   1.231257
     8  Ca   0.968903
 Sum of Mulliken charges=   1.00000
 Atomic charges with hydrogens summed into heavy atoms:
              1
     1  O   -0.704628
     2  O   -0.567196
     3  O   -0.695218
     4  O   -0.566546
     5  P    0.625851
     6  Ca   0.707576
     7  Ca   1.231257
     8  Ca   0.968903
 Sum of Mulliken charges=   1.00000
 Electronic spatial extent (au):  <R**2>=  2436.3384
 Charge=     1.0000 electrons
 Dipole moment (field-independent basis, Debye):
    X=     3.4410    Y=     2.1419    Z=    -0.0079  Tot=     4.0532
 Quadrupole moment (field-independent basis, Debye-Ang):
   XX=   -68.7827   YY=   -52.8700   ZZ=   -81.2006
   XY=     0.7920   XZ=     0.0061   YZ=    -0.0212
 Traceless Quadrupole moment (field-independent basis, Debye-Ang):
   XX=    -1.1649   YY=    14.7478   ZZ=   -13.5828
   XY=     0.7920   XZ=     0.0061   YZ=    -0.0212
 Octapole moment (field-independent basis, Debye-Ang**2):
  XXX=    33.9650  YYY=    28.3775  ZZZ=    -0.0139  XYY=   -20.9532
  XXY=    10.3225  XXZ=     0.0068  XZZ=   -23.5035  YZZ=     3.5054
  YYZ=    -0.0280  XYZ=     0.0399
 Hexadecapole moment (field-independent basis, Debye-Ang**3):
 XXXX= -2208.7629 YYYY=  -749.8804 ZZZZ=  -190.0779 XXXY=    58.5991
 XXXZ=     0.1000 YYYX=     1.7550 YYYZ=    -0.0418 ZZZX=     0.0049
 ZZZY=    -0.0047 XXYY=  -648.8018 XXZZ=  -443.3082 YYZZ=  -175.0185
 XXYZ=    -0.0591 YYXZ=     0.0111 ZZXY=     4.1825
 N-N= 8.272331806845D+02 E-N=-7.974385211821D+03  KE= 2.667662771286D+03
 Merz-Kollman atomic radii used.
 Read replacement radii for each type of atom:
 Rad(20) =   1.188000000000D+00
 Atom Element Radius
    1     8    1.40
    2     8    1.40
    3     8    1.40
    4     8    1.40
    5    15    1.80
    6    20    1.19
    7    20    1.19
    8    20    1.19

 **********************************************************************

            Electrostatic Properties Using The SCF Density

 **********************************************************************

       Atomic Center    1 is at  -2.353567  1.143960  0.001690
       Atomic Center    2 is at   1.044633  0.184300  0.781790
       Atomic Center    3 is at  -2.057967 -1.369150 -0.001390
       Atomic Center    4 is at   1.044783  0.183870 -0.781390
       Atomic Center    5 is at  -3.087227 -0.218480  0.000590
       Atomic Center    6 is at   3.295443  0.021500  0.000450
       Atomic Center    7 is at  -0.229387  1.952570 -0.000990
       Atomic Center    8 is at   0.178213 -1.867400 -0.000180
     780 points will be used for fitting atomic charges
 Fitting point charges to eletrostatic potential
 Charges from ESP fit, RMS=   0.02250 RRMS=   0.14375:
 Charge=   1.00000 Dipole=     8.1246     1.1451    -0.0102 Tot=     8.2049
              1
     1  O   -0.395810
     2  O   -0.664407
     3  O   -0.274653
     4  O   -0.663874
     5  P    0.076192
     6  Ca   0.584725
     7  Ca   1.290430
     8  Ca   1.047398
 -----------------------------------------------------------------

              Electrostatic Properties (Atomic Units)

 -----------------------------------------------------------------
    Center     Electric         -------- Electric Field --------
               Potential          X             Y             Z
 -----------------------------------------------------------------
    1 Atom    -22.189171
    2 Atom    -22.172905
    3 Atom    -22.190237
    4 Atom    -22.172027
    5 Atom    -53.920495
    6 Atom    -80.035396
    7 Atom    -80.008673
    8 Atom    -80.021764
 -----------------------------------------------------------------
 1\1\GINC-N027\SP\RB3LYP\6-31+G(d,p)\Ca3O4P1(1+)\TIMN\12-Jun-2015\0\\# 
 b3lyp/6-31+G(d,p) int=ultrafine pop=(ReadRadii,MK)\\Ca3PO4_7.mol2cc_pl
 usQ.z51496.zip.xyz\\1,1\O,0,-2.35357,1.14396,0.00169\O,0,1.04463,0.184
 3,0.78179\O,0,-2.05797,-1.36915,-0.00139\O,0,1.04478,0.18387,-0.78139\
 P,0,-3.08723,-0.21848,0.00059\Ca,0,3.29544,0.0215,0.00045\Ca,0,-0.2293
 9,1.95257,-0.00099\Ca,0,0.17821,-1.8674,-0.00018\\Version=EM64T-G03Rev
 E.01\State=1-A\HF=-2674.9181923\RMSD=1.713e-05\Thermal=0.\Dipole=1.353
 7818,0.842706,-0.0030959\PG=C01 [X(Ca3O4P1)]\\@


 IN THE FIGHT BETWEEN YOU AND THE WORLD, BACK THE WORLD

                                        -- FRANZ KAFKA
 Job cpu time:  0 days  0 hours  2 minutes 22.2 seconds.
 File lengths (MBytes):  RWF=     32 Int=      0 D2E=      0 Chk=     11 Scr=      1
 Normal termination of Gaussian 03 at Fri Jun 12 17:46:10 2015.
