 Entering Gaussian System, Link 0=/home/timn/tmp/g03.e01/g03
 Input=Ca3PO4_138.mol2cc_plusQ.z51141.zip.xyz.gjf
 Output=Ca3PO4_138.mol2cc_plusQ.z51141.zip.xyz.out
 Initial command:
 /home/timn/tmp/g03.e01/l1.exe /home/timn/tmp/g03.e01/Gau-17935.inp -scrdir=/home/timn/tmp/g03.e01/
 Default is to use a total of   2 processors:
                                2 via shared-memory
                                1 via Linda
 Entering Link 1 = /home/timn/tmp/g03.e01/l1.exe PID=     17936.
  
 Copyright (c) 1988,1990,1992,1993,1995,1998,2003,2004,2007, Gaussian, Inc.
                  All Rights Reserved.
  
 This is the Gaussian(R) 03 program.  It is based on the
 the Gaussian(R) 98 system (copyright 1998, Gaussian, Inc.),
 the Gaussian(R) 94 system (copyright 1995, Gaussian, Inc.),
 the Gaussian 92(TM) system (copyright 1992, Gaussian, Inc.),
 the Gaussian 90(TM) system (copyright 1990, Gaussian, Inc.),
 the Gaussian 88(TM) system (copyright 1988, Gaussian, Inc.),
 the Gaussian 86(TM) system (copyright 1986, Carnegie Mellon
 University), and the Gaussian 82(TM) system (copyright 1983,
 Carnegie Mellon University). Gaussian is a federally registered
 trademark of Gaussian, Inc.
  
 This software contains proprietary and confidential information,
 including trade secrets, belonging to Gaussian, Inc.
  
 This software is provided under written license and may be
 used, copied, transmitted, or stored only in accord with that
 written license.
  
 The following legend is applicable only to US Government
 contracts under FAR:
  
                    RESTRICTED RIGHTS LEGEND
  
 Use, reproduction and disclosure by the US Government is
 subject to restrictions as set forth in subparagraphs (a)
 and (c) of the Commercial Computer Software - Restricted
 Rights clause in FAR 52.227-19.
  
 Gaussian, Inc.
 340 Quinnipiac St., Bldg. 40, Wallingford CT 06492
  
  
 ---------------------------------------------------------------
 Warning -- This program may not be used in any manner that
 competes with the business of Gaussian, Inc. or will provide
 assistance to any competitor of Gaussian, Inc.  The licensee
 of this program is prohibited from giving any competitor of
 Gaussian, Inc. access to this program.  By using this program,
 the user acknowledges that Gaussian, Inc. is engaged in the
 business of creating and licensing software in the field of
 computational chemistry and represents and warrants to the
 licensee that it is not a competitor of Gaussian, Inc. and that
 it will not use this program in any manner prohibited above.
 ---------------------------------------------------------------
  

 Cite this work as:
 Gaussian 03, Revision E.01,
 M. J. Frisch, G. W. Trucks, H. B. Schlegel, G. E. Scuseria, 
 M. A. Robb, J. R. Cheeseman, J. A. Montgomery, Jr., T. Vreven, 
 K. N. Kudin, J. C. Burant, J. M. Millam, S. S. Iyengar, J. Tomasi, 
 V. Barone, B. Mennucci, M. Cossi, G. Scalmani, N. Rega, 
 G. A. Petersson, H. Nakatsuji, M. Hada, M. Ehara, K. Toyota, 
 R. Fukuda, J. Hasegawa, M. Ishida, T. Nakajima, Y. Honda, O. Kitao, 
 H. Nakai, M. Klene, X. Li, J. E. Knox, H. P. Hratchian, J. B. Cross, 
 V. Bakken, C. Adamo, J. Jaramillo, R. Gomperts, R. E. Stratmann, 
 O. Yazyev, A. J. Austin, R. Cammi, C. Pomelli, J. W. Ochterski, 
 P. Y. Ayala, K. Morokuma, G. A. Voth, P. Salvador, J. J. Dannenberg, 
 V. G. Zakrzewski, S. Dapprich, A. D. Daniels, M. C. Strain, 
 O. Farkas, D. K. Malick, A. D. Rabuck, K. Raghavachari, 
 J. B. Foresman, J. V. Ortiz, Q. Cui, A. G. Baboul, S. Clifford, 
 J. Cioslowski, B. B. Stefanov, G. Liu, A. Liashenko, P. Piskorz, 
 I. Komaromi, R. L. Martin, D. J. Fox, T. Keith, M. A. Al-Laham, 
 C. Y. Peng, A. Nanayakkara, M. Challacombe, P. M. W. Gill, 
 B. Johnson, W. Chen, M. W. Wong, C. Gonzalez, and J. A. Pople, 
 Gaussian, Inc., Wallingford CT, 2004.
 
 ******************************************
 Gaussian 03:  EM64T-G03RevE.01 11-Sep-2007
                12-Jun-2015 
 ******************************************
 %nproc=2
 Will use up to    2 processors via shared memory.
 Default route:  MP2=Direct MaxDisk=2000MB
 ----------------------------------------------------
 # b3lyp/6-31+G(d,p) int=ultrafine pop=(ReadRadii,MK)
 ----------------------------------------------------

 Warning!  SCF SP cutoffs with diffuse functions may be unreliable.
 Consider SCF=Tight

 1/38=1/1;
 2/17=6,18=5,40=1/2;
 3/5=1,6=6,7=111,11=2,16=1,25=1,30=1,74=-5,75=5/1,2,3;
 4//1;
 5/5=2,32=1,38=5/2;
 6/7=2,8=2,9=2,10=2,15=8,20=101,28=1/1,2;
 99/5=1,9=1/99;
 --------------------------------------
 Ca3PO4_138.mol2cc_plusQ.z51141.zip.xyz
 --------------------------------------
 Symbolic Z-matrix:
 Charge =  1 Multiplicity = 1
 O                     0.05409  -0.83654  -0.77859 
 O                     0.15697  -1.83182   0.41398 
 O                     2.33169   1.2184   -0.50673 
 O                     1.93631   1.06694   0.97166 
 P                    -2.885     1.30823   0.24886 
 Ca                   -2.00107  -1.49364  -0.05922 
 Ca                    0.11908   1.63386  -0.23818 
 Ca                    2.25412  -0.96819   0.07063 
 
                          Input orientation:                          
 ---------------------------------------------------------------------
 Center     Atomic     Atomic              Coordinates (Angstroms)
 Number     Number      Type              X           Y           Z
 ---------------------------------------------------------------------
    1          8             0        0.054090   -0.836540   -0.778590
    2          8             0        0.156970   -1.831820    0.413980
    3          8             0        2.331690    1.218400   -0.506730
    4          8             0        1.936310    1.066940    0.971660
    5         15             0       -2.885000    1.308230    0.248860
    6         20             0       -2.001070   -1.493640   -0.059220
    7         20             0        0.119080    1.633860   -0.238180
    8         20             0        2.254120   -0.968190    0.070630
 ---------------------------------------------------------------------
                    Distance matrix (angstroms):
                    1          2          3          4          5
     1  O    0.000000
     2  O    1.556724   0.000000
     3  O    3.079634   3.857584   0.000000
     4  O    3.198338   3.446718   1.537824   0.000000
     5  P    3.780733   4.375015   5.271892   4.881157   0.000000
     6  Ca   2.274413   2.235044   5.131105   4.808560   2.954102
     7  Ca   2.529653   3.526710   2.267238   2.255535   3.060676
     8  Ca   2.361914   2.293858   2.262860   2.248247   5.623558
                    6          7          8
     6  Ca   0.000000
     7  Ca   3.782634   0.000000
     8  Ca   4.289476   3.380003   0.000000
 Stoichiometry    Ca3O4P(1+)
 Framework group  C1[X(Ca3O4P)]
 Deg. of freedom    18
 Full point group                 C1
 Largest Abelian subgroup         C1      NOp   1
 Largest concise Abelian subgroup C1      NOp   1
                         Standard orientation:                         
 ---------------------------------------------------------------------
 Center     Atomic     Atomic              Coordinates (Angstroms)
 Number     Number      Type              X           Y           Z
 ---------------------------------------------------------------------
    1          8             0        0.054092   -0.836539   -0.778591
    2          8             0        0.156976   -1.831818    0.413979
    3          8             0        2.331685    1.218409   -0.506731
    4          8             0        1.936305    1.066948    0.971659
    5         15             0       -2.885005    1.308221    0.248859
    6         20             0       -2.001065   -1.493646   -0.059221
    7         20             0        0.119073    1.633861   -0.238181
    8         20             0        2.254123   -0.968181    0.070629
 ---------------------------------------------------------------------
 Rotational constants (GHZ):      1.1773577      0.6278138      0.4349620
 Standard basis: 6-31+G(d,p) (6D, 7F)
 There are   180 symmetry adapted basis functions of A   symmetry.
 Integral buffers will be    131072 words long.
 Raffenetti 2 integral format.
 Two-electron integral symmetry is turned on.
   180 basis functions,   424 primitive gaussians,   180 cartesian basis functions
    53 alpha electrons       53 beta electrons
       nuclear repulsion energy       831.5158780484 Hartrees.
 NAtoms=    8 NActive=    8 NUniq=    8 SFac= 7.50D-01 NAtFMM=   80 NAOKFM=F Big=F
 One-electron integrals computed using PRISM.
 NBasis=   180 RedAO= T  NBF=   180
 NBsUse=   180 1.00D-06 NBFU=   180
 Harris functional with IExCor=  402 diagonalized for initial guess.
 ExpMin= 7.10D-03 ExpMax= 3.53D+04 ExpMxC= 5.30D+03 IAcc=3 IRadAn=         5 AccDes= 0.00D+00
 HarFok:  IExCor= 402 AccDes= 0.00D+00 IRadAn=         5 IDoV=1
 ScaDFX=  1.000000  1.000000  1.000000  1.000000
 Initial guess orbital symmetries:
       Occupied  (A) (A) (A) (A) (A) (A) (A) (A) (A) (A) (A) (A)
                 (A) (A) (A) (A) (A) (A) (A) (A) (A) (A) (A) (A)
                 (A) (A) (A) (A) (A) (A) (A) (A) (A) (A) (A) (A)
                 (A) (A) (A) (A) (A) (A) (A) (A) (A) (A) (A) (A)
                 (A) (A) (A) (A) (A)
       Virtual   (A) (A) (A) (A) (A) (A) (A) (A) (A) (A) (A) (A)
                 (A) (A) (A) (A) (A) (A) (A) (A) (A) (A) (A) (A)
                 (A) (A) (A) (A) (A) (A) (A) (A) (A) (A) (A) (A)
                 (A) (A) (A) (A) (A) (A) (A) (A) (A) (A) (A) (A)
                 (A) (A) (A) (A) (A) (A) (A) (A) (A) (A) (A) (A)
                 (A) (A) (A) (A) (A) (A) (A) (A) (A) (A) (A) (A)
                 (A) (A) (A) (A) (A) (A) (A) (A) (A) (A) (A) (A)
                 (A) (A) (A) (A) (A) (A) (A) (A) (A) (A) (A) (A)
                 (A) (A) (A) (A) (A) (A) (A) (A) (A) (A) (A) (A)
                 (A) (A) (A) (A) (A) (A) (A) (A) (A) (A) (A) (A)
                 (A) (A) (A) (A) (A) (A) (A)
 The electronic state of the initial guess is 1-A.
 Requested convergence on RMS density matrix=1.00D-04 within 128 cycles.
 Requested convergence on MAX density matrix=1.00D-02.
 Requested convergence on             energy=1.00D-02.
 No special actions if energy rises.
 Rare condition: small coef for last iteration:  0.000D+00
 EnCoef did   100 forward-backward iterations
 EnCoef did   100 forward-backward iterations
 EnCoef did     3 forward-backward iterations
 EnCoef did    18 forward-backward iterations
 Rare condition: small coef for last iteration:  0.000D+00
 SCF Done:  E(RB+HF-LYP) =  -2674.71426406     A.U. after   18 cycles
             Convg  =    0.6977D-04             -V/T =  2.0027
             S**2   =   0.0000

 **********************************************************************

            Population analysis using the SCF density.

 **********************************************************************

 Orbital symmetries:
       Occupied  (A) (A) (A) (A) (A) (A) (A) (A) (A) (A) (A) (A)
                 (A) (A) (A) (A) (A) (A) (A) (A) (A) (A) (A) (A)
                 (A) (A) (A) (A) (A) (A) (A) (A) (A) (A) (A) (A)
                 (A) (A) (A) (A) (A) (A) (A) (A) (A) (A) (A) (A)
                 (A) (A) (A) (A) (A)
       Virtual   (A) (A) (A) (A) (A) (A) (A) (A) (A) (A) (A) (A)
                 (A) (A) (A) (A) (A) (A) (A) (A) (A) (A) (A) (A)
                 (A) (A) (A) (A) (A) (A) (A) (A) (A) (A) (A) (A)
                 (A) (A) (A) (A) (A) (A) (A) (A) (A) (A) (A) (A)
                 (A) (A) (A) (A) (A) (A) (A) (A) (A) (A) (A) (A)
                 (A) (A) (A) (A) (A) (A) (A) (A) (A) (A) (A) (A)
                 (A) (A) (A) (A) (A) (A) (A) (A) (A) (A) (A) (A)
                 (A) (A) (A) (A) (A) (A) (A) (A) (A) (A) (A) (A)
                 (A) (A) (A) (A) (A) (A) (A) (A) (A) (A) (A) (A)
                 (A) (A) (A) (A) (A) (A) (A) (A) (A) (A) (A) (A)
                 (A) (A) (A) (A) (A) (A) (A)
 The electronic state is 1-A.
 Alpha  occ. eigenvalues -- -145.53397-145.49121-145.48613 -77.20720 -19.27003
 Alpha  occ. eigenvalues --  -19.26856 -19.22941 -19.22906 -15.60328 -15.55980
 Alpha  occ. eigenvalues --  -15.55545 -12.73561 -12.73511 -12.73405 -12.69190
 Alpha  occ. eigenvalues --  -12.69187 -12.69084 -12.68770 -12.68759 -12.68612
 Alpha  occ. eigenvalues --   -6.67452  -4.84565  -4.83034  -4.82938  -1.97522
 Alpha  occ. eigenvalues --   -1.93229  -1.92843  -1.25435  -1.25192  -1.24670
 Alpha  occ. eigenvalues --   -1.21932  -1.21132  -1.20742  -1.20551  -1.20376
 Alpha  occ. eigenvalues --   -1.19892  -1.09978  -1.06340  -0.90674  -0.85968
 Alpha  occ. eigenvalues --   -0.65482  -0.51040  -0.49835  -0.48112  -0.46438
 Alpha  occ. eigenvalues --   -0.45091  -0.43495  -0.38511  -0.35353  -0.34332
 Alpha  occ. eigenvalues --   -0.33345  -0.32968  -0.30913
 Alpha virt. eigenvalues --   -0.28634  -0.20436  -0.17457  -0.16213  -0.14071
 Alpha virt. eigenvalues --   -0.11689  -0.11157  -0.10371  -0.09614  -0.09149
 Alpha virt. eigenvalues --   -0.08015  -0.07054  -0.06490  -0.06116  -0.05792
 Alpha virt. eigenvalues --   -0.05389  -0.05120  -0.04814  -0.04455  -0.04294
 Alpha virt. eigenvalues --   -0.04127  -0.03999  -0.03819  -0.03310  -0.03143
 Alpha virt. eigenvalues --   -0.02700  -0.02149  -0.01392  -0.01272   0.00327
 Alpha virt. eigenvalues --    0.00911   0.01740   0.01931   0.02867   0.03310
 Alpha virt. eigenvalues --    0.04300   0.04674   0.05477   0.05776   0.06187
 Alpha virt. eigenvalues --    0.06575   0.07165   0.08111   0.08257   0.08467
 Alpha virt. eigenvalues --    0.08694   0.09525   0.10074   0.11117   0.11812
 Alpha virt. eigenvalues --    0.12300   0.14575   0.14976   0.16713   0.17002
 Alpha virt. eigenvalues --    0.17408   0.17781   0.19242   0.21002   0.22325
 Alpha virt. eigenvalues --    0.23962   0.24444   0.27425   0.29742   0.30409
 Alpha virt. eigenvalues --    0.32520   0.33352   0.35285   0.35640   0.36978
 Alpha virt. eigenvalues --    0.38383   0.39038   0.40217   0.42371   0.47014
 Alpha virt. eigenvalues --    0.47818   0.51110   0.57858   0.58287   0.58679
 Alpha virt. eigenvalues --    0.59602   0.63918   0.71956   0.72223   0.80065
 Alpha virt. eigenvalues --    0.96438   1.03936   1.11066   1.12429   1.15412
 Alpha virt. eigenvalues --    1.16088   1.17865   1.18578   1.18938   1.19851
 Alpha virt. eigenvalues --    1.19993   1.24796   1.34527   1.45163   1.50200
 Alpha virt. eigenvalues --    1.50898   1.53098   1.55991   1.59498   1.59636
 Alpha virt. eigenvalues --    1.67129   1.71910   1.74561   1.78971   1.80854
 Alpha virt. eigenvalues --    1.83210   1.86767   1.88550   1.89770   1.90401
 Alpha virt. eigenvalues --    1.96863   2.16571   2.18250   2.22675   2.24457
 Alpha virt. eigenvalues --    3.01030   3.07010   3.31461   3.95250   4.02145
 Alpha virt. eigenvalues --    4.15185   4.16141
          Condensed to atoms (all electrons):
              1          2          3          4          5          6
     1  O    8.549934  -0.036050   0.005072  -0.002047  -0.023669   0.083780
     2  O   -0.036050   8.565837  -0.004110   0.010716  -0.001750   0.070286
     3  O    0.005072  -0.004110   8.453300  -0.001359   0.005256  -0.008948
     4  O   -0.002047   0.010716  -0.001359   8.431043  -0.004071   0.007555
     5  P   -0.023669  -0.001750   0.005256  -0.004071  14.948244   0.191480
     6  Ca   0.083780   0.070286  -0.008948   0.007555   0.191480  18.480768
     7  Ca   0.056087  -0.043996   0.068422   0.094038   0.147361   0.055532
     8  Ca   0.055244   0.093320   0.101529   0.085690  -0.001923  -0.040356
              7          8
     1  O    0.056087   0.055244
     2  O   -0.043996   0.093320
     3  O    0.068422   0.101529
     4  O    0.094038   0.085690
     5  P    0.147361  -0.001923
     6  Ca   0.055532  -0.040356
     7  Ca  18.532634  -0.088403
     8  Ca  -0.088403  18.288866
 Mulliken atomic charges:
              1
     1  O   -0.688350
     2  O   -0.654254
     3  O   -0.619163
     4  O   -0.621565
     5  P   -0.260928
     6  Ca   1.159902
     7  Ca   1.178325
     8  Ca   1.506033
 Sum of Mulliken charges=   1.00000
 Atomic charges with hydrogens summed into heavy atoms:
              1
     1  O   -0.688350
     2  O   -0.654254
     3  O   -0.619163
     4  O   -0.621565
     5  P   -0.260928
     6  Ca   1.159902
     7  Ca   1.178325
     8  Ca   1.506033
 Sum of Mulliken charges=   1.00000
 Electronic spatial extent (au):  <R**2>=  2258.7349
 Charge=     1.0000 electrons
 Dipole moment (field-independent basis, Debye):
    X=    -2.3884    Y=    -7.9213    Z=    -2.3447  Tot=     8.5994
 Quadrupole moment (field-independent basis, Debye-Ang):
   XX=   -54.7614   YY=   -53.5306   ZZ=   -74.4517
   XY=    -0.4702   XZ=     2.1093   YZ=    -4.5716
 Traceless Quadrupole moment (field-independent basis, Debye-Ang):
   XX=     6.1532   YY=     7.3840   ZZ=   -13.5372
   XY=    -0.4702   XZ=     2.1093   YZ=    -4.5716
 Octapole moment (field-independent basis, Debye-Ang**2):
  XXX=    87.1308  YYY=   -28.1991  ZZZ=    -6.0733  XYY=    -7.4851
  XXY=  -151.9777  XXZ=   -12.1226  XZZ=    -3.2478  YZZ=    -6.9619
  YYZ=   -13.2162  XYZ=    -1.9267
 Hexadecapole moment (field-independent basis, Debye-Ang**3):
 XXXX= -1796.9308 YYYY=  -805.7550 ZZZZ=  -168.3500 XXXY=    29.2413
 XXXZ=    58.5837 YYYX=   110.6696 YYYZ=   -17.4108 ZZZX=     0.6862
 ZZZY=   -15.0765 XXYY=  -386.0223 XXZZ=  -309.2716 YYZZ=  -166.1615
 XXYZ=   -14.2224 YYXZ=    11.7352 ZZXY=    -3.8079
 N-N= 8.315158780484D+02 E-N=-7.986529885071D+03  KE= 2.667628075520D+03
 Merz-Kollman atomic radii used.
 Read replacement radii for each type of atom:
 Rad(20) =   1.188000000000D+00
 Atom Element Radius
    1     8    1.40
    2     8    1.40
    3     8    1.40
    4     8    1.40
    5    15    1.80
    6    20    1.19
    7    20    1.19
    8    20    1.19

 **********************************************************************

            Electrostatic Properties Using The SCF Density

 **********************************************************************

       Atomic Center    1 is at   0.054092 -0.836539 -0.778591
       Atomic Center    2 is at   0.156976 -1.831818  0.413979
       Atomic Center    3 is at   2.331685  1.218409 -0.506731
       Atomic Center    4 is at   1.936305  1.066948  0.971659
       Atomic Center    5 is at  -2.885005  1.308221  0.248859
       Atomic Center    6 is at  -2.001065 -1.493646 -0.059221
       Atomic Center    7 is at   0.119073  1.633861 -0.238181
       Atomic Center    8 is at   2.254123 -0.968181  0.070629
     862 points will be used for fitting atomic charges
 Fitting point charges to eletrostatic potential
 Charges from ESP fit, RMS=   0.00860 RRMS=   0.05731:
 Charge=   1.00000 Dipole=    -2.4365    -8.0627    -2.3958 Tot=     8.7569
              1
     1  O   -0.885641
     2  O   -0.792176
     3  O   -0.678969
     4  O   -0.747851
     5  P   -0.603908
     6  Ca   1.517885
     7  Ca   1.499185
     8  Ca   1.691474
 -----------------------------------------------------------------

              Electrostatic Properties (Atomic Units)

 -----------------------------------------------------------------
    Center     Electric         -------- Electric Field --------
               Potential          X             Y             Z
 -----------------------------------------------------------------
    1 Atom    -22.198575
    2 Atom    -22.201166
    3 Atom    -22.242615
    4 Atom    -22.242269
    5 Atom    -54.011935
    6 Atom    -80.007456
    7 Atom    -80.055115
    8 Atom    -80.049533
 -----------------------------------------------------------------
 1\1\GINC-N027\SP\RB3LYP\6-31+G(d,p)\Ca3O4P1(1+)\TIMN\12-Jun-2015\0\\# 
 b3lyp/6-31+G(d,p) int=ultrafine pop=(ReadRadii,MK)\\Ca3PO4_138.mol2cc_
 plusQ.z51141.zip.xyz\\1,1\O,0,0.05409,-0.83654,-0.77859\O,0,0.15697,-1
 .83182,0.41398\O,0,2.33169,1.2184,-0.50673\O,0,1.93631,1.06694,0.97166
 \P,0,-2.885,1.30823,0.24886\Ca,0,-2.00107,-1.49364,-0.05922\Ca,0,0.119
 08,1.63386,-0.23818\Ca,0,2.25412,-0.96819,0.07063\\Version=EM64T-G03Re
 vE.01\State=1-A\HF=-2674.7142641\RMSD=6.977e-05\Thermal=0.\Dipole=-0.9
 396978,-3.1164664,-0.9224892\PG=C01 [X(Ca3O4P1)]\\@


    THE DOUGHNUT CREED
 AS YOU RAMBLE ON THROUGH LIFE, BROTHER
 WHATEVER BE YOUR GOAL
 KEEP YOUR EYE UPON THE DOUGHNUT
 AND NOT UPON THE HOLE.
 Job cpu time:  0 days  0 hours  3 minutes 16.0 seconds.
 File lengths (MBytes):  RWF=     32 Int=      0 D2E=      0 Chk=     11 Scr=      1
 Normal termination of Gaussian 03 at Fri Jun 12 17:38:53 2015.
