 Entering Gaussian System, Link 0=/home/timn/tmp/g03.e01/g03
 Input=Ca3PO4_63.mol2c_plusQ.z51478.zip.xyz.gjf
 Output=Ca3PO4_63.mol2c_plusQ.z51478.zip.xyz.out
 Initial command:
 /home/timn/tmp/g03.e01/l1.exe /home/timn/tmp/g03.e01/Gau-13804.inp -scrdir=/home/timn/tmp/g03.e01/
 Default is to use a total of   2 processors:
                                2 via shared-memory
                                1 via Linda
 Entering Link 1 = /home/timn/tmp/g03.e01/l1.exe PID=     13805.
  
 Copyright (c) 1988,1990,1992,1993,1995,1998,2003,2004,2007, Gaussian, Inc.
                  All Rights Reserved.
  
 This is the Gaussian(R) 03 program.  It is based on the
 the Gaussian(R) 98 system (copyright 1998, Gaussian, Inc.),
 the Gaussian(R) 94 system (copyright 1995, Gaussian, Inc.),
 the Gaussian 92(TM) system (copyright 1992, Gaussian, Inc.),
 the Gaussian 90(TM) system (copyright 1990, Gaussian, Inc.),
 the Gaussian 88(TM) system (copyright 1988, Gaussian, Inc.),
 the Gaussian 86(TM) system (copyright 1986, Carnegie Mellon
 University), and the Gaussian 82(TM) system (copyright 1983,
 Carnegie Mellon University). Gaussian is a federally registered
 trademark of Gaussian, Inc.
  
 This software contains proprietary and confidential information,
 including trade secrets, belonging to Gaussian, Inc.
  
 This software is provided under written license and may be
 used, copied, transmitted, or stored only in accord with that
 written license.
  
 The following legend is applicable only to US Government
 contracts under FAR:
  
                    RESTRICTED RIGHTS LEGEND
  
 Use, reproduction and disclosure by the US Government is
 subject to restrictions as set forth in subparagraphs (a)
 and (c) of the Commercial Computer Software - Restricted
 Rights clause in FAR 52.227-19.
  
 Gaussian, Inc.
 340 Quinnipiac St., Bldg. 40, Wallingford CT 06492
  
  
 ---------------------------------------------------------------
 Warning -- This program may not be used in any manner that
 competes with the business of Gaussian, Inc. or will provide
 assistance to any competitor of Gaussian, Inc.  The licensee
 of this program is prohibited from giving any competitor of
 Gaussian, Inc. access to this program.  By using this program,
 the user acknowledges that Gaussian, Inc. is engaged in the
 business of creating and licensing software in the field of
 computational chemistry and represents and warrants to the
 licensee that it is not a competitor of Gaussian, Inc. and that
 it will not use this program in any manner prohibited above.
 ---------------------------------------------------------------
  

 Cite this work as:
 Gaussian 03, Revision E.01,
 M. J. Frisch, G. W. Trucks, H. B. Schlegel, G. E. Scuseria, 
 M. A. Robb, J. R. Cheeseman, J. A. Montgomery, Jr., T. Vreven, 
 K. N. Kudin, J. C. Burant, J. M. Millam, S. S. Iyengar, J. Tomasi, 
 V. Barone, B. Mennucci, M. Cossi, G. Scalmani, N. Rega, 
 G. A. Petersson, H. Nakatsuji, M. Hada, M. Ehara, K. Toyota, 
 R. Fukuda, J. Hasegawa, M. Ishida, T. Nakajima, Y. Honda, O. Kitao, 
 H. Nakai, M. Klene, X. Li, J. E. Knox, H. P. Hratchian, J. B. Cross, 
 V. Bakken, C. Adamo, J. Jaramillo, R. Gomperts, R. E. Stratmann, 
 O. Yazyev, A. J. Austin, R. Cammi, C. Pomelli, J. W. Ochterski, 
 P. Y. Ayala, K. Morokuma, G. A. Voth, P. Salvador, J. J. Dannenberg, 
 V. G. Zakrzewski, S. Dapprich, A. D. Daniels, M. C. Strain, 
 O. Farkas, D. K. Malick, A. D. Rabuck, K. Raghavachari, 
 J. B. Foresman, J. V. Ortiz, Q. Cui, A. G. Baboul, S. Clifford, 
 J. Cioslowski, B. B. Stefanov, G. Liu, A. Liashenko, P. Piskorz, 
 I. Komaromi, R. L. Martin, D. J. Fox, T. Keith, M. A. Al-Laham, 
 C. Y. Peng, A. Nanayakkara, M. Challacombe, P. M. W. Gill, 
 B. Johnson, W. Chen, M. W. Wong, C. Gonzalez, and J. A. Pople, 
 Gaussian, Inc., Wallingford CT, 2004.
 
 ******************************************
 Gaussian 03:  EM64T-G03RevE.01 11-Sep-2007
                12-Jun-2015 
 ******************************************
 %nproc=2
 Will use up to    2 processors via shared memory.
 Default route:  MP2=Direct MaxDisk=2000MB
 ----------------------------------------------------
 # b3lyp/6-31+G(d,p) int=ultrafine pop=(ReadRadii,MK)
 ----------------------------------------------------

 Warning!  SCF SP cutoffs with diffuse functions may be unreliable.
 Consider SCF=Tight

 1/38=1/1;
 2/17=6,18=5,40=1/2;
 3/5=1,6=6,7=111,11=2,16=1,25=1,30=1,74=-5,75=5/1,2,3;
 4//1;
 5/5=2,32=1,38=5/2;
 6/7=2,8=2,9=2,10=2,15=8,20=101,28=1/1,2;
 99/5=1,9=1/99;
 ------------------------------------
 Ca3PO4_63.mol2c_plusQ.z51478.zip.xyz
 ------------------------------------
 Symbolic Z-matrix:
 Charge =  1 Multiplicity = 1
 O                    -0.16681   1.50031   1.36391 
 O                    -1.21702  -0.90165   1.36113 
 O                     0.00049  -0.00087  -0.68782 
 O                     1.38858  -0.61011   1.36001 
 P                     0.00149  -0.00352   1.06477 
 Ca                    2.18413  -0.94704  -0.72186 
 Ca                   -0.26906   2.36456  -0.71557 
 Ca                   -1.91829  -1.40997  -0.72005 
 
                          Input orientation:                          
 ---------------------------------------------------------------------
 Center     Atomic     Atomic              Coordinates (Angstroms)
 Number     Number      Type              X           Y           Z
 ---------------------------------------------------------------------
    1          8             0       -0.166810    1.500310    1.363910
    2          8             0       -1.217020   -0.901650    1.361130
    3          8             0        0.000490   -0.000870   -0.687820
    4          8             0        1.388580   -0.610110    1.360010
    5         15             0        0.001490   -0.003520    1.064770
    6         20             0        2.184130   -0.947040   -0.721860
    7         20             0       -0.269060    2.364560   -0.715570
    8         20             0       -1.918290   -1.409970   -0.720050
 ---------------------------------------------------------------------
                    Distance matrix (angstroms):
                    1          2          3          4          5
     1  O    0.000000
     2  O    2.621519   0.000000
     3  O    2.547769   2.547927   0.000000
     4  O    2.621665   2.621860   2.547857   0.000000
     5  P    1.542503   1.542476   1.752592   1.542445   0.000000
     6  Ca   3.983325   3.988575   2.380059   2.254020   2.974255
     7  Ca   2.254245   3.984901   2.380900   3.988040   2.974998
     8  Ca   3.985010   2.254214   2.380823   3.987708   2.974767
                    6          7          8
     6  Ca   0.000000
     7  Ca   4.121271   0.000000
     8  Ca   4.128457   4.119109   0.000000
 Stoichiometry    Ca3O4P(1+)
 Framework group  C1[X(Ca3O4P)]
 Deg. of freedom    18
 Full point group                 C1
 Largest Abelian subgroup         C1      NOp   1
 Largest concise Abelian subgroup C1      NOp   1
                         Standard orientation:                         
 ---------------------------------------------------------------------
 Center     Atomic     Atomic              Coordinates (Angstroms)
 Number     Number      Type              X           Y           Z
 ---------------------------------------------------------------------
    1          8             0       -0.166509    1.500347    1.363912
    2          8             0       -1.217199   -0.901403    1.361132
    3          8             0        0.000491   -0.000867   -0.687818
    4          8             0        1.388459   -0.610384    1.360012
    5         15             0        0.001491   -0.003517    1.064772
    6         20             0        2.183942   -0.947473   -0.721858
    7         20             0       -0.268586    2.364617   -0.715568
    8         20             0       -1.918570   -1.409583   -0.720048
 ---------------------------------------------------------------------
 Rotational constants (GHZ):      0.8604515      0.8577090      0.6403285
 Standard basis: 6-31+G(d,p) (6D, 7F)
 There are   180 symmetry adapted basis functions of A   symmetry.
 Integral buffers will be    131072 words long.
 Raffenetti 2 integral format.
 Two-electron integral symmetry is turned on.
   180 basis functions,   424 primitive gaussians,   180 cartesian basis functions
    53 alpha electrons       53 beta electrons
       nuclear repulsion energy       899.3155944349 Hartrees.
 NAtoms=    8 NActive=    8 NUniq=    8 SFac= 7.50D-01 NAtFMM=   80 NAOKFM=F Big=F
 One-electron integrals computed using PRISM.
 NBasis=   180 RedAO= T  NBF=   180
 NBsUse=   180 1.00D-06 NBFU=   180
 Harris functional with IExCor=  402 diagonalized for initial guess.
 ExpMin= 7.10D-03 ExpMax= 3.53D+04 ExpMxC= 5.30D+03 IAcc=3 IRadAn=         5 AccDes= 0.00D+00
 HarFok:  IExCor= 402 AccDes= 0.00D+00 IRadAn=         5 IDoV=1
 ScaDFX=  1.000000  1.000000  1.000000  1.000000
 Initial guess orbital symmetries:
       Occupied  (A) (A) (A) (A) (A) (A) (A) (A) (A) (A) (A) (A)
                 (A) (A) (A) (A) (A) (A) (A) (A) (A) (A) (A) (A)
                 (A) (A) (A) (A) (A) (A) (A) (A) (A) (A) (A) (A)
                 (A) (A) (A) (A) (A) (A) (A) (A) (A) (A) (A) (A)
                 (A) (A) (A) (A) (A)
       Virtual   (A) (A) (A) (A) (A) (A) (A) (A) (A) (A) (A) (A)
                 (A) (A) (A) (A) (A) (A) (A) (A) (A) (A) (A) (A)
                 (A) (A) (A) (A) (A) (A) (A) (A) (A) (A) (A) (A)
                 (A) (A) (A) (A) (A) (A) (A) (A) (A) (A) (A) (A)
                 (A) (A) (A) (A) (A) (A) (A) (A) (A) (A) (A) (A)
                 (A) (A) (A) (A) (A) (A) (A) (A) (A) (A) (A) (A)
                 (A) (A) (A) (A) (A) (A) (A) (A) (A) (A) (A) (A)
                 (A) (A) (A) (A) (A) (A) (A) (A) (A) (A) (A) (A)
                 (A) (A) (A) (A) (A) (A) (A) (A) (A) (A) (A) (A)
                 (A) (A) (A) (A) (A) (A) (A) (A) (A) (A) (A) (A)
                 (A) (A) (A) (A) (A) (A) (A)
 The electronic state of the initial guess is 1-A.
 Requested convergence on RMS density matrix=1.00D-04 within 128 cycles.
 Requested convergence on MAX density matrix=1.00D-02.
 Requested convergence on             energy=1.00D-02.
 No special actions if energy rises.
 SCF Done:  E(RB+HF-LYP) =  -2675.01213153     A.U. after   10 cycles
             Convg  =    0.2307D-04             -V/T =  2.0027
             S**2   =   0.0000

 **********************************************************************

            Population analysis using the SCF density.

 **********************************************************************

 Orbital symmetries:
       Occupied  (A) (A) (A) (A) (A) (A) (A) (A) (A) (A) (A) (A)
                 (A) (A) (A) (A) (A) (A) (A) (A) (A) (A) (A) (A)
                 (A) (A) (A) (A) (A) (A) (A) (A) (A) (A) (A) (A)
                 (A) (A) (A) (A) (A) (A) (A) (A) (A) (A) (A) (A)
                 (A) (A) (A) (A) (A)
       Virtual   (A) (A) (A) (A) (A) (A) (A) (A) (A) (A) (A) (A)
                 (A) (A) (A) (A) (A) (A) (A) (A) (A) (A) (A) (A)
                 (A) (A) (A) (A) (A) (A) (A) (A) (A) (A) (A) (A)
                 (A) (A) (A) (A) (A) (A) (A) (A) (A) (A) (A) (A)
                 (A) (A) (A) (A) (A) (A) (A) (A) (A) (A) (A) (A)
                 (A) (A) (A) (A) (A) (A) (A) (A) (A) (A) (A) (A)
                 (A) (A) (A) (A) (A) (A) (A) (A) (A) (A) (A) (A)
                 (A) (A) (A) (A) (A) (A) (A) (A) (A) (A) (A) (A)
                 (A) (A) (A) (A) (A) (A) (A) (A) (A) (A) (A) (A)
                 (A) (A) (A) (A) (A) (A) (A) (A) (A) (A) (A) (A)
                 (A) (A) (A) (A) (A) (A) (A)
 The electronic state is 1-A.
 Alpha  occ. eigenvalues -- -145.53745-145.53739-145.53716 -77.32317 -19.26068
 Alpha  occ. eigenvalues --  -19.22409 -19.22398 -19.22372 -15.60638 -15.60633
 Alpha  occ. eigenvalues --  -15.60610 -12.73865 -12.73859 -12.73837 -12.73800
 Alpha  occ. eigenvalues --  -12.73794 -12.73772 -12.73745 -12.73739 -12.73717
 Alpha  occ. eigenvalues --   -6.76687  -4.93229  -4.92930  -4.92930  -1.97699
 Alpha  occ. eigenvalues --   -1.97691  -1.97671  -1.25656  -1.25317  -1.25305
 Alpha  occ. eigenvalues --   -1.25266  -1.25028  -1.25013  -1.24991  -1.24912
 Alpha  occ. eigenvalues --   -1.24895  -1.13299  -1.04681  -1.04671  -1.04452
 Alpha  occ. eigenvalues --   -0.63471  -0.55543  -0.53613  -0.53608  -0.47935
 Alpha  occ. eigenvalues --   -0.47927  -0.43439  -0.43433  -0.42224  -0.40369
 Alpha  occ. eigenvalues --   -0.40357  -0.37472  -0.26992
 Alpha virt. eigenvalues --   -0.22185  -0.22163  -0.15991  -0.15979  -0.14865
 Alpha virt. eigenvalues --   -0.12675  -0.11783  -0.11766  -0.11231  -0.08623
 Alpha virt. eigenvalues --   -0.08606  -0.07722  -0.05591  -0.05587  -0.05429
 Alpha virt. eigenvalues --   -0.05328  -0.05326  -0.05026  -0.04312  -0.04311
 Alpha virt. eigenvalues --   -0.03643  -0.03426  -0.03424  -0.03216  -0.02597
 Alpha virt. eigenvalues --   -0.01509  -0.01508  -0.00212   0.00148   0.00171
 Alpha virt. eigenvalues --    0.00326   0.02754   0.03244   0.03259   0.03902
 Alpha virt. eigenvalues --    0.03908   0.04410   0.04424   0.04866   0.05142
 Alpha virt. eigenvalues --    0.06351   0.06371   0.06387   0.06709   0.06738
 Alpha virt. eigenvalues --    0.07573   0.07585   0.07726   0.09378   0.09381
 Alpha virt. eigenvalues --    0.09927   0.12923   0.13785   0.17749   0.17754
 Alpha virt. eigenvalues --    0.18542   0.19356   0.19375   0.20717   0.22497
 Alpha virt. eigenvalues --    0.22522   0.24092   0.24425   0.26208   0.27119
 Alpha virt. eigenvalues --    0.27138   0.29198   0.29211   0.33368   0.36141
 Alpha virt. eigenvalues --    0.36666   0.36679   0.47343   0.47419   0.53782
 Alpha virt. eigenvalues --    0.53787   0.56319   0.60282   0.60325   0.71130
 Alpha virt. eigenvalues --    0.77762   0.77862   0.81135   0.90367   0.97679
 Alpha virt. eigenvalues --    0.97682   1.15131   1.15809   1.15853   1.19225
 Alpha virt. eigenvalues --    1.19249   1.20341   1.22455   1.22527   1.25221
 Alpha virt. eigenvalues --    1.25225   1.25316   1.26624   1.48792   1.48798
 Alpha virt. eigenvalues --    1.52020   1.67600   1.69802   1.69806   1.70941
 Alpha virt. eigenvalues --    1.72432   1.72439   1.72935   1.80877   1.80892
 Alpha virt. eigenvalues --    1.85860   1.86279   1.86350   1.95067   2.02865
 Alpha virt. eigenvalues --    2.02869   2.20389   2.20415   2.33909   2.66365
 Alpha virt. eigenvalues --    2.75949   2.75967   3.46505   4.03215   4.03233
 Alpha virt. eigenvalues --    4.03278   4.15605
          Condensed to atoms (all electrons):
              1          2          3          4          5          6
     1  O    8.977673  -0.049382   0.099513  -0.049463  -0.093564  -0.057614
     2  O   -0.049382   8.978200   0.099265  -0.049751  -0.094887  -0.057164
     3  O    0.099513   0.099265   9.675621   0.099251  -0.421527  -0.145680
     4  O   -0.049463  -0.049751   0.099251   8.979275  -0.095962   0.005495
     5  P   -0.093564  -0.094887  -0.421527  -0.095962  13.488713   0.286921
     6  Ca  -0.057614  -0.057164  -0.145680   0.005495   0.286921  18.702122
     7  Ca   0.004033  -0.057962  -0.147594  -0.057646   0.288800   0.119357
     8  Ca  -0.057565   0.004943  -0.146460  -0.057551   0.287788   0.118116
              7          8
     1  O    0.004033  -0.057565
     2  O   -0.057962   0.004943
     3  O   -0.147594  -0.146460
     4  O   -0.057646  -0.057551
     5  P    0.288800   0.287788
     6  Ca   0.119357   0.118116
     7  Ca  18.706380   0.120033
     8  Ca   0.120033  18.704528
 Mulliken atomic charges:
              1
     1  O   -0.773631
     2  O   -0.773263
     3  O   -1.112390
     4  O   -0.773648
     5  P    1.353718
     6  Ca   1.028446
     7  Ca   1.024599
     8  Ca   1.026168
 Sum of Mulliken charges=   1.00000
 Atomic charges with hydrogens summed into heavy atoms:
              1
     1  O   -0.773631
     2  O   -0.773263
     3  O   -1.112390
     4  O   -0.773648
     5  P    1.353718
     6  Ca   1.028446
     7  Ca   1.024599
     8  Ca   1.026168
 Sum of Mulliken charges=   1.00000
 Electronic spatial extent (au):  <R**2>=  1893.1496
 Charge=     1.0000 electrons
 Dipole moment (field-independent basis, Debye):
    X=     0.0112    Y=     0.0050    Z=   -10.6810  Tot=    10.6810
 Quadrupole moment (field-independent basis, Debye-Ang):
   XX=   -46.4415   YY=   -46.6033   ZZ=   -93.5719
   XY=    -0.0100   XZ=    -0.0750   YZ=     0.1228
 Traceless Quadrupole moment (field-independent basis, Debye-Ang):
   XX=    15.7641   YY=    15.6023   ZZ=   -31.3663
   XY=    -0.0100   XZ=    -0.0750   YZ=     0.1228
 Octapole moment (field-independent basis, Debye-Ang**2):
  XXX=    17.8538  YYY=    50.0311  ZZZ=    14.8148  XYY=   -17.5703
  XXY=   -50.2686  XXZ=   -30.3899  XZZ=     0.1405  YZZ=    -0.2264
  YYZ=   -30.1944  XYZ=     0.0239
 Hexadecapole moment (field-independent basis, Debye-Ang**3):
 XXXX=  -783.9622 YYYY=  -780.5562 ZZZZ=  -697.8855 XXXY=     0.1017
 XXXZ=   -15.2542 YYYX=    -0.2827 YYYZ=   -40.8307 ZZZX=    -0.3057
 ZZZY=     0.4436 XXYY=  -261.0871 XXZZ=  -295.1108 YYZZ=  -294.5646
 XXYZ=    42.2180 YYXZ=    14.4307 ZZXY=    -0.0429
 N-N= 8.993155944349D+02 E-N=-8.118588102889D+03  KE= 2.667703195541D+03
 Merz-Kollman atomic radii used.
 Read replacement radii for each type of atom:
 Rad(20) =   1.188000000000D+00
 Atom Element Radius
    1     8    1.40
    2     8    1.40
    3     8    1.40
    4     8    1.40
    5    15    1.80
    6    20    1.19
    7    20    1.19
    8    20    1.19

 **********************************************************************

            Electrostatic Properties Using The SCF Density

 **********************************************************************

       Atomic Center    1 is at  -0.166509  1.500347  1.363912
       Atomic Center    2 is at  -1.217199 -0.901403  1.361132
       Atomic Center    3 is at   0.000491 -0.000867 -0.687818
       Atomic Center    4 is at   1.388459 -0.610384  1.360012
       Atomic Center    5 is at   0.001491 -0.003517  1.064772
       Atomic Center    6 is at   2.183942 -0.947473 -0.721858
       Atomic Center    7 is at  -0.268586  2.364617 -0.715568
       Atomic Center    8 is at  -1.918570 -1.409583 -0.720048
     662 points will be used for fitting atomic charges
 Fitting point charges to eletrostatic potential
 Charges from ESP fit, RMS=   0.02416 RRMS=   0.13868:
 Charge=   1.00000 Dipole=    -0.0975    -0.0171   -14.8809 Tot=    14.8813
              1
     1  O   -0.950942
     2  O   -0.958211
     3  O   -1.526839
     4  O   -0.951605
     5  P    2.030172
     6  Ca   1.116098
     7  Ca   1.113144
     8  Ca   1.128183
 -----------------------------------------------------------------

              Electrostatic Properties (Atomic Units)

 -----------------------------------------------------------------
    Center     Electric         -------- Electric Field --------
               Potential          X             Y             Z
 -----------------------------------------------------------------
    1 Atom    -22.241141
    2 Atom    -22.240393
    3 Atom    -22.205749
    4 Atom    -22.241098
    5 Atom    -53.882620
    6 Atom    -80.004640
    7 Atom    -80.004973
    8 Atom    -80.004912
 -----------------------------------------------------------------
 1\1\GINC-N029\SP\RB3LYP\6-31+G(d,p)\Ca3O4P1(1+)\TIMN\12-Jun-2015\0\\# 
 b3lyp/6-31+G(d,p) int=ultrafine pop=(ReadRadii,MK)\\Ca3PO4_63.mol2c_pl
 usQ.z51478.zip.xyz\\1,1\O,0,-0.16681,1.50031,1.36391\O,0,-1.21702,-0.9
 0165,1.36113\O,0,0.00049,-0.00087,-0.68782\O,0,1.38858,-0.61011,1.3600
 1\P,0,0.00149,-0.00352,1.06477\Ca,0,2.18413,-0.94704,-0.72186\Ca,0,-0.
 26906,2.36456,-0.71557\Ca,0,-1.91829,-1.40997,-0.72005\\Version=EM64T-
 G03RevE.01\State=1-A\HF=-2675.0121315\RMSD=2.307e-05\Thermal=0.\Dipole
 =0.0044245,0.0019751,-4.202219\PG=C01 [X(Ca3O4P1)]\\@


 WE SHOULD BE CAREFUL TO GET OUT OF AN EXPERIENCE ONLY THE WISDOM
 THAT IS IN IT -- AND STOP THERE;
 LEST WE BE LIKE THE CAT THAT SITS DOWN ON A HOT STOVE-LID.
 SHE WILL NEVER SIT DOWN ON A HOT STOVE LID AGAIN;
 BUT ALSO SHE WILL NEVER SIT DOWN ON A COLD ONE ANY MORE.

                                                     -- MARK TWAIN
 Job cpu time:  0 days  0 hours  2 minutes  3.6 seconds.
 File lengths (MBytes):  RWF=     32 Int=      0 D2E=      0 Chk=     11 Scr=      1
 Normal termination of Gaussian 03 at Fri Jun 12 17:44:46 2015.
