 Entering Gaussian System, Link 0=/home/timn/tmp/g03.e01/g03
 Input=Ca3PO4_133.mol2c_plusQ.z51136.zip.xyz.gjf
 Output=Ca3PO4_133.mol2c_plusQ.z51136.zip.xyz.out
 Initial command:
 /home/timn/tmp/g03.e01/l1.exe /home/timn/tmp/g03.e01/Gau-13518.inp -scrdir=/home/timn/tmp/g03.e01/
 Default is to use a total of   2 processors:
                                2 via shared-memory
                                1 via Linda
 Entering Link 1 = /home/timn/tmp/g03.e01/l1.exe PID=     13519.
  
 Copyright (c) 1988,1990,1992,1993,1995,1998,2003,2004,2007, Gaussian, Inc.
                  All Rights Reserved.
  
 This is the Gaussian(R) 03 program.  It is based on the
 the Gaussian(R) 98 system (copyright 1998, Gaussian, Inc.),
 the Gaussian(R) 94 system (copyright 1995, Gaussian, Inc.),
 the Gaussian 92(TM) system (copyright 1992, Gaussian, Inc.),
 the Gaussian 90(TM) system (copyright 1990, Gaussian, Inc.),
 the Gaussian 88(TM) system (copyright 1988, Gaussian, Inc.),
 the Gaussian 86(TM) system (copyright 1986, Carnegie Mellon
 University), and the Gaussian 82(TM) system (copyright 1983,
 Carnegie Mellon University). Gaussian is a federally registered
 trademark of Gaussian, Inc.
  
 This software contains proprietary and confidential information,
 including trade secrets, belonging to Gaussian, Inc.
  
 This software is provided under written license and may be
 used, copied, transmitted, or stored only in accord with that
 written license.
  
 The following legend is applicable only to US Government
 contracts under FAR:
  
                    RESTRICTED RIGHTS LEGEND
  
 Use, reproduction and disclosure by the US Government is
 subject to restrictions as set forth in subparagraphs (a)
 and (c) of the Commercial Computer Software - Restricted
 Rights clause in FAR 52.227-19.
  
 Gaussian, Inc.
 340 Quinnipiac St., Bldg. 40, Wallingford CT 06492
  
  
 ---------------------------------------------------------------
 Warning -- This program may not be used in any manner that
 competes with the business of Gaussian, Inc. or will provide
 assistance to any competitor of Gaussian, Inc.  The licensee
 of this program is prohibited from giving any competitor of
 Gaussian, Inc. access to this program.  By using this program,
 the user acknowledges that Gaussian, Inc. is engaged in the
 business of creating and licensing software in the field of
 computational chemistry and represents and warrants to the
 licensee that it is not a competitor of Gaussian, Inc. and that
 it will not use this program in any manner prohibited above.
 ---------------------------------------------------------------
  

 Cite this work as:
 Gaussian 03, Revision E.01,
 M. J. Frisch, G. W. Trucks, H. B. Schlegel, G. E. Scuseria, 
 M. A. Robb, J. R. Cheeseman, J. A. Montgomery, Jr., T. Vreven, 
 K. N. Kudin, J. C. Burant, J. M. Millam, S. S. Iyengar, J. Tomasi, 
 V. Barone, B. Mennucci, M. Cossi, G. Scalmani, N. Rega, 
 G. A. Petersson, H. Nakatsuji, M. Hada, M. Ehara, K. Toyota, 
 R. Fukuda, J. Hasegawa, M. Ishida, T. Nakajima, Y. Honda, O. Kitao, 
 H. Nakai, M. Klene, X. Li, J. E. Knox, H. P. Hratchian, J. B. Cross, 
 V. Bakken, C. Adamo, J. Jaramillo, R. Gomperts, R. E. Stratmann, 
 O. Yazyev, A. J. Austin, R. Cammi, C. Pomelli, J. W. Ochterski, 
 P. Y. Ayala, K. Morokuma, G. A. Voth, P. Salvador, J. J. Dannenberg, 
 V. G. Zakrzewski, S. Dapprich, A. D. Daniels, M. C. Strain, 
 O. Farkas, D. K. Malick, A. D. Rabuck, K. Raghavachari, 
 J. B. Foresman, J. V. Ortiz, Q. Cui, A. G. Baboul, S. Clifford, 
 J. Cioslowski, B. B. Stefanov, G. Liu, A. Liashenko, P. Piskorz, 
 I. Komaromi, R. L. Martin, D. J. Fox, T. Keith, M. A. Al-Laham, 
 C. Y. Peng, A. Nanayakkara, M. Challacombe, P. M. W. Gill, 
 B. Johnson, W. Chen, M. W. Wong, C. Gonzalez, and J. A. Pople, 
 Gaussian, Inc., Wallingford CT, 2004.
 
 ******************************************
 Gaussian 03:  EM64T-G03RevE.01 11-Sep-2007
                12-Jun-2015 
 ******************************************
 %nproc=2
 Will use up to    2 processors via shared memory.
 Default route:  MP2=Direct MaxDisk=2000MB
 ----------------------------------------------------
 # b3lyp/6-31+G(d,p) int=ultrafine pop=(ReadRadii,MK)
 ----------------------------------------------------

 Warning!  SCF SP cutoffs with diffuse functions may be unreliable.
 Consider SCF=Tight

 1/38=1/1;
 2/17=6,18=5,40=1/2;
 3/5=1,6=6,7=111,11=2,16=1,25=1,30=1,74=-5,75=5/1,2,3;
 4//1;
 5/5=2,32=1,38=5/2;
 6/7=2,8=2,9=2,10=2,15=8,20=101,28=1/1,2;
 99/5=1,9=1/99;
 -------------------------------------
 Ca3PO4_133.mol2c_plusQ.z51136.zip.xyz
 -------------------------------------
 Symbolic Z-matrix:
 Charge =  1 Multiplicity = 1
 O                     0.90812   1.16946   0.92254 
 O                     0.55879  -1.37154   0.92189 
 O                    -1.46687   0.20167   0.92271 
 O                     0.00011   0.00012  -1.71224 
 P                     0.0002   -0.00044   1.71821 
 Ca                   -0.7344    1.80201  -0.56998 
 Ca                    1.92779  -0.2649   -0.57026 
 Ca                   -1.1936   -1.53666  -0.57038 
 
                          Input orientation:                          
 ---------------------------------------------------------------------
 Center     Atomic     Atomic              Coordinates (Angstroms)
 Number     Number      Type              X           Y           Z
 ---------------------------------------------------------------------
    1          8             0        0.908120    1.169460    0.922540
    2          8             0        0.558790   -1.371540    0.921890
    3          8             0       -1.466870    0.201670    0.922710
    4          8             0        0.000110    0.000120   -1.712240
    5         15             0        0.000200   -0.000440    1.718210
    6         20             0       -0.734400    1.802010   -0.569980
    7         20             0        1.927790   -0.264900   -0.570260
    8         20             0       -1.193600   -1.536660   -0.570380
 ---------------------------------------------------------------------
                    Distance matrix (angstroms):
                    1          2          3          4          5
     1  O    0.000000
     2  O    2.564900   0.000000
     3  O    2.564604   2.564818   0.000000
     4  O    3.022235   3.021956   3.022518   0.000000
     5  P    1.681094   1.681090   1.681060   3.430450   0.000000
     6  Ca   2.307728   3.737571   2.307753   2.256340   3.004043
     7  Ca   2.307719   2.307667   3.737695   2.256170   3.003771
     8  Ca   3.737529   2.307597   2.307766   2.256209   3.003793
                    6          7          8
     6  Ca   0.000000
     7  Ca   3.370367   0.000000
     8  Ca   3.370101   3.370527   0.000000
 Stoichiometry    Ca3O4P(1+)
 Framework group  C1[X(Ca3O4P)]
 Deg. of freedom    18
 Full point group                 C1
 Largest Abelian subgroup         C1      NOp   1
 Largest concise Abelian subgroup C1      NOp   1
                         Standard orientation:                         
 ---------------------------------------------------------------------
 Center     Atomic     Atomic              Coordinates (Angstroms)
 Number     Number      Type              X           Y           Z
 ---------------------------------------------------------------------
    1          8             0        0.910728    1.167429    0.922540
    2          8             0        0.555727   -1.372785    0.921890
    3          8             0       -1.466416    0.204943    0.922710
    4          8             0        0.000110    0.000119   -1.712240
    5         15             0        0.000199   -0.000441    1.718210
    6         20             0       -0.730375    1.803644   -0.569980
    7         20             0        1.927194   -0.269204   -0.570260
    8         20             0       -1.197027   -1.533992   -0.570380
 ---------------------------------------------------------------------
 Rotational constants (GHZ):      1.0154755      1.0153659      0.9038246
 Standard basis: 6-31+G(d,p) (6D, 7F)
 There are   180 symmetry adapted basis functions of A   symmetry.
 Integral buffers will be    131072 words long.
 Raffenetti 2 integral format.
 Two-electron integral symmetry is turned on.
   180 basis functions,   424 primitive gaussians,   180 cartesian basis functions
    53 alpha electrons       53 beta electrons
       nuclear repulsion energy       952.7018934725 Hartrees.
 NAtoms=    8 NActive=    8 NUniq=    8 SFac= 7.50D-01 NAtFMM=   80 NAOKFM=F Big=F
 One-electron integrals computed using PRISM.
 NBasis=   180 RedAO= T  NBF=   180
 NBsUse=   180 1.00D-06 NBFU=   180
 Harris functional with IExCor=  402 diagonalized for initial guess.
 ExpMin= 7.10D-03 ExpMax= 3.53D+04 ExpMxC= 5.30D+03 IAcc=3 IRadAn=         5 AccDes= 0.00D+00
 HarFok:  IExCor= 402 AccDes= 0.00D+00 IRadAn=         5 IDoV=1
 ScaDFX=  1.000000  1.000000  1.000000  1.000000
 Initial guess orbital symmetries:
       Occupied  (A) (A) (A) (A) (A) (A) (A) (A) (A) (A) (A) (A)
                 (A) (A) (A) (A) (A) (A) (A) (A) (A) (A) (A) (A)
                 (A) (A) (A) (A) (A) (A) (A) (A) (A) (A) (A) (A)
                 (A) (A) (A) (A) (A) (A) (A) (A) (A) (A) (A) (A)
                 (A) (A) (A) (A) (A)
       Virtual   (A) (A) (A) (A) (A) (A) (A) (A) (A) (A) (A) (A)
                 (A) (A) (A) (A) (A) (A) (A) (A) (A) (A) (A) (A)
                 (A) (A) (A) (A) (A) (A) (A) (A) (A) (A) (A) (A)
                 (A) (A) (A) (A) (A) (A) (A) (A) (A) (A) (A) (A)
                 (A) (A) (A) (A) (A) (A) (A) (A) (A) (A) (A) (A)
                 (A) (A) (A) (A) (A) (A) (A) (A) (A) (A) (A) (A)
                 (A) (A) (A) (A) (A) (A) (A) (A) (A) (A) (A) (A)
                 (A) (A) (A) (A) (A) (A) (A) (A) (A) (A) (A) (A)
                 (A) (A) (A) (A) (A) (A) (A) (A) (A) (A) (A) (A)
                 (A) (A) (A) (A) (A) (A) (A) (A) (A) (A) (A) (A)
                 (A) (A) (A) (A) (A) (A) (A)
 The electronic state of the initial guess is 1-A.
 Requested convergence on RMS density matrix=1.00D-04 within 128 cycles.
 Requested convergence on MAX density matrix=1.00D-02.
 Requested convergence on             energy=1.00D-02.
 No special actions if energy rises.
 SCF Done:  E(RB+HF-LYP) =  -2675.07103812     A.U. after    8 cycles
             Convg  =    0.8300D-04             -V/T =  2.0028
             S**2   =   0.0000

 **********************************************************************

            Population analysis using the SCF density.

 **********************************************************************

 Orbital symmetries:
       Occupied  (A) (A) (A) (A) (A) (A) (A) (A) (A) (A) (A) (A)
                 (A) (A) (A) (A) (A) (A) (A) (A) (A) (A) (A) (A)
                 (A) (A) (A) (A) (A) (A) (A) (A) (A) (A) (A) (A)
                 (A) (A) (A) (A) (A) (A) (A) (A) (A) (A) (A) (A)
                 (A) (A) (A) (A) (A)
       Virtual   (A) (A) (A) (A) (A) (A) (A) (A) (A) (A) (A) (A)
                 (A) (A) (A) (A) (A) (A) (A) (A) (A) (A) (A) (A)
                 (A) (A) (A) (A) (A) (A) (A) (A) (A) (A) (A) (A)
                 (A) (A) (A) (A) (A) (A) (A) (A) (A) (A) (A) (A)
                 (A) (A) (A) (A) (A) (A) (A) (A) (A) (A) (A) (A)
                 (A) (A) (A) (A) (A) (A) (A) (A) (A) (A) (A) (A)
                 (A) (A) (A) (A) (A) (A) (A) (A) (A) (A) (A) (A)
                 (A) (A) (A) (A) (A) (A) (A) (A) (A) (A) (A) (A)
                 (A) (A) (A) (A) (A) (A) (A) (A) (A) (A) (A) (A)
                 (A) (A) (A) (A) (A) (A) (A) (A) (A) (A) (A) (A)
                 (A) (A) (A) (A) (A) (A) (A)
 The electronic state is 1-A.
 Alpha  occ. eigenvalues -- -145.49641-145.49636-145.49634 -77.25059 -19.21228
 Alpha  occ. eigenvalues --  -19.21223 -19.21221 -19.15942 -15.56475 -15.56471
 Alpha  occ. eigenvalues --  -15.56470 -12.69672 -12.69670 -12.69669 -12.69650
 Alpha  occ. eigenvalues --  -12.69648 -12.69646 -12.69602 -12.69600 -12.69599
 Alpha  occ. eigenvalues --   -6.70088  -4.86437  -4.86437  -4.85901  -1.93824
 Alpha  occ. eigenvalues --   -1.93739  -1.93738  -1.22377  -1.21696  -1.21695
 Alpha  occ. eigenvalues --   -1.21306  -1.21139  -1.21065  -1.21064  -1.20643
 Alpha  occ. eigenvalues --   -1.20642  -1.06759  -1.00356  -1.00353  -0.90938
 Alpha  occ. eigenvalues --   -0.62644  -0.50528  -0.50527  -0.47961  -0.43358
 Alpha  occ. eigenvalues --   -0.43357  -0.38343  -0.38342  -0.38178  -0.36134
 Alpha  occ. eigenvalues --   -0.36133  -0.34591  -0.30862
 Alpha virt. eigenvalues --   -0.19950  -0.18026  -0.18026  -0.12555  -0.12553
 Alpha virt. eigenvalues --   -0.10893  -0.09478  -0.09477  -0.08338  -0.07772
 Alpha virt. eigenvalues --   -0.06545  -0.06114  -0.06113  -0.04765  -0.04717
 Alpha virt. eigenvalues --   -0.04715  -0.04672  -0.04475  -0.04473  -0.04003
 Alpha virt. eigenvalues --   -0.04003  -0.03231  -0.02944  -0.02943  -0.02359
 Alpha virt. eigenvalues --   -0.02358  -0.00867   0.01027   0.02176   0.02616
 Alpha virt. eigenvalues --    0.02617   0.04574   0.04574   0.05227   0.06003
 Alpha virt. eigenvalues --    0.06004   0.06293   0.06294   0.07291   0.07293
 Alpha virt. eigenvalues --    0.07382   0.07663   0.07667   0.07823   0.08467
 Alpha virt. eigenvalues --    0.10686   0.10687   0.11331   0.11803   0.13654
 Alpha virt. eigenvalues --    0.15679   0.15682   0.19889   0.19891   0.20368
 Alpha virt. eigenvalues --    0.22086   0.22089   0.23482   0.23993   0.25319
 Alpha virt. eigenvalues --    0.25962   0.25963   0.30032   0.31448   0.31453
 Alpha virt. eigenvalues --    0.35744   0.36004   0.36004   0.37868   0.39079
 Alpha virt. eigenvalues --    0.39079   0.39776   0.45825   0.45830   0.53629
 Alpha virt. eigenvalues --    0.53632   0.55851   0.63365   0.63369   0.67675
 Alpha virt. eigenvalues --    0.82894   0.86953   0.86956   0.94101   0.94102
 Alpha virt. eigenvalues --    1.14554   1.16755   1.16756   1.18030   1.20778
 Alpha virt. eigenvalues --    1.21970   1.21972   1.23407   1.23409   1.28215
 Alpha virt. eigenvalues --    1.34168   1.34173   1.36432   1.54459   1.54469
 Alpha virt. eigenvalues --    1.57772   1.68374   1.71620   1.73145   1.73147
 Alpha virt. eigenvalues --    1.77480   1.77483   1.87079   1.87366   1.87373
 Alpha virt. eigenvalues --    1.88070   1.92071   1.92077   1.93326   1.98435
 Alpha virt. eigenvalues --    1.98437   2.03012   2.03019   2.14770   2.38155
 Alpha virt. eigenvalues --    2.55142   2.55146   3.54375   4.05616   4.14280
 Alpha virt. eigenvalues --    4.14288   4.31208
          Condensed to atoms (all electrons):
              1          2          3          4          5          6
     1  O    8.965777   0.058632   0.058667   0.023979  -0.200693   0.059823
     2  O    0.058632   8.965747   0.058667   0.023980  -0.200723   0.006191
     3  O    0.058667   0.058667   8.965899   0.023954  -0.200785   0.059821
     4  O    0.023979   0.023980   0.023954   8.852651  -0.039937   0.122150
     5  P   -0.200693  -0.200723  -0.200785  -0.039937  14.442869   0.033817
     6  Ca   0.059823   0.006191   0.059821   0.122150   0.033817  18.396880
     7  Ca   0.059880   0.059876   0.006259   0.122126   0.033685  -0.047650
     8  Ca   0.006227   0.059868   0.059865   0.122150   0.033763  -0.047668
              7          8
     1  O    0.059880   0.006227
     2  O    0.059876   0.059868
     3  O    0.006259   0.059865
     4  O    0.122126   0.122150
     5  P    0.033685   0.033763
     6  Ca  -0.047650  -0.047668
     7  Ca  18.396832  -0.047692
     8  Ca  -0.047692  18.396883
 Mulliken atomic charges:
              1
     1  O   -1.032292
     2  O   -1.032237
     3  O   -1.032347
     4  O   -1.251053
     5  P    1.098005
     6  Ca   1.416636
     7  Ca   1.416685
     8  Ca   1.416603
 Sum of Mulliken charges=   1.00000
 Atomic charges with hydrogens summed into heavy atoms:
              1
     1  O   -1.032292
     2  O   -1.032237
     3  O   -1.032347
     4  O   -1.251053
     5  P    1.098005
     6  Ca   1.416636
     7  Ca   1.416685
     8  Ca   1.416603
 Sum of Mulliken charges=   1.00000
 Electronic spatial extent (au):  <R**2>=  1510.1408
 Charge=     1.0000 electrons
 Dipole moment (field-independent basis, Debye):
    X=    -0.0008    Y=     0.0026    Z=    -8.2285  Tot=     8.2285
 Quadrupole moment (field-independent basis, Debye-Ang):
   XX=   -40.0248   YY=   -40.0393   ZZ=   -90.0197
   XY=     0.0012   XZ=     0.0029   YZ=     0.0032
 Traceless Quadrupole moment (field-independent basis, Debye-Ang):
   XX=    16.6698   YY=    16.6553   ZZ=   -33.3251
   XY=     0.0012   XZ=     0.0029   YZ=     0.0032
 Octapole moment (field-independent basis, Debye-Ang**2):
  XXX=    53.5847  YYY=    23.7441  ZZZ=    -1.6749  XYY=   -53.5888
  XXY=   -23.7081  XXZ=   -46.6826  XZZ=     0.0013  YZZ=    -0.0109
  YYZ=   -46.6649  XYZ=    -0.0071
 Hexadecapole moment (field-independent basis, Debye-Ang**3):
 XXXX=  -416.0108 YYYY=  -416.0195 ZZZZ=  -721.8231 XXXY=     0.0110
 XXXZ=   -14.1151 YYYX=    -0.0098 YYYZ=    -6.2243 ZZZX=    -0.0030
 ZZZY=     0.0297 XXYY=  -138.6707 XXZZ=  -187.6103 YYZZ=  -187.6012
 XXYZ=     6.2530 YYXZ=    14.1137 ZZXY=     0.0026
 N-N= 9.527018934725D+02 E-N=-8.229878897532D+03  KE= 2.667694118418D+03
 Merz-Kollman atomic radii used.
 Read replacement radii for each type of atom:
 Rad(20) =   1.188000000000D+00
 Atom Element Radius
    1     8    1.40
    2     8    1.40
    3     8    1.40
    4     8    1.40
    5    15    1.80
    6    20    1.19
    7    20    1.19
    8    20    1.19

 **********************************************************************

            Electrostatic Properties Using The SCF Density

 **********************************************************************

       Atomic Center    1 is at   0.910728  1.167429  0.922540
       Atomic Center    2 is at   0.555727 -1.372785  0.921890
       Atomic Center    3 is at  -1.466416  0.204943  0.922710
       Atomic Center    4 is at   0.000110  0.000119 -1.712240
       Atomic Center    5 is at   0.000199 -0.000441  1.718210
       Atomic Center    6 is at  -0.730375  1.803644 -0.569980
       Atomic Center    7 is at   1.927194 -0.269204 -0.570260
       Atomic Center    8 is at  -1.197027 -1.533992 -0.570380
     690 points will be used for fitting atomic charges
 Fitting point charges to eletrostatic potential
 Charges from ESP fit, RMS=   0.00619 RRMS=   0.03766:
 Charge=   1.00000 Dipole=    -0.0325    -0.0031    -8.4462 Tot=     8.4463
              1
     1  O   -0.949934
     2  O   -0.948306
     3  O   -0.946437
     4  O   -1.636458
     5  P    0.519481
     6  Ca   1.654203
     7  Ca   1.653171
     8  Ca   1.654281
 -----------------------------------------------------------------

              Electrostatic Properties (Atomic Units)

 -----------------------------------------------------------------
    Center     Electric         -------- Electric Field --------
               Potential          X             Y             Z
 -----------------------------------------------------------------
    1 Atom    -22.251215
    2 Atom    -22.251232
    3 Atom    -22.251356
    4 Atom    -22.290840
    5 Atom    -53.968036
    6 Atom    -80.043277
    7 Atom    -80.043294
    8 Atom    -80.043301
 -----------------------------------------------------------------
 1\1\GINC-N035\SP\RB3LYP\6-31+G(d,p)\Ca3O4P1(1+)\TIMN\12-Jun-2015\0\\# 
 b3lyp/6-31+G(d,p) int=ultrafine pop=(ReadRadii,MK)\\Ca3PO4_133.mol2c_p
 lusQ.z51136.zip.xyz\\1,1\O,0,0.90812,1.16946,0.92254\O,0,0.55879,-1.37
 154,0.92189\O,0,-1.46687,0.20167,0.92271\O,0,0.00011,0.00012,-1.71224\
 P,0,0.0002,-0.00044,1.71821\Ca,0,-0.7344,1.80201,-0.56998\Ca,0,1.92779
 ,-0.2649,-0.57026\Ca,0,-1.1936,-1.53666,-0.57038\\Version=EM64T-G03Rev
 E.01\State=1-A\HF=-2675.0710381\RMSD=8.300e-05\Thermal=0.\Dipole=-0.00
 03338,0.0010209,-3.2373382\PG=C01 [X(Ca3O4P1)]\\@


 "THE TIME HAS COME", THE WALRUS SAID,
 "TO TALK OF MANY THINGS,
 OF SHOES AND SHIPS AND SEALING WAX,
 OF CABBAGES AND KINGS,
 AND WHY THE SEA IS BOILING HOT,
 AND WHETHER PIGS HAVE WINGS."
 Job cpu time:  0 days  0 hours  1 minutes 43.6 seconds.
 File lengths (MBytes):  RWF=     32 Int=      0 D2E=      0 Chk=     11 Scr=      1
 Normal termination of Gaussian 03 at Fri Jun 12 17:37:30 2015.
