 Entering Gaussian System, Link 0=/home/timn/tmp/g03.e01/g03
 Input=Ca3PO4_93.mol2cc_plusQ.z51511.zip.xyz.gjf
 Output=Ca3PO4_93.mol2cc_plusQ.z51511.zip.xyz.out
 Initial command:
 /home/timn/tmp/g03.e01/l1.exe /home/timn/tmp/g03.e01/Gau-18498.inp -scrdir=/home/timn/tmp/g03.e01/
 Default is to use a total of   2 processors:
                                2 via shared-memory
                                1 via Linda
 Entering Link 1 = /home/timn/tmp/g03.e01/l1.exe PID=     18499.
  
 Copyright (c) 1988,1990,1992,1993,1995,1998,2003,2004,2007, Gaussian, Inc.
                  All Rights Reserved.
  
 This is the Gaussian(R) 03 program.  It is based on the
 the Gaussian(R) 98 system (copyright 1998, Gaussian, Inc.),
 the Gaussian(R) 94 system (copyright 1995, Gaussian, Inc.),
 the Gaussian 92(TM) system (copyright 1992, Gaussian, Inc.),
 the Gaussian 90(TM) system (copyright 1990, Gaussian, Inc.),
 the Gaussian 88(TM) system (copyright 1988, Gaussian, Inc.),
 the Gaussian 86(TM) system (copyright 1986, Carnegie Mellon
 University), and the Gaussian 82(TM) system (copyright 1983,
 Carnegie Mellon University). Gaussian is a federally registered
 trademark of Gaussian, Inc.
  
 This software contains proprietary and confidential information,
 including trade secrets, belonging to Gaussian, Inc.
  
 This software is provided under written license and may be
 used, copied, transmitted, or stored only in accord with that
 written license.
  
 The following legend is applicable only to US Government
 contracts under FAR:
  
                    RESTRICTED RIGHTS LEGEND
  
 Use, reproduction and disclosure by the US Government is
 subject to restrictions as set forth in subparagraphs (a)
 and (c) of the Commercial Computer Software - Restricted
 Rights clause in FAR 52.227-19.
  
 Gaussian, Inc.
 340 Quinnipiac St., Bldg. 40, Wallingford CT 06492
  
  
 ---------------------------------------------------------------
 Warning -- This program may not be used in any manner that
 competes with the business of Gaussian, Inc. or will provide
 assistance to any competitor of Gaussian, Inc.  The licensee
 of this program is prohibited from giving any competitor of
 Gaussian, Inc. access to this program.  By using this program,
 the user acknowledges that Gaussian, Inc. is engaged in the
 business of creating and licensing software in the field of
 computational chemistry and represents and warrants to the
 licensee that it is not a competitor of Gaussian, Inc. and that
 it will not use this program in any manner prohibited above.
 ---------------------------------------------------------------
  

 Cite this work as:
 Gaussian 03, Revision E.01,
 M. J. Frisch, G. W. Trucks, H. B. Schlegel, G. E. Scuseria, 
 M. A. Robb, J. R. Cheeseman, J. A. Montgomery, Jr., T. Vreven, 
 K. N. Kudin, J. C. Burant, J. M. Millam, S. S. Iyengar, J. Tomasi, 
 V. Barone, B. Mennucci, M. Cossi, G. Scalmani, N. Rega, 
 G. A. Petersson, H. Nakatsuji, M. Hada, M. Ehara, K. Toyota, 
 R. Fukuda, J. Hasegawa, M. Ishida, T. Nakajima, Y. Honda, O. Kitao, 
 H. Nakai, M. Klene, X. Li, J. E. Knox, H. P. Hratchian, J. B. Cross, 
 V. Bakken, C. Adamo, J. Jaramillo, R. Gomperts, R. E. Stratmann, 
 O. Yazyev, A. J. Austin, R. Cammi, C. Pomelli, J. W. Ochterski, 
 P. Y. Ayala, K. Morokuma, G. A. Voth, P. Salvador, J. J. Dannenberg, 
 V. G. Zakrzewski, S. Dapprich, A. D. Daniels, M. C. Strain, 
 O. Farkas, D. K. Malick, A. D. Rabuck, K. Raghavachari, 
 J. B. Foresman, J. V. Ortiz, Q. Cui, A. G. Baboul, S. Clifford, 
 J. Cioslowski, B. B. Stefanov, G. Liu, A. Liashenko, P. Piskorz, 
 I. Komaromi, R. L. Martin, D. J. Fox, T. Keith, M. A. Al-Laham, 
 C. Y. Peng, A. Nanayakkara, M. Challacombe, P. M. W. Gill, 
 B. Johnson, W. Chen, M. W. Wong, C. Gonzalez, and J. A. Pople, 
 Gaussian, Inc., Wallingford CT, 2004.
 
 ******************************************
 Gaussian 03:  EM64T-G03RevE.01 11-Sep-2007
                12-Jun-2015 
 ******************************************
 %nproc=2
 Will use up to    2 processors via shared memory.
 Default route:  MP2=Direct MaxDisk=2000MB
 ----------------------------------------------------
 # b3lyp/6-31+G(d,p) int=ultrafine pop=(ReadRadii,MK)
 ----------------------------------------------------

 Warning!  SCF SP cutoffs with diffuse functions may be unreliable.
 Consider SCF=Tight

 1/38=1/1;
 2/17=6,18=5,40=1/2;
 3/5=1,6=6,7=111,11=2,16=1,25=1,30=1,74=-5,75=5/1,2,3;
 4//1;
 5/5=2,32=1,38=5/2;
 6/7=2,8=2,9=2,10=2,15=8,20=101,28=1/1,2;
 99/5=1,9=1/99;
 -------------------------------------
 Ca3PO4_93.mol2cc_plusQ.z51511.zip.xyz
 -------------------------------------
 Symbolic Z-matrix:
 Charge =  1 Multiplicity = 1
 O                    -0.78707   0.56213  -0.65488 
 O                    -3.78     -0.44186   0.07341 
 O                    -2.46072  -0.74691   0.78395 
 O                    -0.08117  -1.67772   0.30423 
 P                    -1.33678  -1.12075  -0.47635 
 Ca                   -2.71966   1.47155   0.10932 
 Ca                    1.34916  -0.02093  -0.0698 
 Ca                    5.21666   0.31168   0.11506 
 
                          Input orientation:                          
 ---------------------------------------------------------------------
 Center     Atomic     Atomic              Coordinates (Angstroms)
 Number     Number      Type              X           Y           Z
 ---------------------------------------------------------------------
    1          8             0       -0.787070    0.562130   -0.654880
    2          8             0       -3.780000   -0.441860    0.073410
    3          8             0       -2.460720   -0.746910    0.783950
    4          8             0       -0.081170   -1.677720    0.304230
    5         15             0       -1.336780   -1.120750   -0.476350
    6         20             0       -2.719660    1.471550    0.109320
    7         20             0        1.349160   -0.020930   -0.069800
    8         20             0        5.216660    0.311680    0.115060
 ---------------------------------------------------------------------
                    Distance matrix (angstroms):
                    1          2          3          4          5
     1  O    0.000000
     2  O    3.239758   0.000000
     3  O    2.566110   1.529190   0.000000
     4  O    2.536753   3.906657   2.599769   0.000000
     5  P    1.779365   2.594697   1.729553   1.579898   0.000000
     6  Ca   2.268469   2.187864   2.333182   4.113091   2.995895
     7  Ca   2.290362   5.148395   3.971287   2.220517   2.930727
     8  Ca   6.058078   9.028258   7.778830   5.662199   6.734181
                    6          7          8
     6  Ca   0.000000
     7  Ca   4.337612   0.000000
     8  Ca   8.020630   3.886175   0.000000
 Stoichiometry    Ca3O4P(1+)
 Framework group  C1[X(Ca3O4P)]
 Deg. of freedom    18
 Full point group                 C1
 Largest Abelian subgroup         C1      NOp   1
 Largest concise Abelian subgroup C1      NOp   1
                         Standard orientation:                         
 ---------------------------------------------------------------------
 Center     Atomic     Atomic              Coordinates (Angstroms)
 Number     Number      Type              X           Y           Z
 ---------------------------------------------------------------------
    1          8             0       -0.787068    0.562131   -0.654880
    2          8             0       -3.779998   -0.441860    0.073410
    3          8             0       -2.460718   -0.746910    0.783950
    4          8             0       -0.081168   -1.677719    0.304230
    5         15             0       -1.336778   -1.120749   -0.476350
    6         20             0       -2.719659    1.471550    0.109320
    7         20             0        1.349162   -0.020928   -0.069800
    8         20             0        5.216662    0.311683    0.115060
 ---------------------------------------------------------------------
 Rotational constants (GHZ):      2.3188729      0.2698114      0.2479709
 Standard basis: 6-31+G(d,p) (6D, 7F)
 There are   180 symmetry adapted basis functions of A   symmetry.
 Integral buffers will be    131072 words long.
 Raffenetti 2 integral format.
 Two-electron integral symmetry is turned on.
   180 basis functions,   424 primitive gaussians,   180 cartesian basis functions
    53 alpha electrons       53 beta electrons
       nuclear repulsion energy       773.2578100985 Hartrees.
 NAtoms=    8 NActive=    8 NUniq=    8 SFac= 7.50D-01 NAtFMM=   80 NAOKFM=F Big=F
 One-electron integrals computed using PRISM.
 NBasis=   180 RedAO= T  NBF=   180
 NBsUse=   180 1.00D-06 NBFU=   180
 Harris functional with IExCor=  402 diagonalized for initial guess.
 ExpMin= 7.10D-03 ExpMax= 3.53D+04 ExpMxC= 5.30D+03 IAcc=3 IRadAn=         5 AccDes= 0.00D+00
 HarFok:  IExCor= 402 AccDes= 0.00D+00 IRadAn=         5 IDoV=1
 ScaDFX=  1.000000  1.000000  1.000000  1.000000
 Initial guess orbital symmetries:
       Occupied  (A) (A) (A) (A) (A) (A) (A) (A) (A) (A) (A) (A)
                 (A) (A) (A) (A) (A) (A) (A) (A) (A) (A) (A) (A)
                 (A) (A) (A) (A) (A) (A) (A) (A) (A) (A) (A) (A)
                 (A) (A) (A) (A) (A) (A) (A) (A) (A) (A) (A) (A)
                 (A) (A) (A) (A) (A)
       Virtual   (A) (A) (A) (A) (A) (A) (A) (A) (A) (A) (A) (A)
                 (A) (A) (A) (A) (A) (A) (A) (A) (A) (A) (A) (A)
                 (A) (A) (A) (A) (A) (A) (A) (A) (A) (A) (A) (A)
                 (A) (A) (A) (A) (A) (A) (A) (A) (A) (A) (A) (A)
                 (A) (A) (A) (A) (A) (A) (A) (A) (A) (A) (A) (A)
                 (A) (A) (A) (A) (A) (A) (A) (A) (A) (A) (A) (A)
                 (A) (A) (A) (A) (A) (A) (A) (A) (A) (A) (A) (A)
                 (A) (A) (A) (A) (A) (A) (A) (A) (A) (A) (A) (A)
                 (A) (A) (A) (A) (A) (A) (A) (A) (A) (A) (A) (A)
                 (A) (A) (A) (A) (A) (A) (A) (A) (A) (A) (A) (A)
                 (A) (A) (A) (A) (A) (A) (A)
 The electronic state of the initial guess is 1-A.
 Requested convergence on RMS density matrix=1.00D-04 within 128 cycles.
 Requested convergence on MAX density matrix=1.00D-02.
 Requested convergence on             energy=1.00D-02.
 No special actions if energy rises.
 EnCoef did     3 forward-backward iterations
 SCF Done:  E(RB+HF-LYP) =  -2674.81795219     A.U. after    8 cycles
             Convg  =    0.9320D-04             -V/T =  2.0027
             S**2   =   0.0000

 **********************************************************************

            Population analysis using the SCF density.

 **********************************************************************

 Orbital symmetries:
       Occupied  (A) (A) (A) (A) (A) (A) (A) (A) (A) (A) (A) (A)
                 (A) (A) (A) (A) (A) (A) (A) (A) (A) (A) (A) (A)
                 (A) (A) (A) (A) (A) (A) (A) (A) (A) (A) (A) (A)
                 (A) (A) (A) (A) (A) (A) (A) (A) (A) (A) (A) (A)
                 (A) (A) (A) (A) (A)
       Virtual   (A) (A) (A) (A) (A) (A) (A) (A) (A) (A) (A) (A)
                 (A) (A) (A) (A) (A) (A) (A) (A) (A) (A) (A) (A)
                 (A) (A) (A) (A) (A) (A) (A) (A) (A) (A) (A) (A)
                 (A) (A) (A) (A) (A) (A) (A) (A) (A) (A) (A) (A)
                 (A) (A) (A) (A) (A) (A) (A) (A) (A) (A) (A) (A)
                 (A) (A) (A) (A) (A) (A) (A) (A) (A) (A) (A) (A)
                 (A) (A) (A) (A) (A) (A) (A) (A) (A) (A) (A) (A)
                 (A) (A) (A) (A) (A) (A) (A) (A) (A) (A) (A) (A)
                 (A) (A) (A) (A) (A) (A) (A) (A) (A) (A) (A) (A)
                 (A) (A) (A) (A) (A) (A) (A) (A) (A) (A) (A) (A)
                 (A) (A) (A) (A) (A) (A) (A)
 The electronic state is 1-A.
 Alpha  occ. eigenvalues -- -145.55928-145.51167-145.50851 -77.23523 -19.26057
 Alpha  occ. eigenvalues --  -19.21301 -19.20980 -19.19542 -15.62984 -15.58022
 Alpha  occ. eigenvalues --  -15.57808 -12.76123 -12.76122 -12.76105 -12.71254
 Alpha  occ. eigenvalues --  -12.71194 -12.71123 -12.71055 -12.70969 -12.70884
 Alpha  occ. eigenvalues --   -6.68789  -4.85161  -4.85108  -4.84543  -2.00037
 Alpha  occ. eigenvalues --   -1.95219  -1.95083  -1.27298  -1.27295  -1.27119
 Alpha  occ. eigenvalues --   -1.23419  -1.22932  -1.22857  -1.22561  -1.22481
 Alpha  occ. eigenvalues --   -1.22211  -1.10629  -1.03902  -0.99128  -0.88182
 Alpha  occ. eigenvalues --   -0.62060  -0.51147  -0.49585  -0.48662  -0.44905
 Alpha  occ. eigenvalues --   -0.43501  -0.41100  -0.38494  -0.36915  -0.32470
 Alpha  occ. eigenvalues --   -0.31710  -0.31200  -0.30283
 Alpha virt. eigenvalues --   -0.21246  -0.19740  -0.17411  -0.17192  -0.13844
 Alpha virt. eigenvalues --   -0.11832  -0.10991  -0.10732  -0.09934  -0.09371
 Alpha virt. eigenvalues --   -0.07828  -0.07026  -0.06575  -0.05839  -0.05750
 Alpha virt. eigenvalues --   -0.05351  -0.04817  -0.04373  -0.04124  -0.03741
 Alpha virt. eigenvalues --   -0.03639  -0.03329  -0.03295  -0.02703  -0.02229
 Alpha virt. eigenvalues --   -0.01530  -0.01000   0.00496   0.01165   0.01177
 Alpha virt. eigenvalues --    0.02319   0.02573   0.02979   0.03025   0.03162
 Alpha virt. eigenvalues --    0.03314   0.03897   0.04206   0.04578   0.04990
 Alpha virt. eigenvalues --    0.05472   0.05549   0.05915   0.06304   0.06748
 Alpha virt. eigenvalues --    0.07342   0.07904   0.09002   0.09434   0.09730
 Alpha virt. eigenvalues --    0.10890   0.12214   0.13228   0.13925   0.16728
 Alpha virt. eigenvalues --    0.17423   0.17789   0.18616   0.20327   0.21881
 Alpha virt. eigenvalues --    0.22987   0.23496   0.24611   0.25953   0.26798
 Alpha virt. eigenvalues --    0.28334   0.30115   0.30841   0.31659   0.33730
 Alpha virt. eigenvalues --    0.36048   0.38723   0.39074   0.39833   0.42136
 Alpha virt. eigenvalues --    0.44798   0.49974   0.51977   0.61075   0.63656
 Alpha virt. eigenvalues --    0.67856   0.78202   0.81140   0.87552   0.95293
 Alpha virt. eigenvalues --    0.98333   1.12694   1.14019   1.15377   1.16580
 Alpha virt. eigenvalues --    1.18965   1.19727   1.22566   1.24589   1.25864
 Alpha virt. eigenvalues --    1.27830   1.29972   1.33783   1.47594   1.53811
 Alpha virt. eigenvalues --    1.58469   1.59295   1.61928   1.69330   1.75363
 Alpha virt. eigenvalues --    1.76863   1.77724   1.80858   1.82811   1.83990
 Alpha virt. eigenvalues --    1.88417   1.90558   1.92452   1.95125   1.98059
 Alpha virt. eigenvalues --    2.00836   2.22388   2.25797   2.33728   2.43428
 Alpha virt. eigenvalues --    2.68491   3.10286   3.52935   3.95384   4.02903
 Alpha virt. eigenvalues --    4.08922   4.24515
          Condensed to atoms (all electrons):
              1          2          3          4          5          6
     1  O    9.080023   0.021313   0.026052  -0.024146  -0.192484   0.069406
     2  O    0.021313   8.347012   0.034668  -0.000004  -0.016747   0.165836
     3  O    0.026052   0.034668   8.523935   0.110989  -0.320303   0.035575
     4  O   -0.024146  -0.000004   0.110989   8.819263  -0.210965  -0.000172
     5  P   -0.192484  -0.016747  -0.320303  -0.210965  14.991685   0.065791
     6  Ca   0.069406   0.165836   0.035575  -0.000172   0.065791  18.316212
     7  Ca   0.099405   0.000466   0.035047   0.146784  -0.142267  -0.020318
     8  Ca   0.010462  -0.000070   0.008479   0.011755  -0.057384  -0.029498
              7          8
     1  O    0.099405   0.010462
     2  O    0.000466  -0.000070
     3  O    0.035047   0.008479
     4  O    0.146784   0.011755
     5  P   -0.142267  -0.057384
     6  Ca  -0.020318  -0.029498
     7  Ca  18.600600   0.252683
     8  Ca   0.252683  19.160567
 Mulliken atomic charges:
              1
     1  O   -1.090033
     2  O   -0.552473
     3  O   -0.454440
     4  O   -0.853503
     5  P    0.882674
     6  Ca   1.397169
     7  Ca   1.027600
     8  Ca   0.643007
 Sum of Mulliken charges=   1.00000
 Atomic charges with hydrogens summed into heavy atoms:
              1
     1  O   -1.090033
     2  O   -0.552473
     3  O   -0.454440
     4  O   -0.853503
     5  P    0.882674
     6  Ca   1.397169
     7  Ca   1.027600
     8  Ca   0.643007
 Sum of Mulliken charges=   1.00000
 Electronic spatial extent (au):  <R**2>=  3780.8966
 Charge=     1.0000 electrons
 Dipole moment (field-independent basis, Debye):
    X=    15.1951    Y=    13.3237    Z=     0.6804  Tot=    20.2207
 Quadrupole moment (field-independent basis, Debye-Ang):
   XX=    19.4140   YY=   -69.0073   ZZ=   -81.4475
   XY=   -29.6484   XZ=     1.1854   YZ=     5.6646
 Traceless Quadrupole moment (field-independent basis, Debye-Ang):
   XX=    63.0942   YY=   -25.3270   ZZ=   -37.7672
   XY=   -29.6484   XZ=     1.1854   YZ=     5.6646
 Octapole moment (field-independent basis, Debye-Ang**2):
  XXX=   483.8616  YYY=    60.7505  ZZZ=     5.9737  XYY=   -67.8428
  XXY=   131.1716  XXZ=     9.6450  XZZ=   -11.7761  YZZ=    10.4742
  YYZ=     2.4288  XYZ=    -4.5636
 Hexadecapole moment (field-independent basis, Debye-Ang**3):
 XXXX= -1515.8321 YYYY=  -467.1733 ZZZZ=  -195.8014 XXXY=  -253.0924
 XXXZ=    87.9605 YYYX=  -161.1344 YYYZ=     8.4222 ZZZX=   -15.2122
 ZZZY=     2.1157 XXYY=  -659.6573 XXZZ=  -758.3794 YYZZ=  -117.8035
 XXYZ=    15.9203 YYXZ=   -12.1558 ZZXY=   -38.7122
 N-N= 7.732578100985D+02 E-N=-7.869143046488D+03  KE= 2.667635769352D+03
 Merz-Kollman atomic radii used.
 Read replacement radii for each type of atom:
 Rad(20) =   1.188000000000D+00
 Atom Element Radius
    1     8    1.40
    2     8    1.40
    3     8    1.40
    4     8    1.40
    5    15    1.80
    6    20    1.19
    7    20    1.19
    8    20    1.19

 **********************************************************************

            Electrostatic Properties Using The SCF Density

 **********************************************************************

       Atomic Center    1 is at  -0.787068  0.562131 -0.654880
       Atomic Center    2 is at  -3.779998 -0.441860  0.073410
       Atomic Center    3 is at  -2.460718 -0.746910  0.783950
       Atomic Center    4 is at  -0.081168 -1.677719  0.304230
       Atomic Center    5 is at  -1.336778 -1.120749 -0.476350
       Atomic Center    6 is at  -2.719659  1.471550  0.109320
       Atomic Center    7 is at   1.349162 -0.020928 -0.069800
       Atomic Center    8 is at   5.216662  0.311683  0.115060
     806 points will be used for fitting atomic charges
 Fitting point charges to eletrostatic potential
 Charges from ESP fit, RMS=   0.02305 RRMS=   0.14076:
 Charge=   1.00000 Dipole=    16.9845    14.3077     0.7112 Tot=    22.2191
              1
     1  O   -0.823887
     2  O   -0.656400
     3  O   -0.258212
     4  O   -0.545090
     5  P    0.309661
     6  Ca   1.512569
     7  Ca   0.871104
     8  Ca   0.590255
 -----------------------------------------------------------------

              Electrostatic Properties (Atomic Units)

 -----------------------------------------------------------------
    Center     Electric         -------- Electric Field --------
               Potential          X             Y             Z
 -----------------------------------------------------------------
    1 Atom    -22.250519
    2 Atom    -22.264903
    3 Atom    -22.211869
    4 Atom    -22.268509
    5 Atom    -53.977886
    6 Atom    -80.030569
    7 Atom    -80.033393
    8 Atom    -79.985673
 -----------------------------------------------------------------
 1\1\GINC-N027\SP\RB3LYP\6-31+G(d,p)\Ca3O4P1(1+)\TIMN\12-Jun-2015\0\\# 
 b3lyp/6-31+G(d,p) int=ultrafine pop=(ReadRadii,MK)\\Ca3PO4_93.mol2cc_p
 lusQ.z51511.zip.xyz\\1,1\O,0,-0.78707,0.56213,-0.65488\O,0,-3.78,-0.44
 186,0.07341\O,0,-2.46072,-0.74691,0.78395\O,0,-0.08117,-1.67772,0.3042
 3\P,0,-1.33678,-1.12075,-0.47635\Ca,0,-2.71966,1.47155,0.10932\Ca,0,1.
 34916,-0.02093,-0.0698\Ca,0,5.21666,0.31168,0.11506\\Version=EM64T-G03
 RevE.01\State=1-A\HF=-2674.8179522\RMSD=9.320e-05\Thermal=0.\Dipole=5.
 9782162,5.2419452,0.2676708\PG=C01 [X(Ca3O4P1)]\\@


 HO!  SUCH BUGS AND GOBLINS IN MY LIFE!

                            -- HAMLET, ACT 5, SCENE 2
 Job cpu time:  0 days  0 hours  1 minutes 25.1 seconds.
 File lengths (MBytes):  RWF=     32 Int=      0 D2E=      0 Chk=     11 Scr=      1
 Normal termination of Gaussian 03 at Fri Jun 12 17:46:02 2015.
