 Entering Gaussian System, Link 0=/home/timn/tmp/g03.e01/g03
 Input=Ca3PO4_71.mol2c_plusQ.z51487.zip.xyz.gjf
 Output=Ca3PO4_71.mol2c_plusQ.z51487.zip.xyz.out
 Initial command:
 /home/timn/tmp/g03.e01/l1.exe /home/timn/tmp/g03.e01/Gau-13850.inp -scrdir=/home/timn/tmp/g03.e01/
 Default is to use a total of   2 processors:
                                2 via shared-memory
                                1 via Linda
 Entering Link 1 = /home/timn/tmp/g03.e01/l1.exe PID=     13851.
  
 Copyright (c) 1988,1990,1992,1993,1995,1998,2003,2004,2007, Gaussian, Inc.
                  All Rights Reserved.
  
 This is the Gaussian(R) 03 program.  It is based on the
 the Gaussian(R) 98 system (copyright 1998, Gaussian, Inc.),
 the Gaussian(R) 94 system (copyright 1995, Gaussian, Inc.),
 the Gaussian 92(TM) system (copyright 1992, Gaussian, Inc.),
 the Gaussian 90(TM) system (copyright 1990, Gaussian, Inc.),
 the Gaussian 88(TM) system (copyright 1988, Gaussian, Inc.),
 the Gaussian 86(TM) system (copyright 1986, Carnegie Mellon
 University), and the Gaussian 82(TM) system (copyright 1983,
 Carnegie Mellon University). Gaussian is a federally registered
 trademark of Gaussian, Inc.
  
 This software contains proprietary and confidential information,
 including trade secrets, belonging to Gaussian, Inc.
  
 This software is provided under written license and may be
 used, copied, transmitted, or stored only in accord with that
 written license.
  
 The following legend is applicable only to US Government
 contracts under FAR:
  
                    RESTRICTED RIGHTS LEGEND
  
 Use, reproduction and disclosure by the US Government is
 subject to restrictions as set forth in subparagraphs (a)
 and (c) of the Commercial Computer Software - Restricted
 Rights clause in FAR 52.227-19.
  
 Gaussian, Inc.
 340 Quinnipiac St., Bldg. 40, Wallingford CT 06492
  
  
 ---------------------------------------------------------------
 Warning -- This program may not be used in any manner that
 competes with the business of Gaussian, Inc. or will provide
 assistance to any competitor of Gaussian, Inc.  The licensee
 of this program is prohibited from giving any competitor of
 Gaussian, Inc. access to this program.  By using this program,
 the user acknowledges that Gaussian, Inc. is engaged in the
 business of creating and licensing software in the field of
 computational chemistry and represents and warrants to the
 licensee that it is not a competitor of Gaussian, Inc. and that
 it will not use this program in any manner prohibited above.
 ---------------------------------------------------------------
  

 Cite this work as:
 Gaussian 03, Revision E.01,
 M. J. Frisch, G. W. Trucks, H. B. Schlegel, G. E. Scuseria, 
 M. A. Robb, J. R. Cheeseman, J. A. Montgomery, Jr., T. Vreven, 
 K. N. Kudin, J. C. Burant, J. M. Millam, S. S. Iyengar, J. Tomasi, 
 V. Barone, B. Mennucci, M. Cossi, G. Scalmani, N. Rega, 
 G. A. Petersson, H. Nakatsuji, M. Hada, M. Ehara, K. Toyota, 
 R. Fukuda, J. Hasegawa, M. Ishida, T. Nakajima, Y. Honda, O. Kitao, 
 H. Nakai, M. Klene, X. Li, J. E. Knox, H. P. Hratchian, J. B. Cross, 
 V. Bakken, C. Adamo, J. Jaramillo, R. Gomperts, R. E. Stratmann, 
 O. Yazyev, A. J. Austin, R. Cammi, C. Pomelli, J. W. Ochterski, 
 P. Y. Ayala, K. Morokuma, G. A. Voth, P. Salvador, J. J. Dannenberg, 
 V. G. Zakrzewski, S. Dapprich, A. D. Daniels, M. C. Strain, 
 O. Farkas, D. K. Malick, A. D. Rabuck, K. Raghavachari, 
 J. B. Foresman, J. V. Ortiz, Q. Cui, A. G. Baboul, S. Clifford, 
 J. Cioslowski, B. B. Stefanov, G. Liu, A. Liashenko, P. Piskorz, 
 I. Komaromi, R. L. Martin, D. J. Fox, T. Keith, M. A. Al-Laham, 
 C. Y. Peng, A. Nanayakkara, M. Challacombe, P. M. W. Gill, 
 B. Johnson, W. Chen, M. W. Wong, C. Gonzalez, and J. A. Pople, 
 Gaussian, Inc., Wallingford CT, 2004.
 
 ******************************************
 Gaussian 03:  EM64T-G03RevE.01 11-Sep-2007
                12-Jun-2015 
 ******************************************
 %nproc=2
 Will use up to    2 processors via shared memory.
 Default route:  MP2=Direct MaxDisk=2000MB
 ----------------------------------------------------
 # b3lyp/6-31+G(d,p) int=ultrafine pop=(ReadRadii,MK)
 ----------------------------------------------------

 Warning!  SCF SP cutoffs with diffuse functions may be unreliable.
 Consider SCF=Tight

 1/38=1/1;
 2/17=6,18=5,40=1/2;
 3/5=1,6=6,7=111,11=2,16=1,25=1,30=1,74=-5,75=5/1,2,3;
 4//1;
 5/5=2,32=1,38=5/2;
 6/7=2,8=2,9=2,10=2,15=8,20=101,28=1/1,2;
 99/5=1,9=1/99;
 ------------------------------------
 Ca3PO4_71.mol2c_plusQ.z51487.zip.xyz
 ------------------------------------
 Symbolic Z-matrix:
 Charge =  1 Multiplicity = 1
 O                     1.43582   0.36253   0.9222 
 O                    -1.03109   1.06375   0.92187 
 O                    -0.40452  -1.42317   0.92316 
 O                    -0.00039  -0.00147  -1.71162 
 P                     0.00014   0.00148   1.71805 
 Ca                    0.53182   1.8709   -0.57176 
 Ca                    1.35523  -1.39673  -0.56931 
 Ca                   -1.88709  -0.47594  -0.56972 
 
                          Input orientation:                          
 ---------------------------------------------------------------------
 Center     Atomic     Atomic              Coordinates (Angstroms)
 Number     Number      Type              X           Y           Z
 ---------------------------------------------------------------------
    1          8             0        1.435820    0.362530    0.922200
    2          8             0       -1.031090    1.063750    0.921870
    3          8             0       -0.404520   -1.423170    0.923160
    4          8             0       -0.000390   -0.001470   -1.711620
    5         15             0        0.000140    0.001480    1.718050
    6         20             0        0.531820    1.870900   -0.571760
    7         20             0        1.355230   -1.396730   -0.569310
    8         20             0       -1.887090   -0.475940   -0.569720
 ---------------------------------------------------------------------
                    Distance matrix (angstroms):
                    1          2          3          4          5
     1  O    0.000000
     2  O    2.564635   0.000000
     3  O    2.564289   2.564637   0.000000
     4  O    3.021954   3.021971   3.021029   0.000000
     5  P    1.680747   1.680998   1.680841   3.429671   0.000000
     6  Ca   2.307447   2.307620   3.736632   2.255726   3.003439
     7  Ca   2.307833   3.737928   2.307571   2.255954   3.003877
     8  Ca   3.737725   2.308294   2.307368   2.255813   3.003907
                    6          7          8
     6  Ca   0.000000
     7  Ca   3.369780   0.000000
     8  Ca   3.370280   3.370533   0.000000
 Stoichiometry    Ca3O4P(1+)
 Framework group  C1[X(Ca3O4P)]
 Deg. of freedom    18
 Full point group                 C1
 Largest Abelian subgroup         C1      NOp   1
 Largest concise Abelian subgroup C1      NOp   1
                         Standard orientation:                         
 ---------------------------------------------------------------------
 Center     Atomic     Atomic              Coordinates (Angstroms)
 Number     Number      Type              X           Y           Z
 ---------------------------------------------------------------------
    1          8             0        1.435358    0.364361    0.922202
    2          8             0       -1.032444    1.062436    0.921872
    3          8             0       -0.402704   -1.423684    0.923162
    4          8             0       -0.000387   -0.001470   -1.711618
    5         15             0        0.000139    0.001481    1.718052
    6         20             0        0.529436    1.871577   -0.571758
    7         20             0        1.357011   -1.395001   -0.569308
    8         20             0       -1.886480   -0.478344   -0.569718
 ---------------------------------------------------------------------
 Rotational constants (GHZ):      1.0156806      1.0154417      0.9039165
 Standard basis: 6-31+G(d,p) (6D, 7F)
 There are   180 symmetry adapted basis functions of A   symmetry.
 Integral buffers will be    131072 words long.
 Raffenetti 2 integral format.
 Two-electron integral symmetry is turned on.
   180 basis functions,   424 primitive gaussians,   180 cartesian basis functions
    53 alpha electrons       53 beta electrons
       nuclear repulsion energy       952.7705644274 Hartrees.
 NAtoms=    8 NActive=    8 NUniq=    8 SFac= 7.50D-01 NAtFMM=   80 NAOKFM=F Big=F
 One-electron integrals computed using PRISM.
 NBasis=   180 RedAO= T  NBF=   180
 NBsUse=   180 1.00D-06 NBFU=   180
 Harris functional with IExCor=  402 diagonalized for initial guess.
 ExpMin= 7.10D-03 ExpMax= 3.53D+04 ExpMxC= 5.30D+03 IAcc=3 IRadAn=         5 AccDes= 0.00D+00
 HarFok:  IExCor= 402 AccDes= 0.00D+00 IRadAn=         5 IDoV=1
 ScaDFX=  1.000000  1.000000  1.000000  1.000000
 Initial guess orbital symmetries:
       Occupied  (A) (A) (A) (A) (A) (A) (A) (A) (A) (A) (A) (A)
                 (A) (A) (A) (A) (A) (A) (A) (A) (A) (A) (A) (A)
                 (A) (A) (A) (A) (A) (A) (A) (A) (A) (A) (A) (A)
                 (A) (A) (A) (A) (A) (A) (A) (A) (A) (A) (A) (A)
                 (A) (A) (A) (A) (A)
       Virtual   (A) (A) (A) (A) (A) (A) (A) (A) (A) (A) (A) (A)
                 (A) (A) (A) (A) (A) (A) (A) (A) (A) (A) (A) (A)
                 (A) (A) (A) (A) (A) (A) (A) (A) (A) (A) (A) (A)
                 (A) (A) (A) (A) (A) (A) (A) (A) (A) (A) (A) (A)
                 (A) (A) (A) (A) (A) (A) (A) (A) (A) (A) (A) (A)
                 (A) (A) (A) (A) (A) (A) (A) (A) (A) (A) (A) (A)
                 (A) (A) (A) (A) (A) (A) (A) (A) (A) (A) (A) (A)
                 (A) (A) (A) (A) (A) (A) (A) (A) (A) (A) (A) (A)
                 (A) (A) (A) (A) (A) (A) (A) (A) (A) (A) (A) (A)
                 (A) (A) (A) (A) (A) (A) (A) (A) (A) (A) (A) (A)
                 (A) (A) (A) (A) (A) (A) (A)
 The electronic state of the initial guess is 1-A.
 Requested convergence on RMS density matrix=1.00D-04 within 128 cycles.
 Requested convergence on MAX density matrix=1.00D-02.
 Requested convergence on             energy=1.00D-02.
 No special actions if energy rises.
 SCF Done:  E(RB+HF-LYP) =  -2675.07106157     A.U. after    8 cycles
             Convg  =    0.8186D-04             -V/T =  2.0028
             S**2   =   0.0000

 **********************************************************************

            Population analysis using the SCF density.

 **********************************************************************

 Orbital symmetries:
       Occupied  (A) (A) (A) (A) (A) (A) (A) (A) (A) (A) (A) (A)
                 (A) (A) (A) (A) (A) (A) (A) (A) (A) (A) (A) (A)
                 (A) (A) (A) (A) (A) (A) (A) (A) (A) (A) (A) (A)
                 (A) (A) (A) (A) (A) (A) (A) (A) (A) (A) (A) (A)
                 (A) (A) (A) (A) (A)
       Virtual   (A) (A) (A) (A) (A) (A) (A) (A) (A) (A) (A) (A)
                 (A) (A) (A) (A) (A) (A) (A) (A) (A) (A) (A) (A)
                 (A) (A) (A) (A) (A) (A) (A) (A) (A) (A) (A) (A)
                 (A) (A) (A) (A) (A) (A) (A) (A) (A) (A) (A) (A)
                 (A) (A) (A) (A) (A) (A) (A) (A) (A) (A) (A) (A)
                 (A) (A) (A) (A) (A) (A) (A) (A) (A) (A) (A) (A)
                 (A) (A) (A) (A) (A) (A) (A) (A) (A) (A) (A) (A)
                 (A) (A) (A) (A) (A) (A) (A) (A) (A) (A) (A) (A)
                 (A) (A) (A) (A) (A) (A) (A) (A) (A) (A) (A) (A)
                 (A) (A) (A) (A) (A) (A) (A) (A) (A) (A) (A) (A)
                 (A) (A) (A) (A) (A) (A) (A)
 The electronic state is 1-A.
 Alpha  occ. eigenvalues -- -145.49641-145.49635-145.49629 -77.25053 -19.21234
 Alpha  occ. eigenvalues --  -19.21220 -19.21212 -19.15943 -15.56475 -15.56471
 Alpha  occ. eigenvalues --  -15.56464 -12.69672 -12.69669 -12.69663 -12.69650
 Alpha  occ. eigenvalues --  -12.69647 -12.69640 -12.69602 -12.69600 -12.69593
 Alpha  occ. eigenvalues --   -6.70084  -4.86432  -4.86432  -4.85896  -1.93822
 Alpha  occ. eigenvalues --   -1.93740  -1.93735  -1.22377  -1.21696  -1.21693
 Alpha  occ. eigenvalues --   -1.21306  -1.21138  -1.21064  -1.21062  -1.20643
 Alpha  occ. eigenvalues --   -1.20639  -1.06764  -1.00361  -1.00353  -0.90943
 Alpha  occ. eigenvalues --   -0.62641  -0.50531  -0.50528  -0.47963  -0.43360
 Alpha  occ. eigenvalues --   -0.43358  -0.38346  -0.38340  -0.38176  -0.36140
 Alpha  occ. eigenvalues --   -0.36137  -0.34594  -0.30857
 Alpha virt. eigenvalues --   -0.19950  -0.18028  -0.18025  -0.12556  -0.12553
 Alpha virt. eigenvalues --   -0.10894  -0.09479  -0.09477  -0.08339  -0.07772
 Alpha virt. eigenvalues --   -0.06545  -0.06114  -0.06114  -0.04765  -0.04715
 Alpha virt. eigenvalues --   -0.04715  -0.04672  -0.04473  -0.04472  -0.04005
 Alpha virt. eigenvalues --   -0.04004  -0.03232  -0.02944  -0.02943  -0.02358
 Alpha virt. eigenvalues --   -0.02357  -0.00866   0.01027   0.02175   0.02616
 Alpha virt. eigenvalues --    0.02618   0.04574   0.04575   0.05228   0.06004
 Alpha virt. eigenvalues --    0.06005   0.06293   0.06295   0.07291   0.07295
 Alpha virt. eigenvalues --    0.07382   0.07663   0.07667   0.07823   0.08471
 Alpha virt. eigenvalues --    0.10683   0.10688   0.11337   0.11804   0.13663
 Alpha virt. eigenvalues --    0.15680   0.15684   0.19892   0.19893   0.20373
 Alpha virt. eigenvalues --    0.22089   0.22090   0.23489   0.23994   0.25320
 Alpha virt. eigenvalues --    0.25959   0.25968   0.30036   0.31452   0.31458
 Alpha virt. eigenvalues --    0.35744   0.36006   0.36009   0.37870   0.39087
 Alpha virt. eigenvalues --    0.39088   0.39778   0.45837   0.45841   0.53632
 Alpha virt. eigenvalues --    0.53637   0.55845   0.63370   0.63374   0.67686
 Alpha virt. eigenvalues --    0.82897   0.86955   0.86974   0.94112   0.94125
 Alpha virt. eigenvalues --    1.14550   1.16755   1.16758   1.18033   1.20787
 Alpha virt. eigenvalues --    1.21968   1.21975   1.23403   1.23405   1.28210
 Alpha virt. eigenvalues --    1.34162   1.34189   1.36425   1.54463   1.54468
 Alpha virt. eigenvalues --    1.57766   1.68377   1.71623   1.73143   1.73150
 Alpha virt. eigenvalues --    1.77481   1.77484   1.87078   1.87370   1.87377
 Alpha virt. eigenvalues --    1.88076   1.92079   1.92086   1.93341   1.98433
 Alpha virt. eigenvalues --    1.98447   2.03028   2.03031   2.14807   2.38201
 Alpha virt. eigenvalues --    2.55172   2.55193   3.54378   4.05633   4.14278
 Alpha virt. eigenvalues --    4.14293   4.31239
          Condensed to atoms (all electrons):
              1          2          3          4          5          6
     1  O    8.966348   0.058770   0.058798   0.023997  -0.201378   0.059787
     2  O    0.058770   8.965748   0.058667   0.023962  -0.200884   0.059849
     3  O    0.058798   0.058667   8.966030   0.024007  -0.201180   0.006202
     4  O    0.023997   0.023962   0.024007   8.852837  -0.039975   0.122101
     5  P   -0.201378  -0.200884  -0.201180  -0.039975  14.443812   0.033855
     6  Ca   0.059787   0.059849   0.006202   0.122101   0.033855  18.397129
     7  Ca   0.059787   0.006213   0.059818   0.122089   0.033856  -0.047687
     8  Ca   0.006240   0.059869   0.059855   0.122086   0.033714  -0.047657
              7          8
     1  O    0.059787   0.006240
     2  O    0.006213   0.059869
     3  O    0.059818   0.059855
     4  O    0.122089   0.122086
     5  P    0.033856   0.033714
     6  Ca  -0.047687  -0.047657
     7  Ca  18.396920  -0.047554
     8  Ca  -0.047554  18.396761
 Mulliken atomic charges:
              1
     1  O   -1.032349
     2  O   -1.032195
     3  O   -1.032198
     4  O   -1.251104
     5  P    1.098181
     6  Ca   1.416420
     7  Ca   1.416558
     8  Ca   1.416686
 Sum of Mulliken charges=   1.00000
 Atomic charges with hydrogens summed into heavy atoms:
              1
     1  O   -1.032349
     2  O   -1.032195
     3  O   -1.032198
     4  O   -1.251104
     5  P    1.098181
     6  Ca   1.416420
     7  Ca   1.416558
     8  Ca   1.416686
 Sum of Mulliken charges=   1.00000
 Electronic spatial extent (au):  <R**2>=  1509.9645
 Charge=     1.0000 electrons
 Dipole moment (field-independent basis, Debye):
    X=     0.0003    Y=    -0.0135    Z=    -8.2334  Tot=     8.2334
 Quadrupole moment (field-independent basis, Debye-Ang):
   XX=   -40.0231   YY=   -40.0453   ZZ=   -90.0107
   XY=     0.0043   XZ=    -0.0075   YZ=    -0.0433
 Traceless Quadrupole moment (field-independent basis, Debye-Ang):
   XX=    16.6699   YY=    16.6477   ZZ=   -33.3177
   XY=     0.0043   XZ=    -0.0075   YZ=    -0.0433
 Octapole moment (field-independent basis, Debye-Ang**2):
  XXX=   -43.1178  YYY=    39.5205  ZZZ=    -1.7239  XYY=    43.0955
  XXY=   -39.7447  XXZ=   -46.6457  XZZ=     0.0114  YZZ=     0.0628
  YYZ=   -46.6983  XYZ=    -0.0281
 Hexadecapole moment (field-independent basis, Debye-Ang**3):
 XXXX=  -416.0053 YYYY=  -416.0392 ZZZZ=  -721.6537 XXXY=     0.0293
 XXXZ=    11.3418 YYYX=    -0.0168 YYYZ=   -10.6273 ZZZX=    -0.0247
 ZZZY=    -0.1853 XXYY=  -138.6441 XXZZ=  -187.6055 YYZZ=  -187.5442
 XXYZ=    10.4026 YYXZ=   -11.3560 ZZXY=     0.0235
 N-N= 9.527705644274D+02 E-N=-8.230019401449D+03  KE= 2.667696055504D+03
 Merz-Kollman atomic radii used.
 Read replacement radii for each type of atom:
 Rad(20) =   1.188000000000D+00
 Atom Element Radius
    1     8    1.40
    2     8    1.40
    3     8    1.40
    4     8    1.40
    5    15    1.80
    6    20    1.19
    7    20    1.19
    8    20    1.19

 **********************************************************************

            Electrostatic Properties Using The SCF Density

 **********************************************************************

       Atomic Center    1 is at   1.435358  0.364361  0.922202
       Atomic Center    2 is at  -1.032444  1.062436  0.921872
       Atomic Center    3 is at  -0.402704 -1.423684  0.923162
       Atomic Center    4 is at  -0.000387 -0.001470 -1.711618
       Atomic Center    5 is at   0.000139  0.001481  1.718052
       Atomic Center    6 is at   0.529436  1.871577 -0.571758
       Atomic Center    7 is at   1.357011 -1.395001 -0.569308
       Atomic Center    8 is at  -1.886480 -0.478344 -0.569718
     692 points will be used for fitting atomic charges
 Fitting point charges to eletrostatic potential
 Charges from ESP fit, RMS=   0.00622 RRMS=   0.03812:
 Charge=   1.00000 Dipole=     0.0297    -0.0353    -8.4277 Tot=     8.4278
              1
     1  O   -0.942449
     2  O   -0.944405
     3  O   -0.946089
     4  O   -1.634451
     5  P    0.515151
     6  Ca   1.648397
     7  Ca   1.653190
     8  Ca   1.650656
 -----------------------------------------------------------------

              Electrostatic Properties (Atomic Units)

 -----------------------------------------------------------------
    Center     Electric         -------- Electric Field --------
               Potential          X             Y             Z
 -----------------------------------------------------------------
    1 Atom    -22.251532
    2 Atom    -22.251290
    3 Atom    -22.251057
    4 Atom    -22.290865
    5 Atom    -53.968088
    6 Atom    -80.043383
    7 Atom    -80.043277
    8 Atom    -80.043291
 -----------------------------------------------------------------
 1\1\GINC-N029\SP\RB3LYP\6-31+G(d,p)\Ca3O4P1(1+)\TIMN\12-Jun-2015\0\\# 
 b3lyp/6-31+G(d,p) int=ultrafine pop=(ReadRadii,MK)\\Ca3PO4_71.mol2c_pl
 usQ.z51487.zip.xyz\\1,1\O,0,1.43582,0.36253,0.9222\O,0,-1.03109,1.0637
 5,0.92187\O,0,-0.40452,-1.42317,0.92316\O,0,-0.00039,-0.00147,-1.71162
 \P,0,0.00014,0.00148,1.71805\Ca,0,0.53182,1.8709,-0.57176\Ca,0,1.35523
 ,-1.39673,-0.56931\Ca,0,-1.88709,-0.47594,-0.56972\\Version=EM64T-G03R
 evE.01\State=1-A\HF=-2675.0710616\RMSD=8.186e-05\Thermal=0.\Dipole=0.0
 00096,-0.0053232,-3.23925\PG=C01 [X(Ca3O4P1)]\\@


 Not by the face shall a man be known, but by the mask.
                               -- Karen Blixen
 Job cpu time:  0 days  0 hours  1 minutes 41.8 seconds.
 File lengths (MBytes):  RWF=     32 Int=      0 D2E=      0 Chk=     11 Scr=      1
 Normal termination of Gaussian 03 at Fri Jun 12 17:44:58 2015.
