 Entering Gaussian System, Link 0=/home/timn/tmp/g03.e01/g03
 Input=Ca3PO4_90.mol2_plusQ.z51508.zip.xyz.gjf
 Output=Ca3PO4_90.mol2_plusQ.z51508.zip.xyz.out
 Initial command:
 /home/timn/tmp/g03.e01/l1.exe /home/timn/tmp/g03.e01/Gau-16554.inp -scrdir=/home/timn/tmp/g03.e01/
 Default is to use a total of   2 processors:
                                2 via shared-memory
                                1 via Linda
 Entering Link 1 = /home/timn/tmp/g03.e01/l1.exe PID=     16555.
  
 Copyright (c) 1988,1990,1992,1993,1995,1998,2003,2004,2007, Gaussian, Inc.
                  All Rights Reserved.
  
 This is the Gaussian(R) 03 program.  It is based on the
 the Gaussian(R) 98 system (copyright 1998, Gaussian, Inc.),
 the Gaussian(R) 94 system (copyright 1995, Gaussian, Inc.),
 the Gaussian 92(TM) system (copyright 1992, Gaussian, Inc.),
 the Gaussian 90(TM) system (copyright 1990, Gaussian, Inc.),
 the Gaussian 88(TM) system (copyright 1988, Gaussian, Inc.),
 the Gaussian 86(TM) system (copyright 1986, Carnegie Mellon
 University), and the Gaussian 82(TM) system (copyright 1983,
 Carnegie Mellon University). Gaussian is a federally registered
 trademark of Gaussian, Inc.
  
 This software contains proprietary and confidential information,
 including trade secrets, belonging to Gaussian, Inc.
  
 This software is provided under written license and may be
 used, copied, transmitted, or stored only in accord with that
 written license.
  
 The following legend is applicable only to US Government
 contracts under FAR:
  
                    RESTRICTED RIGHTS LEGEND
  
 Use, reproduction and disclosure by the US Government is
 subject to restrictions as set forth in subparagraphs (a)
 and (c) of the Commercial Computer Software - Restricted
 Rights clause in FAR 52.227-19.
  
 Gaussian, Inc.
 340 Quinnipiac St., Bldg. 40, Wallingford CT 06492
  
  
 ---------------------------------------------------------------
 Warning -- This program may not be used in any manner that
 competes with the business of Gaussian, Inc. or will provide
 assistance to any competitor of Gaussian, Inc.  The licensee
 of this program is prohibited from giving any competitor of
 Gaussian, Inc. access to this program.  By using this program,
 the user acknowledges that Gaussian, Inc. is engaged in the
 business of creating and licensing software in the field of
 computational chemistry and represents and warrants to the
 licensee that it is not a competitor of Gaussian, Inc. and that
 it will not use this program in any manner prohibited above.
 ---------------------------------------------------------------
  

 Cite this work as:
 Gaussian 03, Revision E.01,
 M. J. Frisch, G. W. Trucks, H. B. Schlegel, G. E. Scuseria, 
 M. A. Robb, J. R. Cheeseman, J. A. Montgomery, Jr., T. Vreven, 
 K. N. Kudin, J. C. Burant, J. M. Millam, S. S. Iyengar, J. Tomasi, 
 V. Barone, B. Mennucci, M. Cossi, G. Scalmani, N. Rega, 
 G. A. Petersson, H. Nakatsuji, M. Hada, M. Ehara, K. Toyota, 
 R. Fukuda, J. Hasegawa, M. Ishida, T. Nakajima, Y. Honda, O. Kitao, 
 H. Nakai, M. Klene, X. Li, J. E. Knox, H. P. Hratchian, J. B. Cross, 
 V. Bakken, C. Adamo, J. Jaramillo, R. Gomperts, R. E. Stratmann, 
 O. Yazyev, A. J. Austin, R. Cammi, C. Pomelli, J. W. Ochterski, 
 P. Y. Ayala, K. Morokuma, G. A. Voth, P. Salvador, J. J. Dannenberg, 
 V. G. Zakrzewski, S. Dapprich, A. D. Daniels, M. C. Strain, 
 O. Farkas, D. K. Malick, A. D. Rabuck, K. Raghavachari, 
 J. B. Foresman, J. V. Ortiz, Q. Cui, A. G. Baboul, S. Clifford, 
 J. Cioslowski, B. B. Stefanov, G. Liu, A. Liashenko, P. Piskorz, 
 I. Komaromi, R. L. Martin, D. J. Fox, T. Keith, M. A. Al-Laham, 
 C. Y. Peng, A. Nanayakkara, M. Challacombe, P. M. W. Gill, 
 B. Johnson, W. Chen, M. W. Wong, C. Gonzalez, and J. A. Pople, 
 Gaussian, Inc., Wallingford CT, 2004.
 
 ******************************************
 Gaussian 03:  EM64T-G03RevE.01 11-Sep-2007
                12-Jun-2015 
 ******************************************
 %nproc=2
 Will use up to    2 processors via shared memory.
 Default route:  MP2=Direct MaxDisk=2000MB
 ----------------------------------------------------
 # b3lyp/6-31+G(d,p) int=ultrafine pop=(ReadRadii,MK)
 ----------------------------------------------------

 Warning!  SCF SP cutoffs with diffuse functions may be unreliable.
 Consider SCF=Tight

 1/38=1/1;
 2/17=6,18=5,40=1/2;
 3/5=1,6=6,7=111,11=2,16=1,25=1,30=1,74=-5,75=5/1,2,3;
 4//1;
 5/5=2,32=1,38=5/2;
 6/7=2,8=2,9=2,10=2,15=8,20=101,28=1/1,2;
 99/5=1,9=1/99;
 -----------------------------------
 Ca3PO4_90.mol2_plusQ.z51508.zip.xyz
 -----------------------------------
 Symbolic Z-matrix:
 Charge =  1 Multiplicity = 1
 O                    -2.93236  -0.00008  -0.51937 
 O                    -0.81813  -1.2754    0.51462 
 O                    -0.81821   1.27533   0.51466 
 O                     1.8146    0.00007   0.06376 
 P                    -1.44712  -0.00005  -0.35695 
 Ca                    0.85669   1.75594  -0.94462 
 Ca                    0.85682  -1.75586  -0.94466 
 Ca                    0.47347  -0.00001   1.92753 
 
                          Input orientation:                          
 ---------------------------------------------------------------------
 Center     Atomic     Atomic              Coordinates (Angstroms)
 Number     Number      Type              X           Y           Z
 ---------------------------------------------------------------------
    1          8             0       -2.932360   -0.000080   -0.519370
    2          8             0       -0.818130   -1.275400    0.514620
    3          8             0       -0.818210    1.275330    0.514660
    4          8             0        1.814600    0.000070    0.063760
    5         15             0       -1.447120   -0.000050   -0.356950
    6         20             0        0.856690    1.755940   -0.944620
    7         20             0        0.856820   -1.755860   -0.944660
    8         20             0        0.473470   -0.000010    1.927530
 ---------------------------------------------------------------------
                    Distance matrix (angstroms):
                    1          2          3          4          5
     1  O    0.000000
     2  O    2.676854   0.000000
     3  O    2.676849   2.550730   0.000000
     4  O    4.782643   2.959960   2.959947   0.000000
     5  P    1.494094   1.667867   1.667881   3.288741   0.000000
     6  Ca   4.197778   3.758115   2.272834   2.239978   2.955740
     7  Ca   4.197799   2.272839   3.758118   2.239987   2.955742
     8  Ca   4.193685   2.300253   2.300246   2.296142   2.984546
                    6          7          8
     6  Ca   0.000000
     7  Ca   3.511800   0.000000
     8  Ca   3.388136   3.388133   0.000000
 Stoichiometry    Ca3O4P(1+)
 Framework group  C1[X(Ca3O4P)]
 Deg. of freedom    18
 Full point group                 C1
 Largest Abelian subgroup         C1      NOp   1
 Largest concise Abelian subgroup C1      NOp   1
                         Standard orientation:                         
 ---------------------------------------------------------------------
 Center     Atomic     Atomic              Coordinates (Angstroms)
 Number     Number      Type              X           Y           Z
 ---------------------------------------------------------------------
    1          8             0       -2.932360   -0.000035   -0.519371
    2          8             0       -0.818149   -1.275388    0.514619
    3          8             0       -0.818191    1.275342    0.514659
    4          8             0        1.814600    0.000042    0.063759
    5         15             0       -1.447120   -0.000028   -0.356951
    6         20             0        0.856717    1.755927   -0.944621
    7         20             0        0.856793   -1.755873   -0.944661
    8         20             0        0.473470   -0.000017    1.927529
 ---------------------------------------------------------------------
 Rotational constants (GHZ):      0.9445461      0.8703044      0.7865119
 Standard basis: 6-31+G(d,p) (6D, 7F)
 There are   180 symmetry adapted basis functions of A   symmetry.
 Integral buffers will be    131072 words long.
 Raffenetti 2 integral format.
 Two-electron integral symmetry is turned on.
   180 basis functions,   424 primitive gaussians,   180 cartesian basis functions
    53 alpha electrons       53 beta electrons
       nuclear repulsion energy       918.5180766818 Hartrees.
 NAtoms=    8 NActive=    8 NUniq=    8 SFac= 7.50D-01 NAtFMM=   80 NAOKFM=F Big=F
 One-electron integrals computed using PRISM.
 NBasis=   180 RedAO= T  NBF=   180
 NBsUse=   180 1.00D-06 NBFU=   180
 Harris functional with IExCor=  402 diagonalized for initial guess.
 ExpMin= 7.10D-03 ExpMax= 3.53D+04 ExpMxC= 5.30D+03 IAcc=3 IRadAn=         5 AccDes= 0.00D+00
 HarFok:  IExCor= 402 AccDes= 0.00D+00 IRadAn=         5 IDoV=1
 ScaDFX=  1.000000  1.000000  1.000000  1.000000
 Initial guess orbital symmetries:
       Occupied  (A) (A) (A) (A) (A) (A) (A) (A) (A) (A) (A) (A)
                 (A) (A) (A) (A) (A) (A) (A) (A) (A) (A) (A) (A)
                 (A) (A) (A) (A) (A) (A) (A) (A) (A) (A) (A) (A)
                 (A) (A) (A) (A) (A) (A) (A) (A) (A) (A) (A) (A)
                 (A) (A) (A) (A) (A)
       Virtual   (A) (A) (A) (A) (A) (A) (A) (A) (A) (A) (A) (A)
                 (A) (A) (A) (A) (A) (A) (A) (A) (A) (A) (A) (A)
                 (A) (A) (A) (A) (A) (A) (A) (A) (A) (A) (A) (A)
                 (A) (A) (A) (A) (A) (A) (A) (A) (A) (A) (A) (A)
                 (A) (A) (A) (A) (A) (A) (A) (A) (A) (A) (A) (A)
                 (A) (A) (A) (A) (A) (A) (A) (A) (A) (A) (A) (A)
                 (A) (A) (A) (A) (A) (A) (A) (A) (A) (A) (A) (A)
                 (A) (A) (A) (A) (A) (A) (A) (A) (A) (A) (A) (A)
                 (A) (A) (A) (A) (A) (A) (A) (A) (A) (A) (A) (A)
                 (A) (A) (A) (A) (A) (A) (A) (A) (A) (A) (A) (A)
                 (A) (A) (A) (A) (A) (A) (A)
 The electronic state of the initial guess is 1-A.
 Requested convergence on RMS density matrix=1.00D-04 within 128 cycles.
 Requested convergence on MAX density matrix=1.00D-02.
 Requested convergence on             energy=1.00D-02.
 No special actions if energy rises.
 EnCoef did     4 forward-backward iterations
 EnCoef did     4 forward-backward iterations
 SCF Done:  E(RB+HF-LYP) =  -2674.98830438     A.U. after   11 cycles
             Convg  =    0.8885D-04             -V/T =  2.0028
             S**2   =   0.0000

 **********************************************************************

            Population analysis using the SCF density.

 **********************************************************************

 Orbital symmetries:
       Occupied  (A) (A) (A) (A) (A) (A) (A) (A) (A) (A) (A) (A)
                 (A) (A) (A) (A) (A) (A) (A) (A) (A) (A) (A) (A)
                 (A) (A) (A) (A) (A) (A) (A) (A) (A) (A) (A) (A)
                 (A) (A) (A) (A) (A) (A) (A) (A) (A) (A) (A) (A)
                 (A) (A) (A) (A) (A)
       Virtual   (A) (A) (A) (A) (A) (A) (A) (A) (A) (A) (A) (A)
                 (A) (A) (A) (A) (A) (A) (A) (A) (A) (A) (A) (A)
                 (A) (A) (A) (A) (A) (A) (A) (A) (A) (A) (A) (A)
                 (A) (A) (A) (A) (A) (A) (A) (A) (A) (A) (A) (A)
                 (A) (A) (A) (A) (A) (A) (A) (A) (A) (A) (A) (A)
                 (A) (A) (A) (A) (A) (A) (A) (A) (A) (A) (A) (A)
                 (A) (A) (A) (A) (A) (A) (A) (A) (A) (A) (A) (A)
                 (A) (A) (A) (A) (A) (A) (A) (A) (A) (A) (A) (A)
                 (A) (A) (A) (A) (A) (A) (A) (A) (A) (A) (A) (A)
                 (A) (A) (A) (A) (A) (A) (A) (A) (A) (A) (A) (A)
                 (A) (A) (A) (A) (A) (A) (A)
 The electronic state is 1-A.
 Alpha  occ. eigenvalues -- -145.52382-145.52381-145.50968 -77.26185 -19.22450
 Alpha  occ. eigenvalues --  -19.22450 -19.18534 -19.18178 -15.59234 -15.59233
 Alpha  occ. eigenvalues --  -15.57803 -12.72467 -12.72466 -12.72387 -12.72387
 Alpha  occ. eigenvalues --  -12.72353 -12.72352 -12.71001 -12.70970 -12.70944
 Alpha  occ. eigenvalues --   -6.71194  -4.87598  -4.87496  -4.87250  -1.96438
 Alpha  occ. eigenvalues --   -1.96403  -1.95063  -1.24371  -1.24184  -1.24077
 Alpha  occ. eigenvalues --   -1.23889  -1.23677  -1.23244  -1.22633  -1.22632
 Alpha  occ. eigenvalues --   -1.22130  -1.07843  -1.01762  -1.01205  -0.93035
 Alpha  occ. eigenvalues --   -0.61877  -0.51472  -0.49919  -0.48090  -0.43557
 Alpha  occ. eigenvalues --   -0.42348  -0.40117  -0.38571  -0.38447  -0.37929
 Alpha  occ. eigenvalues --   -0.35590  -0.35457  -0.29884
 Alpha virt. eigenvalues --   -0.21312  -0.20244  -0.19529  -0.14881  -0.13836
 Alpha virt. eigenvalues --   -0.12188  -0.11021  -0.10734  -0.09733  -0.09393
 Alpha virt. eigenvalues --   -0.07259  -0.07244  -0.06944  -0.05301  -0.05096
 Alpha virt. eigenvalues --   -0.05027  -0.04908  -0.04553  -0.04152  -0.04033
 Alpha virt. eigenvalues --   -0.03947  -0.03459  -0.03313  -0.03258  -0.02560
 Alpha virt. eigenvalues --   -0.01664  -0.01612  -0.00880   0.01498   0.01692
 Alpha virt. eigenvalues --    0.02268   0.02693   0.03185   0.03990   0.04254
 Alpha virt. eigenvalues --    0.04550   0.04881   0.05631   0.05727   0.06218
 Alpha virt. eigenvalues --    0.06317   0.06809   0.07641   0.07733   0.08761
 Alpha virt. eigenvalues --    0.09248   0.09494   0.10177   0.10759   0.13847
 Alpha virt. eigenvalues --    0.13905   0.15108   0.17896   0.19205   0.20006
 Alpha virt. eigenvalues --    0.20812   0.22083   0.22987   0.23337   0.24049
 Alpha virt. eigenvalues --    0.24914   0.26740   0.27474   0.29612   0.30715
 Alpha virt. eigenvalues --    0.30978   0.32291   0.34998   0.35117   0.36448
 Alpha virt. eigenvalues --    0.38601   0.40302   0.44788   0.45186   0.49152
 Alpha virt. eigenvalues --    0.50768   0.58797   0.61824   0.64258   0.65564
 Alpha virt. eigenvalues --    0.73414   0.82374   0.90902   0.91800   1.02303
 Alpha virt. eigenvalues --    1.07859   1.15907   1.17567   1.17916   1.19187
 Alpha virt. eigenvalues --    1.20361   1.20732   1.20909   1.24255   1.24659
 Alpha virt. eigenvalues --    1.28808   1.28907   1.30879   1.46547   1.52668
 Alpha virt. eigenvalues --    1.53158   1.64472   1.71256   1.72936   1.75904
 Alpha virt. eigenvalues --    1.76159   1.79175   1.80264   1.83039   1.84284
 Alpha virt. eigenvalues --    1.85102   1.89346   1.92178   1.94223   1.95077
 Alpha virt. eigenvalues --    1.99083   2.00367   2.14449   2.15241   2.40795
 Alpha virt. eigenvalues --    2.55152   2.84761   3.49237   3.98706   4.07649
 Alpha virt. eigenvalues --    4.13054   4.13689
          Condensed to atoms (all electrons):
              1          2          3          4          5          6
     1  O    8.628612   0.061339   0.061337   0.014672  -0.122578  -0.005528
     2  O    0.061339   9.649324   0.429615   0.169932  -1.643664  -0.034544
     3  O    0.061337   0.429615   9.649284   0.169930  -1.643620   0.016172
     4  O    0.014672   0.169932   0.169930   9.018227  -0.496904   0.087724
     5  P   -0.122578  -1.643664  -1.643620  -0.496904  18.389548   0.227199
     6  Ca  -0.005528  -0.034544   0.016172   0.087724   0.227199  18.379277
     7  Ca  -0.005527   0.016168  -0.034543   0.087724   0.227199   0.003246
     8  Ca   0.012309   0.027748   0.027751   0.086223   0.091873  -0.034275
              7          8
     1  O   -0.005527   0.012309
     2  O    0.016168   0.027748
     3  O   -0.034543   0.027751
     4  O    0.087724   0.086223
     5  P    0.227199   0.091873
     6  Ca   0.003246  -0.034275
     7  Ca  18.379278  -0.034275
     8  Ca  -0.034275  18.381048
 Mulliken atomic charges:
              1
     1  O   -0.644636
     2  O   -0.675917
     3  O   -0.675926
     4  O   -1.137528
     5  P   -0.029052
     6  Ca   1.360729
     7  Ca   1.360731
     8  Ca   1.441599
 Sum of Mulliken charges=   1.00000
 Atomic charges with hydrogens summed into heavy atoms:
              1
     1  O   -0.644636
     2  O   -0.675917
     3  O   -0.675926
     4  O   -1.137528
     5  P   -0.029052
     6  Ca   1.360729
     7  Ca   1.360731
     8  Ca   1.441599
 Sum of Mulliken charges=   1.00000
 Electronic spatial extent (au):  <R**2>=  1699.4017
 Charge=     1.0000 electrons
 Dipole moment (field-independent basis, Debye):
    X=    12.6890    Y=     0.0001    Z=     0.0592  Tot=    12.6892
 Quadrupole moment (field-independent basis, Debye-Ang):
   XX=  -101.1128   YY=   -38.5074   ZZ=   -38.5239
   XY=    -0.0012   XZ=    -6.5256   YZ=    -0.0003
 Traceless Quadrupole moment (field-independent basis, Debye-Ang):
   XX=   -41.7314   YY=    20.8740   ZZ=    20.8575
   XY=    -0.0012   XZ=    -6.5256   YZ=    -0.0003
 Octapole moment (field-independent basis, Debye-Ang**2):
  XXX=    48.0842  YYY=     0.0053  ZZZ=    62.7361  XYY=    61.4390
  XXY=    -0.0021  XXZ=     2.1119  XZZ=    38.9234  YZZ=    -0.0013
  YYZ=   -51.9128  XYZ=     0.0014
 Hexadecapole moment (field-independent basis, Debye-Ang**3):
 XXXX= -1132.3923 YYYY=  -443.4274 ZZZZ=  -360.9484 XXXY=    -0.0075
 XXXZ=   -53.9508 YYYX=    -0.0022 YYYZ=    -0.0030 ZZZX=     3.1306
 ZZZY=    -0.0011 XXYY=  -215.5401 XXZZ=  -219.5136 YYZZ=  -136.8790
 XXYZ=     0.0007 YYXZ=   -38.1256 ZZXY=    -0.0023
 N-N= 9.185180766818D+02 E-N=-8.159955395400D+03  KE= 2.667638062787D+03
 Merz-Kollman atomic radii used.
 Read replacement radii for each type of atom:
 Rad(20) =   1.188000000000D+00
 Atom Element Radius
    1     8    1.40
    2     8    1.40
    3     8    1.40
    4     8    1.40
    5    15    1.80
    6    20    1.19
    7    20    1.19
    8    20    1.19

 **********************************************************************

            Electrostatic Properties Using The SCF Density

 **********************************************************************

       Atomic Center    1 is at  -2.932360 -0.000035 -0.519371
       Atomic Center    2 is at  -0.818149 -1.275388  0.514619
       Atomic Center    3 is at  -0.818191  1.275342  0.514659
       Atomic Center    4 is at   1.814600  0.000042  0.063759
       Atomic Center    5 is at  -1.447120 -0.000028 -0.356951
       Atomic Center    6 is at   0.856717  1.755927 -0.944621
       Atomic Center    7 is at   0.856793 -1.755873 -0.944661
       Atomic Center    8 is at   0.473470 -0.000017  1.927529
     693 points will be used for fitting atomic charges
 Fitting point charges to eletrostatic potential
 Charges from ESP fit, RMS=   0.01231 RRMS=   0.07217:
 Charge=   1.00000 Dipole=    12.7254     0.0001    -0.2065 Tot=    12.7270
              1
     1  O   -0.105623
     2  O   -0.533954
     3  O   -0.533968
     4  O   -1.565944
     5  P   -0.740806
     6  Ca   1.453389
     7  Ca   1.453382
     8  Ca   1.573524
 -----------------------------------------------------------------

              Electrostatic Properties (Atomic Units)

 -----------------------------------------------------------------
    Center     Electric         -------- Electric Field --------
               Potential          X             Y             Z
 -----------------------------------------------------------------
    1 Atom    -22.283985
    2 Atom    -22.240012
    3 Atom    -22.240010
    4 Atom    -22.282683
    5 Atom    -53.947734
    6 Atom    -80.017470
    7 Atom    -80.017468
    8 Atom    -80.031547
 -----------------------------------------------------------------
 1\1\GINC-N028\SP\RB3LYP\6-31+G(d,p)\Ca3O4P1(1+)\TIMN\12-Jun-2015\0\\# 
 b3lyp/6-31+G(d,p) int=ultrafine pop=(ReadRadii,MK)\\Ca3PO4_90.mol2_plu
 sQ.z51508.zip.xyz\\1,1\O,0,-2.93236,-0.00008,-0.51937\O,0,-0.81813,-1.
 2754,0.51462\O,0,-0.81821,1.27533,0.51466\O,0,1.8146,0.00007,0.06376\P
 ,0,-1.44712,-0.00005,-0.35695\Ca,0,0.85669,1.75594,-0.94462\Ca,0,0.856
 82,-1.75586,-0.94466\Ca,0,0.47347,-0.00001,1.92753\\Version=EM64T-G03R
 evE.01\State=1-A\HF=-2674.9883044\RMSD=8.885e-05\Thermal=0.\Dipole=4.9
 922432,0.0001266,0.0232961\PG=C01 [X(Ca3O4P1)]\\@


 Cherishing children is the mark of a civilized society.
 -- Joan Ganz Cooney
 Job cpu time:  0 days  0 hours  2 minutes 12.5 seconds.
 File lengths (MBytes):  RWF=     32 Int=      0 D2E=      0 Chk=     11 Scr=      1
 Normal termination of Gaussian 03 at Fri Jun 12 17:46:28 2015.
