 Entering Gaussian System, Link 0=/home/timn/tmp/g03.e01/g03
 Input=Ca3PO4_195.mol2c_plusQc.z51692.zip.xyz.gjf
 Output=Ca3PO4_195.mol2c_plusQc.z51692.zip.xyz.out
 Initial command:
 /home/timn/tmp/g03.e01/l1.exe /home/timn/tmp/g03.e01/Gau-13253.inp -scrdir=/home/timn/tmp/g03.e01/
 Default is to use a total of   2 processors:
                                2 via shared-memory
                                1 via Linda
 Entering Link 1 = /home/timn/tmp/g03.e01/l1.exe PID=     13254.
  
 Copyright (c) 1988,1990,1992,1993,1995,1998,2003,2004,2007, Gaussian, Inc.
                  All Rights Reserved.
  
 This is the Gaussian(R) 03 program.  It is based on the
 the Gaussian(R) 98 system (copyright 1998, Gaussian, Inc.),
 the Gaussian(R) 94 system (copyright 1995, Gaussian, Inc.),
 the Gaussian 92(TM) system (copyright 1992, Gaussian, Inc.),
 the Gaussian 90(TM) system (copyright 1990, Gaussian, Inc.),
 the Gaussian 88(TM) system (copyright 1988, Gaussian, Inc.),
 the Gaussian 86(TM) system (copyright 1986, Carnegie Mellon
 University), and the Gaussian 82(TM) system (copyright 1983,
 Carnegie Mellon University). Gaussian is a federally registered
 trademark of Gaussian, Inc.
  
 This software contains proprietary and confidential information,
 including trade secrets, belonging to Gaussian, Inc.
  
 This software is provided under written license and may be
 used, copied, transmitted, or stored only in accord with that
 written license.
  
 The following legend is applicable only to US Government
 contracts under FAR:
  
                    RESTRICTED RIGHTS LEGEND
  
 Use, reproduction and disclosure by the US Government is
 subject to restrictions as set forth in subparagraphs (a)
 and (c) of the Commercial Computer Software - Restricted
 Rights clause in FAR 52.227-19.
  
 Gaussian, Inc.
 340 Quinnipiac St., Bldg. 40, Wallingford CT 06492
  
  
 ---------------------------------------------------------------
 Warning -- This program may not be used in any manner that
 competes with the business of Gaussian, Inc. or will provide
 assistance to any competitor of Gaussian, Inc.  The licensee
 of this program is prohibited from giving any competitor of
 Gaussian, Inc. access to this program.  By using this program,
 the user acknowledges that Gaussian, Inc. is engaged in the
 business of creating and licensing software in the field of
 computational chemistry and represents and warrants to the
 licensee that it is not a competitor of Gaussian, Inc. and that
 it will not use this program in any manner prohibited above.
 ---------------------------------------------------------------
  

 Cite this work as:
 Gaussian 03, Revision E.01,
 M. J. Frisch, G. W. Trucks, H. B. Schlegel, G. E. Scuseria, 
 M. A. Robb, J. R. Cheeseman, J. A. Montgomery, Jr., T. Vreven, 
 K. N. Kudin, J. C. Burant, J. M. Millam, S. S. Iyengar, J. Tomasi, 
 V. Barone, B. Mennucci, M. Cossi, G. Scalmani, N. Rega, 
 G. A. Petersson, H. Nakatsuji, M. Hada, M. Ehara, K. Toyota, 
 R. Fukuda, J. Hasegawa, M. Ishida, T. Nakajima, Y. Honda, O. Kitao, 
 H. Nakai, M. Klene, X. Li, J. E. Knox, H. P. Hratchian, J. B. Cross, 
 V. Bakken, C. Adamo, J. Jaramillo, R. Gomperts, R. E. Stratmann, 
 O. Yazyev, A. J. Austin, R. Cammi, C. Pomelli, J. W. Ochterski, 
 P. Y. Ayala, K. Morokuma, G. A. Voth, P. Salvador, J. J. Dannenberg, 
 V. G. Zakrzewski, S. Dapprich, A. D. Daniels, M. C. Strain, 
 O. Farkas, D. K. Malick, A. D. Rabuck, K. Raghavachari, 
 J. B. Foresman, J. V. Ortiz, Q. Cui, A. G. Baboul, S. Clifford, 
 J. Cioslowski, B. B. Stefanov, G. Liu, A. Liashenko, P. Piskorz, 
 I. Komaromi, R. L. Martin, D. J. Fox, T. Keith, M. A. Al-Laham, 
 C. Y. Peng, A. Nanayakkara, M. Challacombe, P. M. W. Gill, 
 B. Johnson, W. Chen, M. W. Wong, C. Gonzalez, and J. A. Pople, 
 Gaussian, Inc., Wallingford CT, 2004.
 
 ******************************************
 Gaussian 03:  EM64T-G03RevE.01 11-Sep-2007
                12-Jun-2015 
 ******************************************
 %nproc=2
 Will use up to    2 processors via shared memory.
 Default route:  MP2=Direct MaxDisk=2000MB
 ----------------------------------------------------
 # b3lyp/6-31+G(d,p) int=ultrafine pop=(ReadRadii,MK)
 ----------------------------------------------------

 Warning!  SCF SP cutoffs with diffuse functions may be unreliable.
 Consider SCF=Tight

 1/38=1/1;
 2/17=6,18=5,40=1/2;
 3/5=1,6=6,7=111,11=2,16=1,25=1,30=1,74=-5,75=5/1,2,3;
 4//1;
 5/5=2,32=1,38=5/2;
 6/7=2,8=2,9=2,10=2,15=8,20=101,28=1/1,2;
 99/5=1,9=1/99;
 --------------------------------------
 Ca3PO4_195.mol2c_plusQc.z51692.zip.xyz
 --------------------------------------
 Symbolic Z-matrix:
 Charge =  1 Multiplicity = 1
 O                     2.96359  -1.32696   0.00543 
 O                     0.88816   0.95691  -0.00446 
 O                    -3.36145   0.66625   0.01426 
 O                    -1.55667  -1.0229   -0.01144 
 P                    -3.11242  -0.85269   0.0095 
 Ca                    3.13939   0.7953    0.00776 
 Ca                    0.80655  -1.42365  -0.00724 
 Ca                   -1.18508   1.55854  -0.00917 
 
                          Input orientation:                          
 ---------------------------------------------------------------------
 Center     Atomic     Atomic              Coordinates (Angstroms)
 Number     Number      Type              X           Y           Z
 ---------------------------------------------------------------------
    1          8             0        2.963590   -1.326960    0.005430
    2          8             0        0.888160    0.956910   -0.004460
    3          8             0       -3.361450    0.666250    0.014260
    4          8             0       -1.556670   -1.022900   -0.011440
    5         15             0       -3.112420   -0.852690    0.009500
    6         20             0        3.139390    0.795300    0.007760
    7         20             0        0.806550   -1.423650   -0.007240
    8         20             0       -1.185080    1.558540   -0.009170
 ---------------------------------------------------------------------
                    Distance matrix (angstroms):
                    1          2          3          4          5
     1  O    0.000000
     2  O    3.086028   0.000000
     3  O    6.631674   4.259580   0.000000
     4  O    4.530506   3.145932   2.472068   0.000000
     5  P    6.094493   4.390841   1.539226   1.565173   0.000000
     6  Ca   2.129530   2.257056   6.502124   5.035792   6.465369
     7  Ca   2.159243   2.381960   4.662657   2.396962   3.960379
     8  Ca   5.053492   2.158774   2.352300   2.608048   3.086911
                    6          7          8
     6  Ca   0.000000
     7  Ca   3.219644   0.000000
     8  Ca   4.391340   3.586091   0.000000
 Stoichiometry    Ca3O4P(1+)
 Framework group  C1[X(Ca3O4P)]
 Deg. of freedom    18
 Full point group                 C1
 Largest Abelian subgroup         C1      NOp   1
 Largest concise Abelian subgroup C1      NOp   1
                         Standard orientation:                         
 ---------------------------------------------------------------------
 Center     Atomic     Atomic              Coordinates (Angstroms)
 Number     Number      Type              X           Y           Z
 ---------------------------------------------------------------------
    1          8             0        2.963591   -1.326958    0.005432
    2          8             0        0.888160    0.956912   -0.004458
    3          8             0       -3.361450    0.666251    0.014262
    4          8             0       -1.556669   -1.022899   -0.011438
    5         15             0       -3.112419   -0.852689    0.009502
    6         20             0        3.139390    0.795302    0.007762
    7         20             0        0.806551   -1.423648   -0.007238
    8         20             0       -1.185080    1.558541   -0.009168
 ---------------------------------------------------------------------
 Rotational constants (GHZ):      1.7277041      0.4399959      0.3506945
 Standard basis: 6-31+G(d,p) (6D, 7F)
 There are   180 symmetry adapted basis functions of A   symmetry.
 Integral buffers will be    131072 words long.
 Raffenetti 2 integral format.
 Two-electron integral symmetry is turned on.
   180 basis functions,   424 primitive gaussians,   180 cartesian basis functions
    53 alpha electrons       53 beta electrons
       nuclear repulsion energy       811.4996463195 Hartrees.
 NAtoms=    8 NActive=    8 NUniq=    8 SFac= 7.50D-01 NAtFMM=   80 NAOKFM=F Big=F
 One-electron integrals computed using PRISM.
 NBasis=   180 RedAO= T  NBF=   180
 NBsUse=   180 1.00D-06 NBFU=   180
 Harris functional with IExCor=  402 diagonalized for initial guess.
 ExpMin= 7.10D-03 ExpMax= 3.53D+04 ExpMxC= 5.30D+03 IAcc=3 IRadAn=         5 AccDes= 0.00D+00
 HarFok:  IExCor= 402 AccDes= 0.00D+00 IRadAn=         5 IDoV=1
 ScaDFX=  1.000000  1.000000  1.000000  1.000000
 Initial guess orbital symmetries:
       Occupied  (A) (A) (A) (A) (A) (A) (A) (A) (A) (A) (A) (A)
                 (A) (A) (A) (A) (A) (A) (A) (A) (A) (A) (A) (A)
                 (A) (A) (A) (A) (A) (A) (A) (A) (A) (A) (A) (A)
                 (A) (A) (A) (A) (A) (A) (A) (A) (A) (A) (A) (A)
                 (A) (A) (A) (A) (A)
       Virtual   (A) (A) (A) (A) (A) (A) (A) (A) (A) (A) (A) (A)
                 (A) (A) (A) (A) (A) (A) (A) (A) (A) (A) (A) (A)
                 (A) (A) (A) (A) (A) (A) (A) (A) (A) (A) (A) (A)
                 (A) (A) (A) (A) (A) (A) (A) (A) (A) (A) (A) (A)
                 (A) (A) (A) (A) (A) (A) (A) (A) (A) (A) (A) (A)
                 (A) (A) (A) (A) (A) (A) (A) (A) (A) (A) (A) (A)
                 (A) (A) (A) (A) (A) (A) (A) (A) (A) (A) (A) (A)
                 (A) (A) (A) (A) (A) (A) (A) (A) (A) (A) (A) (A)
                 (A) (A) (A) (A) (A) (A) (A) (A) (A) (A) (A) (A)
                 (A) (A) (A) (A) (A) (A) (A) (A) (A) (A) (A) (A)
                 (A) (A) (A) (A) (A) (A) (A)
 The electronic state of the initial guess is 1-A.
 Requested convergence on RMS density matrix=1.00D-04 within 128 cycles.
 Requested convergence on MAX density matrix=1.00D-02.
 Requested convergence on             energy=1.00D-02.
 No special actions if energy rises.
 EnCoef did     3 forward-backward iterations
 EnCoef did   100 forward-backward iterations
 EnCoef did     4 forward-backward iterations
 EnCoef did     3 forward-backward iterations
 SCF Done:  E(RB+HF-LYP) =  -2675.00688260     A.U. after   10 cycles
             Convg  =    0.6979D-04             -V/T =  2.0027
             S**2   =   0.0000

 **********************************************************************

            Population analysis using the SCF density.

 **********************************************************************

 Orbital symmetries:
       Occupied  (A) (A) (A) (A) (A) (A) (A) (A) (A) (A) (A) (A)
                 (A) (A) (A) (A) (A) (A) (A) (A) (A) (A) (A) (A)
                 (A) (A) (A) (A) (A) (A) (A) (A) (A) (A) (A) (A)
                 (A) (A) (A) (A) (A) (A) (A) (A) (A) (A) (A) (A)
                 (A) (A) (A) (A) (A)
       Virtual   (A) (A) (A) (A) (A) (A) (A) (A) (A) (A) (A) (A)
                 (A) (A) (A) (A) (A) (A) (A) (A) (A) (A) (A) (A)
                 (A) (A) (A) (A) (A) (A) (A) (A) (A) (A) (A) (A)
                 (A) (A) (A) (A) (A) (A) (A) (A) (A) (A) (A) (A)
                 (A) (A) (A) (A) (A) (A) (A) (A) (A) (A) (A) (A)
                 (A) (A) (A) (A) (A) (A) (A) (A) (A) (A) (A) (A)
                 (A) (A) (A) (A) (A) (A) (A) (A) (A) (A) (A) (A)
                 (A) (A) (A) (A) (A) (A) (A) (A) (A) (A) (A) (A)
                 (A) (A) (A) (A) (A) (A) (A) (A) (A) (A) (A) (A)
                 (A) (A) (A) (A) (A) (A) (A) (A) (A) (A) (A) (A)
                 (A) (A) (A) (A) (A) (A) (A)
 The electronic state is 1-A.
 Alpha  occ. eigenvalues -- -145.52249-145.46957-145.45471 -77.31379 -19.29526
 Alpha  occ. eigenvalues --  -19.28776 -19.16998 -19.10495 -15.59158 -15.53855
 Alpha  occ. eigenvalues --  -15.52400 -12.72423 -12.72378 -12.72178 -12.67097
 Alpha  occ. eigenvalues --  -12.67012 -12.66934 -12.65669 -12.65578 -12.65443
 Alpha  occ. eigenvalues --   -6.76965  -4.93401  -4.93169  -4.92753  -1.96409
 Alpha  occ. eigenvalues --   -1.91146  -1.89815  -1.24341  -1.24332  -1.23297
 Alpha  occ. eigenvalues --   -1.19017  -1.18768  -1.18119  -1.17867  -1.17284
 Alpha  occ. eigenvalues --   -1.17057  -1.15052  -1.09395  -0.91724  -0.84463
 Alpha  occ. eigenvalues --   -0.68460  -0.57417  -0.54764  -0.54079  -0.46488
 Alpha  occ. eigenvalues --   -0.45040  -0.42668  -0.37827  -0.36772  -0.35780
 Alpha  occ. eigenvalues --   -0.30011  -0.28562  -0.28246
 Alpha virt. eigenvalues --   -0.21259  -0.20096  -0.17856  -0.15074  -0.12974
 Alpha virt. eigenvalues --   -0.11120  -0.10411  -0.10247  -0.09294  -0.08853
 Alpha virt. eigenvalues --   -0.08429  -0.07238  -0.06844  -0.06421  -0.05448
 Alpha virt. eigenvalues --   -0.05195  -0.04874  -0.04491  -0.04412  -0.04127
 Alpha virt. eigenvalues --   -0.03950  -0.03926  -0.03800  -0.03181  -0.02927
 Alpha virt. eigenvalues --   -0.02911  -0.02807  -0.01947  -0.00603   0.01383
 Alpha virt. eigenvalues --    0.02651   0.03164   0.03246   0.03718   0.04807
 Alpha virt. eigenvalues --    0.05141   0.05816   0.06159   0.06330   0.06492
 Alpha virt. eigenvalues --    0.06689   0.07429   0.07865   0.09132   0.09505
 Alpha virt. eigenvalues --    0.10237   0.10906   0.11045   0.11571   0.12023
 Alpha virt. eigenvalues --    0.14029   0.15079   0.15408   0.16866   0.17960
 Alpha virt. eigenvalues --    0.18843   0.19584   0.21203   0.21548   0.23893
 Alpha virt. eigenvalues --    0.24307   0.26729   0.27292   0.28741   0.28824
 Alpha virt. eigenvalues --    0.30737   0.31756   0.32098   0.34006   0.36413
 Alpha virt. eigenvalues --    0.38784   0.40421   0.42610   0.46016   0.46315
 Alpha virt. eigenvalues --    0.51364   0.54111   0.56260   0.60087   0.61199
 Alpha virt. eigenvalues --    0.63594   0.82606   0.87224   0.94451   1.04816
 Alpha virt. eigenvalues --    1.07418   1.09891   1.10865   1.13154   1.15605
 Alpha virt. eigenvalues --    1.18014   1.18403   1.18817   1.20791   1.24858
 Alpha virt. eigenvalues --    1.26180   1.33154   1.34347   1.40484   1.44272
 Alpha virt. eigenvalues --    1.54629   1.62944   1.63817   1.66250   1.69789
 Alpha virt. eigenvalues --    1.73127   1.77851   1.78811   1.80250   1.82507
 Alpha virt. eigenvalues --    1.86350   1.87120   1.87261   1.88565   1.88701
 Alpha virt. eigenvalues --    1.94756   1.99537   2.01759   2.05587   2.18234
 Alpha virt. eigenvalues --    2.51138   2.67805   3.38874   3.86696   3.88452
 Alpha virt. eigenvalues --    3.94329   4.05734
          Condensed to atoms (all electrons):
              1          2          3          4          5          6
     1  O    8.704869  -0.024818  -0.000002  -0.003671  -0.000322   0.226324
     2  O   -0.024818   9.039317  -0.000588  -0.015543  -0.010093   0.093506
     3  O   -0.000002  -0.000588   8.554351  -0.079589   0.096808   0.001760
     4  O   -0.003671  -0.015543  -0.079589   8.926062  -0.137700   0.005228
     5  P   -0.000322  -0.010093   0.096808  -0.137700  14.404268  -0.011968
     6  Ca   0.226324   0.093506   0.001760   0.005228  -0.011968  18.378756
     7  Ca   0.233552   0.044436   0.005512   0.029241   0.003704  -0.027899
     8  Ca  -0.003438   0.195285   0.075096   0.018501  -0.020610  -0.013012
              7          8
     1  O    0.233552  -0.003438
     2  O    0.044436   0.195285
     3  O    0.005512   0.075096
     4  O    0.029241   0.018501
     5  P    0.003704  -0.020610
     6  Ca  -0.027899  -0.013012
     7  Ca  18.388663  -0.004945
     8  Ca  -0.004945  18.254203
 Mulliken atomic charges:
              1
     1  O   -1.132494
     2  O   -1.321502
     3  O   -0.653351
     4  O   -0.742529
     5  P    0.675913
     6  Ca   1.347305
     7  Ca   1.327736
     8  Ca   1.498921
 Sum of Mulliken charges=   1.00000
 Atomic charges with hydrogens summed into heavy atoms:
              1
     1  O   -1.132494
     2  O   -1.321502
     3  O   -0.653351
     4  O   -0.742529
     5  P    0.675913
     6  Ca   1.347305
     7  Ca   1.327736
     8  Ca   1.498921
 Sum of Mulliken charges=   1.00000
 Electronic spatial extent (au):  <R**2>=  2691.2120
 Charge=     1.0000 electrons
 Dipole moment (field-independent basis, Debye):
    X=    -0.1881    Y=     8.1435    Z=    -0.0552  Tot=     8.1458
 Quadrupole moment (field-independent basis, Debye-Ang):
   XX=   -60.1313   YY=   -52.1489   ZZ=   -68.9239
   XY=    23.1996   XZ=     0.1904   YZ=     0.0076
 Traceless Quadrupole moment (field-independent basis, Debye-Ang):
   XX=     0.2701   YY=     8.2525   ZZ=    -8.5226
   XY=    23.1996   XZ=     0.1904   YZ=     0.0076
 Octapole moment (field-independent basis, Debye-Ang**2):
  XXX=   106.0358  YYY=    40.8382  ZZZ=    -0.1665  XYY=   -23.5240
  XXY=   115.9797  XXZ=    -0.1789  XZZ=    -0.3978  YZZ=     6.6587
  YYZ=    -0.3482  XYZ=     0.7060
 Hexadecapole moment (field-independent basis, Debye-Ang**3):
 XXXX= -2348.6162 YYYY=  -551.2000 ZZZZ=   -83.7926 XXXY=   514.8847
 XXXZ=     2.8910 YYYX=    -5.4450 YYYZ=     0.0958 ZZZX=     0.4436
 ZZZY=     0.1141 XXYY=  -552.9953 XXZZ=  -411.3874 YYZZ=  -114.2305
 XXYZ=     0.3787 YYXZ=     0.3379 ZZXY=     8.4311
 N-N= 8.114996463195D+02 E-N=-7.947150625470D+03  KE= 2.667695964052D+03
 Merz-Kollman atomic radii used.
 Read replacement radii for each type of atom:
 Rad(20) =   1.188000000000D+00
 Atom Element Radius
    1     8    1.40
    2     8    1.40
    3     8    1.40
    4     8    1.40
    5    15    1.80
    6    20    1.19
    7    20    1.19
    8    20    1.19

 **********************************************************************

            Electrostatic Properties Using The SCF Density

 **********************************************************************

       Atomic Center    1 is at   2.963591 -1.326958  0.005432
       Atomic Center    2 is at   0.888160  0.956912 -0.004458
       Atomic Center    3 is at  -3.361450  0.666251  0.014262
       Atomic Center    4 is at  -1.556669 -1.022899 -0.011438
       Atomic Center    5 is at  -3.112419 -0.852689  0.009502
       Atomic Center    6 is at   3.139390  0.795302  0.007762
       Atomic Center    7 is at   0.806551 -1.423648 -0.007238
       Atomic Center    8 is at  -1.185080  1.558541 -0.009168
     817 points will be used for fitting atomic charges
 Fitting point charges to eletrostatic potential
 Charges from ESP fit, RMS=   0.00583 RRMS=   0.03901:
 Charge=   1.00000 Dipole=     0.2370     8.4401    -0.0529 Tot=     8.4436
              1
     1  O   -1.485354
     2  O   -1.713593
     3  O   -0.641736
     4  O   -0.730569
     5  P    0.562687
     6  Ca   1.628341
     7  Ca   1.668992
     8  Ca   1.711231
 -----------------------------------------------------------------

              Electrostatic Properties (Atomic Units)

 -----------------------------------------------------------------
    Center     Electric         -------- Electric Field --------
               Potential          X             Y             Z
 -----------------------------------------------------------------
    1 Atom    -22.366275
    2 Atom    -22.292884
    3 Atom    -22.177515
    4 Atom    -22.167846
    5 Atom    -53.904283
    6 Atom    -80.074344
    7 Atom    -80.086358
    8 Atom    -80.016842
 -----------------------------------------------------------------
 1\1\GINC-N059\SP\RB3LYP\6-31+G(d,p)\Ca3O4P1(1+)\TIMN\12-Jun-2015\0\\# 
 b3lyp/6-31+G(d,p) int=ultrafine pop=(ReadRadii,MK)\\Ca3PO4_195.mol2c_p
 lusQc.z51692.zip.xyz\\1,1\O,0,2.96359,-1.32696,0.00543\O,0,0.88816,0.9
 5691,-0.00446\O,0,-3.36145,0.66625,0.01426\O,0,-1.55667,-1.0229,-0.011
 44\P,0,-3.11242,-0.85269,0.0095\Ca,0,3.13939,0.7953,0.00776\Ca,0,0.806
 55,-1.42365,-0.00724\Ca,0,-1.18508,1.55854,-0.00917\\Version=EM64T-G03
 RevE.01\State=1-A\HF=-2675.0068826\RMSD=6.979e-05\Thermal=0.\Dipole=-0
 .0740209,3.2038839,-0.0217363\PG=C01 [X(Ca3O4P1)]\\@


 VIRTUE IS LEARNED AT YOUR MOTHER'S KNEE,
 VICES ARE PICKED UP AT SOME OTHER JOINT.
 Job cpu time:  0 days  0 hours  1 minutes 53.2 seconds.
 File lengths (MBytes):  RWF=     32 Int=      0 D2E=      0 Chk=     11 Scr=      1
 Normal termination of Gaussian 03 at Fri Jun 12 17:40:59 2015.
