 Entering Gaussian System, Link 0=/home/timn/tmp/g03.e01/g03
 Input=Ca3PO4_17.mol2c_plusQ.z51187.zip.xyz.gjf
 Output=Ca3PO4_17.mol2c_plusQ.z51187.zip.xyz.out
 Initial command:
 /home/timn/tmp/g03.e01/l1.exe /home/timn/tmp/g03.e01/Gau-13546.inp -scrdir=/home/timn/tmp/g03.e01/
 Default is to use a total of   2 processors:
                                2 via shared-memory
                                1 via Linda
 Entering Link 1 = /home/timn/tmp/g03.e01/l1.exe PID=     13547.
  
 Copyright (c) 1988,1990,1992,1993,1995,1998,2003,2004,2007, Gaussian, Inc.
                  All Rights Reserved.
  
 This is the Gaussian(R) 03 program.  It is based on the
 the Gaussian(R) 98 system (copyright 1998, Gaussian, Inc.),
 the Gaussian(R) 94 system (copyright 1995, Gaussian, Inc.),
 the Gaussian 92(TM) system (copyright 1992, Gaussian, Inc.),
 the Gaussian 90(TM) system (copyright 1990, Gaussian, Inc.),
 the Gaussian 88(TM) system (copyright 1988, Gaussian, Inc.),
 the Gaussian 86(TM) system (copyright 1986, Carnegie Mellon
 University), and the Gaussian 82(TM) system (copyright 1983,
 Carnegie Mellon University). Gaussian is a federally registered
 trademark of Gaussian, Inc.
  
 This software contains proprietary and confidential information,
 including trade secrets, belonging to Gaussian, Inc.
  
 This software is provided under written license and may be
 used, copied, transmitted, or stored only in accord with that
 written license.
  
 The following legend is applicable only to US Government
 contracts under FAR:
  
                    RESTRICTED RIGHTS LEGEND
  
 Use, reproduction and disclosure by the US Government is
 subject to restrictions as set forth in subparagraphs (a)
 and (c) of the Commercial Computer Software - Restricted
 Rights clause in FAR 52.227-19.
  
 Gaussian, Inc.
 340 Quinnipiac St., Bldg. 40, Wallingford CT 06492
  
  
 ---------------------------------------------------------------
 Warning -- This program may not be used in any manner that
 competes with the business of Gaussian, Inc. or will provide
 assistance to any competitor of Gaussian, Inc.  The licensee
 of this program is prohibited from giving any competitor of
 Gaussian, Inc. access to this program.  By using this program,
 the user acknowledges that Gaussian, Inc. is engaged in the
 business of creating and licensing software in the field of
 computational chemistry and represents and warrants to the
 licensee that it is not a competitor of Gaussian, Inc. and that
 it will not use this program in any manner prohibited above.
 ---------------------------------------------------------------
  

 Cite this work as:
 Gaussian 03, Revision E.01,
 M. J. Frisch, G. W. Trucks, H. B. Schlegel, G. E. Scuseria, 
 M. A. Robb, J. R. Cheeseman, J. A. Montgomery, Jr., T. Vreven, 
 K. N. Kudin, J. C. Burant, J. M. Millam, S. S. Iyengar, J. Tomasi, 
 V. Barone, B. Mennucci, M. Cossi, G. Scalmani, N. Rega, 
 G. A. Petersson, H. Nakatsuji, M. Hada, M. Ehara, K. Toyota, 
 R. Fukuda, J. Hasegawa, M. Ishida, T. Nakajima, Y. Honda, O. Kitao, 
 H. Nakai, M. Klene, X. Li, J. E. Knox, H. P. Hratchian, J. B. Cross, 
 V. Bakken, C. Adamo, J. Jaramillo, R. Gomperts, R. E. Stratmann, 
 O. Yazyev, A. J. Austin, R. Cammi, C. Pomelli, J. W. Ochterski, 
 P. Y. Ayala, K. Morokuma, G. A. Voth, P. Salvador, J. J. Dannenberg, 
 V. G. Zakrzewski, S. Dapprich, A. D. Daniels, M. C. Strain, 
 O. Farkas, D. K. Malick, A. D. Rabuck, K. Raghavachari, 
 J. B. Foresman, J. V. Ortiz, Q. Cui, A. G. Baboul, S. Clifford, 
 J. Cioslowski, B. B. Stefanov, G. Liu, A. Liashenko, P. Piskorz, 
 I. Komaromi, R. L. Martin, D. J. Fox, T. Keith, M. A. Al-Laham, 
 C. Y. Peng, A. Nanayakkara, M. Challacombe, P. M. W. Gill, 
 B. Johnson, W. Chen, M. W. Wong, C. Gonzalez, and J. A. Pople, 
 Gaussian, Inc., Wallingford CT, 2004.
 
 ******************************************
 Gaussian 03:  EM64T-G03RevE.01 11-Sep-2007
                12-Jun-2015 
 ******************************************
 %nproc=2
 Will use up to    2 processors via shared memory.
 Default route:  MP2=Direct MaxDisk=2000MB
 ----------------------------------------------------
 # b3lyp/6-31+G(d,p) int=ultrafine pop=(ReadRadii,MK)
 ----------------------------------------------------

 Warning!  SCF SP cutoffs with diffuse functions may be unreliable.
 Consider SCF=Tight

 1/38=1/1;
 2/17=6,18=5,40=1/2;
 3/5=1,6=6,7=111,11=2,16=1,25=1,30=1,74=-5,75=5/1,2,3;
 4//1;
 5/5=2,32=1,38=5/2;
 6/7=2,8=2,9=2,10=2,15=8,20=101,28=1/1,2;
 99/5=1,9=1/99;
 ------------------------------------
 Ca3PO4_17.mol2c_plusQ.z51187.zip.xyz
 ------------------------------------
 Symbolic Z-matrix:
 Charge =  1 Multiplicity = 1
 O                    -1.01414  -1.42047   0.85506 
 O                    -0.94967   0.4222   -0.81629 
 O                     0.97883  -1.43005  -0.85398 
 O                     0.94998   0.39674   0.83511 
 P                    -0.00915  -0.61034   0.00589 
 Ca                    0.03617   2.38914  -0.00041 
 Ca                    2.90337  -0.57756   0.00325 
 Ca                   -2.91868  -0.54119  -0.01522 
 
                          Input orientation:                          
 ---------------------------------------------------------------------
 Center     Atomic     Atomic              Coordinates (Angstroms)
 Number     Number      Type              X           Y           Z
 ---------------------------------------------------------------------
    1          8             0       -1.014140   -1.420470    0.855060
    2          8             0       -0.949670    0.422200   -0.816290
    3          8             0        0.978830   -1.430050   -0.853980
    4          8             0        0.949980    0.396740    0.835110
    5         15             0       -0.009150   -0.610340    0.005890
    6         20             0        0.036170    2.389140   -0.000410
    7         20             0        2.903370   -0.577560    0.003250
    8         20             0       -2.918680   -0.541190   -0.015220
 ---------------------------------------------------------------------
                    Distance matrix (angstroms):
                    1          2          3          4          5
     1  O    0.000000
     2  O    2.488574   0.000000
     3  O    2.625422   2.674203   0.000000
     4  O    2.675896   2.517229   2.488176   0.000000
     5  P    1.545123   1.620709   1.545123   1.619181   0.000000
     6  Ca   4.043279   2.346571   4.025345   2.345805   2.999829
     7  Ca   4.096701   4.064121   2.272760   2.336019   2.912706
     8  Ca   2.271078   2.333845   4.084627   4.070541   2.910428
                    6          7          8
     6  Ca   0.000000
     7  Ca   4.125792   0.000000
     8  Ca   4.161513   5.822193   0.000000
 Stoichiometry    Ca3O4P(1+)
 Framework group  C1[X(Ca3O4P)]
 Deg. of freedom    18
 Full point group                 C1
 Largest Abelian subgroup         C1      NOp   1
 Largest concise Abelian subgroup C1      NOp   1
                         Standard orientation:                         
 ---------------------------------------------------------------------
 Center     Atomic     Atomic              Coordinates (Angstroms)
 Number     Number      Type              X           Y           Z
 ---------------------------------------------------------------------
    1          8             0       -1.014137   -1.420472    0.855060
    2          8             0       -0.949670    0.422198   -0.816290
    3          8             0        0.978833   -1.430049   -0.853980
    4          8             0        0.949980    0.396741    0.835110
    5         15             0       -0.009149   -0.610341    0.005890
    6         20             0        0.036167    2.389139   -0.000410
    7         20             0        2.903371   -0.577556    0.003250
    8         20             0       -2.918679   -0.541195   -0.015220
 ---------------------------------------------------------------------
 Rotational constants (GHZ):      1.3292005      0.6453000      0.4709891
 Standard basis: 6-31+G(d,p) (6D, 7F)
 There are   180 symmetry adapted basis functions of A   symmetry.
 Integral buffers will be    131072 words long.
 Raffenetti 2 integral format.
 Two-electron integral symmetry is turned on.
   180 basis functions,   424 primitive gaussians,   180 cartesian basis functions
    53 alpha electrons       53 beta electrons
       nuclear repulsion energy       884.2220928717 Hartrees.
 NAtoms=    8 NActive=    8 NUniq=    8 SFac= 7.50D-01 NAtFMM=   80 NAOKFM=F Big=F
 One-electron integrals computed using PRISM.
 NBasis=   180 RedAO= T  NBF=   180
 NBsUse=   180 1.00D-06 NBFU=   180
 Harris functional with IExCor=  402 diagonalized for initial guess.
 ExpMin= 7.10D-03 ExpMax= 3.53D+04 ExpMxC= 5.30D+03 IAcc=3 IRadAn=         5 AccDes= 0.00D+00
 HarFok:  IExCor= 402 AccDes= 0.00D+00 IRadAn=         5 IDoV=1
 ScaDFX=  1.000000  1.000000  1.000000  1.000000
 Initial guess orbital symmetries:
       Occupied  (A) (A) (A) (A) (A) (A) (A) (A) (A) (A) (A) (A)
                 (A) (A) (A) (A) (A) (A) (A) (A) (A) (A) (A) (A)
                 (A) (A) (A) (A) (A) (A) (A) (A) (A) (A) (A) (A)
                 (A) (A) (A) (A) (A) (A) (A) (A) (A) (A) (A) (A)
                 (A) (A) (A) (A) (A)
       Virtual   (A) (A) (A) (A) (A) (A) (A) (A) (A) (A) (A) (A)
                 (A) (A) (A) (A) (A) (A) (A) (A) (A) (A) (A) (A)
                 (A) (A) (A) (A) (A) (A) (A) (A) (A) (A) (A) (A)
                 (A) (A) (A) (A) (A) (A) (A) (A) (A) (A) (A) (A)
                 (A) (A) (A) (A) (A) (A) (A) (A) (A) (A) (A) (A)
                 (A) (A) (A) (A) (A) (A) (A) (A) (A) (A) (A) (A)
                 (A) (A) (A) (A) (A) (A) (A) (A) (A) (A) (A) (A)
                 (A) (A) (A) (A) (A) (A) (A) (A) (A) (A) (A) (A)
                 (A) (A) (A) (A) (A) (A) (A) (A) (A) (A) (A) (A)
                 (A) (A) (A) (A) (A) (A) (A) (A) (A) (A) (A) (A)
                 (A) (A) (A) (A) (A) (A) (A)
 The electronic state of the initial guess is 1-A.
 Requested convergence on RMS density matrix=1.00D-04 within 128 cycles.
 Requested convergence on MAX density matrix=1.00D-02.
 Requested convergence on             energy=1.00D-02.
 No special actions if energy rises.
 SCF Done:  E(RB+HF-LYP) =  -2675.02389745     A.U. after   10 cycles
             Convg  =    0.8863D-04             -V/T =  2.0027
             S**2   =   0.0000

 **********************************************************************

            Population analysis using the SCF density.

 **********************************************************************

 Orbital symmetries:
       Occupied  (A) (A) (A) (A) (A) (A) (A) (A) (A) (A) (A) (A)
                 (A) (A) (A) (A) (A) (A) (A) (A) (A) (A) (A) (A)
                 (A) (A) (A) (A) (A) (A) (A) (A) (A) (A) (A) (A)
                 (A) (A) (A) (A) (A) (A) (A) (A) (A) (A) (A) (A)
                 (A) (A) (A) (A) (A)
       Virtual   (A) (A) (A) (A) (A) (A) (A) (A) (A) (A) (A) (A)
                 (A) (A) (A) (A) (A) (A) (A) (A) (A) (A) (A) (A)
                 (A) (A) (A) (A) (A) (A) (A) (A) (A) (A) (A) (A)
                 (A) (A) (A) (A) (A) (A) (A) (A) (A) (A) (A) (A)
                 (A) (A) (A) (A) (A) (A) (A) (A) (A) (A) (A) (A)
                 (A) (A) (A) (A) (A) (A) (A) (A) (A) (A) (A) (A)
                 (A) (A) (A) (A) (A) (A) (A) (A) (A) (A) (A) (A)
                 (A) (A) (A) (A) (A) (A) (A) (A) (A) (A) (A) (A)
                 (A) (A) (A) (A) (A) (A) (A) (A) (A) (A) (A) (A)
                 (A) (A) (A) (A) (A) (A) (A) (A) (A) (A) (A) (A)
                 (A) (A) (A) (A) (A) (A) (A)
 The electronic state is 1-A.
 Alpha  occ. eigenvalues -- -145.53475-145.53285-145.51738 -77.32269 -19.24232
 Alpha  occ. eigenvalues --  -19.24205 -19.22174 -19.22074 -15.60362 -15.60174
 Alpha  occ. eigenvalues --  -15.58662 -12.73590 -12.73522 -12.73475 -12.73401
 Alpha  occ. eigenvalues --  -12.73335 -12.73287 -12.71878 -12.71819 -12.71770
 Alpha  occ. eigenvalues --   -6.76634  -4.93063  -4.92975  -4.92900  -1.97390
 Alpha  occ. eigenvalues --   -1.97208  -1.95739  -1.25077  -1.24982  -1.24813
 Alpha  occ. eigenvalues --   -1.24761  -1.24649  -1.24470  -1.23294  -1.23229
 Alpha  occ. eigenvalues --   -1.23050  -1.13458  -1.05324  -1.04517  -1.03727
 Alpha  occ. eigenvalues --   -0.63581  -0.55121  -0.54392  -0.53422  -0.48081
 Alpha  occ. eigenvalues --   -0.45556  -0.45065  -0.43204  -0.42774  -0.40368
 Alpha  occ. eigenvalues --   -0.39062  -0.37943  -0.25280
 Alpha virt. eigenvalues --   -0.22081  -0.20679  -0.15425  -0.13345  -0.13279
 Alpha virt. eigenvalues --   -0.12176  -0.11584  -0.11418  -0.10355  -0.08710
 Alpha virt. eigenvalues --   -0.07707  -0.07170  -0.06125  -0.05498  -0.05270
 Alpha virt. eigenvalues --   -0.04944  -0.04690  -0.04501  -0.04355  -0.04316
 Alpha virt. eigenvalues --   -0.03706  -0.03502  -0.03452  -0.02487  -0.02393
 Alpha virt. eigenvalues --   -0.01129  -0.01105   0.00006   0.00777   0.02251
 Alpha virt. eigenvalues --    0.02394   0.02519   0.02659   0.03153   0.04020
 Alpha virt. eigenvalues --    0.04404   0.04669   0.04934   0.05352   0.05608
 Alpha virt. eigenvalues --    0.06136   0.06454   0.06652   0.06788   0.06870
 Alpha virt. eigenvalues --    0.07836   0.08228   0.08623   0.09153   0.09518
 Alpha virt. eigenvalues --    0.10521   0.13329   0.15077   0.16204   0.16800
 Alpha virt. eigenvalues --    0.18060   0.19616   0.19848   0.20662   0.21726
 Alpha virt. eigenvalues --    0.23136   0.23531   0.24940   0.26905   0.27513
 Alpha virt. eigenvalues --    0.28605   0.29695   0.29844   0.33300   0.34266
 Alpha virt. eigenvalues --    0.36367   0.39007   0.39856   0.46481   0.53259
 Alpha virt. eigenvalues --    0.53443   0.54597   0.57670   0.59194   0.70121
 Alpha virt. eigenvalues --    0.74809   0.76881   0.79569   0.93654   0.95029
 Alpha virt. eigenvalues --    0.98520   1.13167   1.14090   1.16789   1.17536
 Alpha virt. eigenvalues --    1.19024   1.20650   1.20942   1.22720   1.22946
 Alpha virt. eigenvalues --    1.26203   1.28400   1.28570   1.45758   1.48927
 Alpha virt. eigenvalues --    1.55702   1.65172   1.68165   1.69364   1.70235
 Alpha virt. eigenvalues --    1.72916   1.73241   1.76838   1.80444   1.82581
 Alpha virt. eigenvalues --    1.83697   1.85384   1.86755   1.98528   1.99503
 Alpha virt. eigenvalues --    2.08946   2.13502   2.19337   2.47063   2.63198
 Alpha virt. eigenvalues --    2.71775   2.76481   3.47198   4.01345   4.01888
 Alpha virt. eigenvalues --    4.06361   4.09424
          Condensed to atoms (all electrons):
              1          2          3          4          5          6
     1  O    8.867062  -0.114241  -0.096183   0.051065   0.142767  -0.024588
     2  O   -0.114241   9.210219   0.052183   0.005464  -0.010746  -0.046955
     3  O   -0.096183   0.052183   8.859727  -0.112904   0.148778  -0.025456
     4  O    0.051065   0.005464  -0.112904   9.209615  -0.009099  -0.047550
     5  P    0.142767  -0.010746   0.148778  -0.009099  12.795371   0.044823
     6  Ca  -0.024588  -0.046955  -0.025456  -0.047550   0.044823  18.869801
     7  Ca  -0.023930  -0.036018   0.003959  -0.065788   0.056362   0.109687
     8  Ca   0.005861  -0.061916  -0.023080  -0.034879   0.054622   0.102271
              7          8
     1  O   -0.023930   0.005861
     2  O   -0.036018  -0.061916
     3  O    0.003959  -0.023080
     4  O   -0.065788  -0.034879
     5  P    0.056362   0.054622
     6  Ca   0.109687   0.102271
     7  Ca  18.921724   0.128446
     8  Ca   0.128446  18.920573
 Mulliken atomic charges:
              1
     1  O   -0.807811
     2  O   -0.997989
     3  O   -0.807024
     4  O   -0.995924
     5  P    1.777122
     6  Ca   1.017968
     7  Ca   0.905559
     8  Ca   0.908101
 Sum of Mulliken charges=   1.00000
 Atomic charges with hydrogens summed into heavy atoms:
              1
     1  O   -0.807811
     2  O   -0.997989
     3  O   -0.807024
     4  O   -0.995924
     5  P    1.777122
     6  Ca   1.017968
     7  Ca   0.905559
     8  Ca   0.908101
 Sum of Mulliken charges=   1.00000
 Electronic spatial extent (au):  <R**2>=  2123.5041
 Charge=     1.0000 electrons
 Dipole moment (field-independent basis, Debye):
    X=     0.0878    Y=     3.0992    Z=    -0.0512  Tot=     3.1009
 Quadrupole moment (field-independent basis, Debye-Ang):
   XX=   -10.8075   YY=   -69.8330   ZZ=   -88.7163
   XY=    -0.5317   XZ=     2.2662   YZ=     0.1108
 Traceless Quadrupole moment (field-independent basis, Debye-Ang):
   XX=    45.6448   YY=   -13.3808   ZZ=   -32.2640
   XY=    -0.5317   XZ=     2.2662   YZ=     0.1108
 Octapole moment (field-independent basis, Debye-Ang**2):
  XXX=    -1.6832  YYY=    20.7437  ZZZ=     0.0395  XYY=     1.2494
  XXY=   -80.9342  XXZ=    -0.5032  XZZ=    -0.2173  YZZ=    -5.9593
  YYZ=     0.2861  XYZ=   -10.3607
 Hexadecapole moment (field-independent basis, Debye-Ang**3):
 XXXX= -1115.4984 YYYY=  -927.2461 ZZZZ=  -271.4288 XXXY=    -7.3058
 XXXZ=    19.2982 YYYX=    -2.4010 YYYZ=     0.3673 ZZZX=     7.4716
 ZZZY=     0.3638 XXYY=  -433.4000 XXZZ=  -338.9083 YYZZ=  -215.0042
 XXYZ=     0.9966 YYXZ=    17.3707 ZZXY=    -0.8135
 N-N= 8.842220928717D+02 E-N=-8.089003214752D+03  KE= 2.667715799986D+03
 Merz-Kollman atomic radii used.
 Read replacement radii for each type of atom:
 Rad(20) =   1.188000000000D+00
 Atom Element Radius
    1     8    1.40
    2     8    1.40
    3     8    1.40
    4     8    1.40
    5    15    1.80
    6    20    1.19
    7    20    1.19
    8    20    1.19

 **********************************************************************

            Electrostatic Properties Using The SCF Density

 **********************************************************************

       Atomic Center    1 is at  -1.014137 -1.420472  0.855060
       Atomic Center    2 is at  -0.949670  0.422198 -0.816290
       Atomic Center    3 is at   0.978833 -1.430049 -0.853980
       Atomic Center    4 is at   0.949980  0.396741  0.835110
       Atomic Center    5 is at  -0.009149 -0.610341  0.005890
       Atomic Center    6 is at   0.036167  2.389139 -0.000410
       Atomic Center    7 is at   2.903371 -0.577556  0.003250
       Atomic Center    8 is at  -2.918679 -0.541195 -0.015220
     678 points will be used for fitting atomic charges
 Fitting point charges to eletrostatic potential
 Charges from ESP fit, RMS=   0.02526 RRMS=   0.15147:
 Charge=   1.00000 Dipole=     0.1635     6.6332    -0.0939 Tot=     6.6359
              1
     1  O   -1.089760
     2  O   -1.198759
     3  O   -1.089527
     4  O   -1.193482
     5  P    2.409353
     6  Ca   0.845825
     7  Ca   1.158154
     8  Ca   1.158196
 -----------------------------------------------------------------

              Electrostatic Properties (Atomic Units)

 -----------------------------------------------------------------
    Center     Electric         -------- Electric Field --------
               Potential          X             Y             Z
 -----------------------------------------------------------------
    1 Atom    -22.244892
    2 Atom    -22.222450
    3 Atom    -22.243210
    4 Atom    -22.223364
    5 Atom    -53.883435
    6 Atom    -80.027076
    7 Atom    -80.006481
    8 Atom    -80.008249
 -----------------------------------------------------------------
 1\1\GINC-N029\SP\RB3LYP\6-31+G(d,p)\Ca3O4P1(1+)\TIMN\12-Jun-2015\0\\# 
 b3lyp/6-31+G(d,p) int=ultrafine pop=(ReadRadii,MK)\\Ca3PO4_17.mol2c_pl
 usQ.z51187.zip.xyz\\1,1\O,0,-1.01414,-1.42047,0.85506\O,0,-0.94967,0.4
 222,-0.81629\O,0,0.97883,-1.43005,-0.85398\O,0,0.94998,0.39674,0.83511
 \P,0,-0.00915,-0.61034,0.00589\Ca,0,0.03617,2.38914,-0.00041\Ca,0,2.90
 337,-0.57756,0.00325\Ca,0,-2.91868,-0.54119,-0.01522\\Version=EM64T-G0
 3RevE.01\State=1-A\HF=-2675.0238974\RMSD=8.863e-05\Thermal=0.\Dipole=0
 .0345358,1.2193348,-0.0201494\PG=C01 [X(Ca3O4P1)]\\@


 I FIND THAT THE THREE TRULY GREAT TIMES FOR THINKING THOUGHTS
 ARE WHEN I AM STANDING IN THE SHOWER, SITTING ON THE JOHN, OR WALKING.

                                    -- COLIN FLETCHER
 Job cpu time:  0 days  0 hours  2 minutes  0.3 seconds.
 File lengths (MBytes):  RWF=     32 Int=      0 D2E=      0 Chk=     11 Scr=      1
 Normal termination of Gaussian 03 at Fri Jun 12 17:40:21 2015.
