 Entering Gaussian System, Link 0=/home/timn/tmp/g03.e01/g03
 Input=Ca3PO4_211.mol2_plusQc.z51696.zip.xyz.gjf
 Output=Ca3PO4_211.mol2_plusQc.z51696.zip.xyz.out
 Initial command:
 /home/timn/tmp/g03.e01/l1.exe /home/timn/tmp/g03.e01/Gau-11962.inp -scrdir=/home/timn/tmp/g03.e01/
 Default is to use a total of   2 processors:
                                2 via shared-memory
                                1 via Linda
 Entering Link 1 = /home/timn/tmp/g03.e01/l1.exe PID=     11963.
  
 Copyright (c) 1988,1990,1992,1993,1995,1998,2003,2004,2007, Gaussian, Inc.
                  All Rights Reserved.
  
 This is the Gaussian(R) 03 program.  It is based on the
 the Gaussian(R) 98 system (copyright 1998, Gaussian, Inc.),
 the Gaussian(R) 94 system (copyright 1995, Gaussian, Inc.),
 the Gaussian 92(TM) system (copyright 1992, Gaussian, Inc.),
 the Gaussian 90(TM) system (copyright 1990, Gaussian, Inc.),
 the Gaussian 88(TM) system (copyright 1988, Gaussian, Inc.),
 the Gaussian 86(TM) system (copyright 1986, Carnegie Mellon
 University), and the Gaussian 82(TM) system (copyright 1983,
 Carnegie Mellon University). Gaussian is a federally registered
 trademark of Gaussian, Inc.
  
 This software contains proprietary and confidential information,
 including trade secrets, belonging to Gaussian, Inc.
  
 This software is provided under written license and may be
 used, copied, transmitted, or stored only in accord with that
 written license.
  
 The following legend is applicable only to US Government
 contracts under FAR:
  
                    RESTRICTED RIGHTS LEGEND
  
 Use, reproduction and disclosure by the US Government is
 subject to restrictions as set forth in subparagraphs (a)
 and (c) of the Commercial Computer Software - Restricted
 Rights clause in FAR 52.227-19.
  
 Gaussian, Inc.
 340 Quinnipiac St., Bldg. 40, Wallingford CT 06492
  
  
 ---------------------------------------------------------------
 Warning -- This program may not be used in any manner that
 competes with the business of Gaussian, Inc. or will provide
 assistance to any competitor of Gaussian, Inc.  The licensee
 of this program is prohibited from giving any competitor of
 Gaussian, Inc. access to this program.  By using this program,
 the user acknowledges that Gaussian, Inc. is engaged in the
 business of creating and licensing software in the field of
 computational chemistry and represents and warrants to the
 licensee that it is not a competitor of Gaussian, Inc. and that
 it will not use this program in any manner prohibited above.
 ---------------------------------------------------------------
  

 Cite this work as:
 Gaussian 03, Revision E.01,
 M. J. Frisch, G. W. Trucks, H. B. Schlegel, G. E. Scuseria, 
 M. A. Robb, J. R. Cheeseman, J. A. Montgomery, Jr., T. Vreven, 
 K. N. Kudin, J. C. Burant, J. M. Millam, S. S. Iyengar, J. Tomasi, 
 V. Barone, B. Mennucci, M. Cossi, G. Scalmani, N. Rega, 
 G. A. Petersson, H. Nakatsuji, M. Hada, M. Ehara, K. Toyota, 
 R. Fukuda, J. Hasegawa, M. Ishida, T. Nakajima, Y. Honda, O. Kitao, 
 H. Nakai, M. Klene, X. Li, J. E. Knox, H. P. Hratchian, J. B. Cross, 
 V. Bakken, C. Adamo, J. Jaramillo, R. Gomperts, R. E. Stratmann, 
 O. Yazyev, A. J. Austin, R. Cammi, C. Pomelli, J. W. Ochterski, 
 P. Y. Ayala, K. Morokuma, G. A. Voth, P. Salvador, J. J. Dannenberg, 
 V. G. Zakrzewski, S. Dapprich, A. D. Daniels, M. C. Strain, 
 O. Farkas, D. K. Malick, A. D. Rabuck, K. Raghavachari, 
 J. B. Foresman, J. V. Ortiz, Q. Cui, A. G. Baboul, S. Clifford, 
 J. Cioslowski, B. B. Stefanov, G. Liu, A. Liashenko, P. Piskorz, 
 I. Komaromi, R. L. Martin, D. J. Fox, T. Keith, M. A. Al-Laham, 
 C. Y. Peng, A. Nanayakkara, M. Challacombe, P. M. W. Gill, 
 B. Johnson, W. Chen, M. W. Wong, C. Gonzalez, and J. A. Pople, 
 Gaussian, Inc., Wallingford CT, 2004.
 
 ******************************************
 Gaussian 03:  EM64T-G03RevE.01 11-Sep-2007
                12-Jun-2015 
 ******************************************
 %nproc=2
 Will use up to    2 processors via shared memory.
 Default route:  MP2=Direct MaxDisk=2000MB
 ----------------------------------------------------
 # b3lyp/6-31+G(d,p) int=ultrafine pop=(ReadRadii,MK)
 ----------------------------------------------------

 Warning!  SCF SP cutoffs with diffuse functions may be unreliable.
 Consider SCF=Tight

 1/38=1/1;
 2/17=6,18=5,40=1/2;
 3/5=1,6=6,7=111,11=2,16=1,25=1,30=1,74=-5,75=5/1,2,3;
 4//1;
 5/5=2,32=1,38=5/2;
 6/7=2,8=2,9=2,10=2,15=8,20=101,28=1/1,2;
 99/5=1,9=1/99;
 -------------------------------------
 Ca3PO4_211.mol2_plusQc.z51696.zip.xyz
 -------------------------------------
 Symbolic Z-matrix:
 Charge =  1 Multiplicity = 1
 O                     2.51136  -1.23867  -0.00108 
 O                     4.87975   0.00113  -0.0003 
 O                     2.50997   1.23779   0.00099 
 O                    -1.73292  -0.00011   0.00051 
 P                     3.41044   0.00002  -0.00015 
 Ca                    0.49348  -0.00091   0.00044 
 Ca                   -3.15996  -1.71926   0.00011 
 Ca                   -3.15861   1.7201   -0.00049 
 
                          Input orientation:                          
 ---------------------------------------------------------------------
 Center     Atomic     Atomic              Coordinates (Angstroms)
 Number     Number      Type              X           Y           Z
 ---------------------------------------------------------------------
    1          8             0        2.511360   -1.238670   -0.001080
    2          8             0        4.879750    0.001130   -0.000300
    3          8             0        2.509970    1.237790    0.000990
    4          8             0       -1.732920   -0.000110    0.000510
    5         15             0        3.410440    0.000020   -0.000150
    6         20             0        0.493480   -0.000910    0.000440
    7         20             0       -3.159960   -1.719260    0.000110
    8         20             0       -3.158610    1.720100   -0.000490
 ---------------------------------------------------------------------
                    Distance matrix (angstroms):
                    1          2          3          4          5
     1  O    0.000000
     2  O    2.673271   0.000000
     3  O    2.476461   2.673048   0.000000
     4  O    4.421306   6.612670   4.419786   0.000000
     5  P    1.530588   1.469310   1.530661   5.143360   0.000000
     6  Ca   2.367254   4.386271   2.366561   2.226400   2.916960
     7  Ca   5.691646   8.221720   6.394705   2.234261   6.791618
     8  Ca   6.395536   8.220103   5.689062   2.234215   6.790515
                    6          7          8
     6  Ca   0.000000
     7  Ca   4.037369   0.000000
     8  Ca   4.037281   3.439360   0.000000
 Stoichiometry    Ca3O4P(1+)
 Framework group  C1[X(Ca3O4P)]
 Deg. of freedom    18
 Full point group                 C1
 Largest Abelian subgroup         C1      NOp   1
 Largest concise Abelian subgroup C1      NOp   1
                         Standard orientation:                         
 ---------------------------------------------------------------------
 Center     Atomic     Atomic              Coordinates (Angstroms)
 Number     Number      Type              X           Y           Z
 ---------------------------------------------------------------------
    1          8             0        2.511360   -1.238669   -0.001079
    2          8             0        4.879749    0.001132   -0.000299
    3          8             0        2.509969    1.237791    0.000991
    4          8             0       -1.732921   -0.000111    0.000511
    5         15             0        3.410439    0.000022   -0.000149
    6         20             0        0.493479   -0.000910    0.000441
    7         20             0       -3.159960   -1.719262    0.000111
    8         20             0       -3.158612    1.720098   -0.000489
 ---------------------------------------------------------------------
 Rotational constants (GHZ):      1.7707120      0.2810436      0.2425471
 Standard basis: 6-31+G(d,p) (6D, 7F)
 There are   180 symmetry adapted basis functions of A   symmetry.
 Integral buffers will be    131072 words long.
 Raffenetti 2 integral format.
 Two-electron integral symmetry is turned on.
   180 basis functions,   424 primitive gaussians,   180 cartesian basis functions
    53 alpha electrons       53 beta electrons
       nuclear repulsion energy       747.0795366860 Hartrees.
 NAtoms=    8 NActive=    8 NUniq=    8 SFac= 7.50D-01 NAtFMM=   80 NAOKFM=F Big=F
 One-electron integrals computed using PRISM.
 NBasis=   180 RedAO= T  NBF=   180
 NBsUse=   180 1.00D-06 NBFU=   180
 Harris functional with IExCor=  402 diagonalized for initial guess.
 ExpMin= 7.10D-03 ExpMax= 3.53D+04 ExpMxC= 5.30D+03 IAcc=3 IRadAn=         5 AccDes= 0.00D+00
 HarFok:  IExCor= 402 AccDes= 0.00D+00 IRadAn=         5 IDoV=1
 ScaDFX=  1.000000  1.000000  1.000000  1.000000
 Initial guess orbital symmetries:
       Occupied  (A) (A) (A) (A) (A) (A) (A) (A) (A) (A) (A) (A)
                 (A) (A) (A) (A) (A) (A) (A) (A) (A) (A) (A) (A)
                 (A) (A) (A) (A) (A) (A) (A) (A) (A) (A) (A) (A)
                 (A) (A) (A) (A) (A) (A) (A) (A) (A) (A) (A) (A)
                 (A) (A) (A) (A) (A)
       Virtual   (A) (A) (A) (A) (A) (A) (A) (A) (A) (A) (A) (A)
                 (A) (A) (A) (A) (A) (A) (A) (A) (A) (A) (A) (A)
                 (A) (A) (A) (A) (A) (A) (A) (A) (A) (A) (A) (A)
                 (A) (A) (A) (A) (A) (A) (A) (A) (A) (A) (A) (A)
                 (A) (A) (A) (A) (A) (A) (A) (A) (A) (A) (A) (A)
                 (A) (A) (A) (A) (A) (A) (A) (A) (A) (A) (A) (A)
                 (A) (A) (A) (A) (A) (A) (A) (A) (A) (A) (A) (A)
                 (A) (A) (A) (A) (A) (A) (A) (A) (A) (A) (A) (A)
                 (A) (A) (A) (A) (A) (A) (A) (A) (A) (A) (A) (A)
                 (A) (A) (A) (A) (A) (A) (A) (A) (A) (A) (A) (A)
                 (A) (A) (A) (A) (A) (A) (A)
 The electronic state of the initial guess is 1-A.
 Requested convergence on RMS density matrix=1.00D-04 within 128 cycles.
 Requested convergence on MAX density matrix=1.00D-02.
 Requested convergence on             energy=1.00D-02.
 No special actions if energy rises.
 EnCoef did     1 forward-backward iterations
 SCF Done:  E(RB+HF-LYP) =  -2674.95386011     A.U. after    7 cycles
             Convg  =    0.8912D-04             -V/T =  2.0027
             S**2   =   0.0000

 **********************************************************************

            Population analysis using the SCF density.

 **********************************************************************

 Orbital symmetries:
       Occupied  (A) (A) (A) (A) (A) (A) (A) (A) (A) (A) (A) (A)
                 (A) (A) (A) (A) (A) (A) (A) (A) (A) (A) (A) (A)
                 (A) (A) (A) (A) (A) (A) (A) (A) (A) (A) (A) (A)
                 (A) (A) (A) (A) (A) (A) (A) (A) (A) (A) (A) (A)
                 (A) (A) (A) (A) (A)
       Virtual   (A) (A) (A) (A) (A) (A) (A) (A) (A) (A) (A) (A)
                 (A) (A) (A) (A) (A) (A) (A) (A) (A) (A) (A) (A)
                 (A) (A) (A) (A) (A) (A) (A) (A) (A) (A) (A) (A)
                 (A) (A) (A) (A) (A) (A) (A) (A) (A) (A) (A) (A)
                 (A) (A) (A) (A) (A) (A) (A) (A) (A) (A) (A) (A)
                 (A) (A) (A) (A) (A) (A) (A) (A) (A) (A) (A) (A)
                 (A) (A) (A) (A) (A) (A) (A) (A) (A) (A) (A) (A)
                 (A) (A) (A) (A) (A) (A) (A) (A) (A) (A) (A) (A)
                 (A) (A) (A) (A) (A) (A) (A) (A) (A) (A) (A) (A)
                 (A) (A) (A) (A) (A) (A) (A) (A) (A) (A) (A) (A)
                 (A) (A) (A) (A) (A) (A) (A)
 The electronic state is 1-A.
 Alpha  occ. eigenvalues -- -145.53946-145.53945-145.50911 -77.32704 -19.26882
 Alpha  occ. eigenvalues --  -19.26880 -19.25505 -19.21922 -15.60923 -15.60921
 Alpha  occ. eigenvalues --  -15.57854 -12.74115 -12.74113 -12.74112 -12.74112
 Alpha  occ. eigenvalues --  -12.73993 -12.73992 -12.71128 -12.71069 -12.70872
 Alpha  occ. eigenvalues --   -6.78054  -4.94651  -4.94169  -4.94123  -1.98043
 Alpha  occ. eigenvalues --   -1.98000  -1.95205  -1.25695  -1.25527  -1.25479
 Alpha  occ. eigenvalues --   -1.25410  -1.25299  -1.24739  -1.23220  -1.22937
 Alpha  occ. eigenvalues --   -1.22797  -1.15521  -1.08314  -1.07914  -0.96735
 Alpha  occ. eigenvalues --   -0.63598  -0.55340  -0.53924  -0.53542  -0.47878
 Alpha  occ. eigenvalues --   -0.44280  -0.44134  -0.43207  -0.42816  -0.42393
 Alpha  occ. eigenvalues --   -0.40419  -0.40289  -0.29157
 Alpha virt. eigenvalues --   -0.22869  -0.19570  -0.16707  -0.16682  -0.14664
 Alpha virt. eigenvalues --   -0.14293  -0.13991  -0.12002  -0.11617  -0.11061
 Alpha virt. eigenvalues --   -0.09717  -0.08639  -0.07995  -0.06345  -0.06105
 Alpha virt. eigenvalues --   -0.05797  -0.05610  -0.05046  -0.04906  -0.04543
 Alpha virt. eigenvalues --   -0.04446  -0.03832  -0.03460  -0.03247  -0.03046
 Alpha virt. eigenvalues --   -0.01664  -0.01647  -0.00744   0.00326   0.00850
 Alpha virt. eigenvalues --    0.00910   0.01722   0.02198   0.02492   0.02825
 Alpha virt. eigenvalues --    0.02850   0.03412   0.03415   0.04056   0.04545
 Alpha virt. eigenvalues --    0.05297   0.05362   0.05542   0.05548   0.05885
 Alpha virt. eigenvalues --    0.06276   0.07570   0.07714   0.09289   0.09611
 Alpha virt. eigenvalues --    0.10708   0.11274   0.12744   0.13420   0.14289
 Alpha virt. eigenvalues --    0.15154   0.16209   0.18103   0.19415   0.20322
 Alpha virt. eigenvalues --    0.20355   0.20548   0.20881   0.24270   0.24603
 Alpha virt. eigenvalues --    0.27495   0.27546   0.31140   0.32281   0.33587
 Alpha virt. eigenvalues --    0.35641   0.35799   0.36720   0.41274   0.41439
 Alpha virt. eigenvalues --    0.45467   0.54464   0.55610   0.56197   0.56428
 Alpha virt. eigenvalues --    0.61029   0.71179   0.88198   0.95126   0.95779
 Alpha virt. eigenvalues --    0.99003   1.05408   1.06929   1.10938   1.13850
 Alpha virt. eigenvalues --    1.14497   1.15760   1.16313   1.18765   1.20759
 Alpha virt. eigenvalues --    1.25030   1.25879   1.30365   1.35850   1.40146
 Alpha virt. eigenvalues --    1.42577   1.55032   1.66878   1.67323   1.68153
 Alpha virt. eigenvalues --    1.68762   1.73306   1.74059   1.75995   1.79635
 Alpha virt. eigenvalues --    1.82623   1.84040   1.91412   1.91998   1.94237
 Alpha virt. eigenvalues --    2.02196   2.03044   2.16994   2.21487   2.62555
 Alpha virt. eigenvalues --    2.73043   2.79512   3.38437   3.83508   3.94722
 Alpha virt. eigenvalues --    3.97414   4.03084
          Condensed to atoms (all electrons):
              1          2          3          4          5          6
     1  O    8.799741  -0.159046  -0.241906   0.002361   0.264293   0.034817
     2  O   -0.159046   8.469426  -0.158963  -0.000328   0.457486   0.009410
     3  O   -0.241906  -0.158963   8.799624   0.002361   0.264427   0.034823
     4  O    0.002361  -0.000328   0.002361   9.282830   0.005970   0.170964
     5  P    0.264293   0.457486   0.264427   0.005970  12.839397  -0.072677
     6  Ca   0.034817   0.009410   0.034823   0.170964  -0.072677  18.385514
     7  Ca  -0.003852  -0.000222   0.001127  -0.180798  -0.014572  -0.053734
     8  Ca   0.001142  -0.000225  -0.003855  -0.180725  -0.014569  -0.053736
              7          8
     1  O   -0.003852   0.001142
     2  O   -0.000222  -0.000225
     3  O    0.001127  -0.003855
     4  O   -0.180798  -0.180725
     5  P   -0.014572  -0.014569
     6  Ca  -0.053734  -0.053736
     7  Ca  19.174288   0.427594
     8  Ca   0.427594  19.174050
 Mulliken atomic charges:
              1
     1  O   -0.697550
     2  O   -0.617538
     3  O   -0.697638
     4  O   -1.102635
     5  P    1.270246
     6  Ca   1.544620
     7  Ca   0.650169
     8  Ca   0.650325
 Sum of Mulliken charges=   1.00000
 Atomic charges with hydrogens summed into heavy atoms:
              1
     1  O   -0.697550
     2  O   -0.617538
     3  O   -0.697638
     4  O   -1.102635
     5  P    1.270246
     6  Ca   1.544620
     7  Ca   0.650169
     8  Ca   0.650325
 Sum of Mulliken charges=   1.00000
 Electronic spatial extent (au):  <R**2>=  3852.9802
 Charge=     1.0000 electrons
 Dipole moment (field-independent basis, Debye):
    X=   -16.4576    Y=    -0.0021    Z=     0.0009  Tot=    16.4576
 Quadrupole moment (field-independent basis, Debye-Ang):
   XX=   -67.3610   YY=   -57.8011   ZZ=   -77.3690
   XY=    -0.0047   XZ=     0.0055   YZ=    -0.0144
 Traceless Quadrupole moment (field-independent basis, Debye-Ang):
   XX=     0.1494   YY=     9.7093   ZZ=    -9.8587
   XY=    -0.0047   XZ=     0.0055   YZ=    -0.0144
 Octapole moment (field-independent basis, Debye-Ang**2):
  XXX=  -213.2138  YYY=     0.0461  ZZZ=     0.0134  XYY=   -98.2248
  XXY=    -0.0675  XXZ=     0.0139  XZZ=    27.4802  YZZ=    -0.0034
  YYZ=     0.0016  XYZ=    -0.0086
 Hexadecapole moment (field-independent basis, Debye-Ang**3):
 XXXX= -4756.2945 YYYY=  -666.0873 ZZZZ=  -143.5348 XXXY=     0.1544
 XXXZ=     0.0006 YYYX=    -0.0577 YYYZ=    -0.0305 ZZZX=    -0.0277
 ZZZY=    -0.0074 XXYY=  -613.5922 XXZZ=  -737.8994 YYZZ=  -148.9400
 XXYZ=    -0.1117 YYXZ=     0.0009 ZZXY=    -0.0005
 N-N= 7.470795366860D+02 E-N=-7.814093122628D+03  KE= 2.667714195381D+03
 Merz-Kollman atomic radii used.
 Read replacement radii for each type of atom:
 Rad(20) =   1.188000000000D+00
 Atom Element Radius
    1     8    1.40
    2     8    1.40
    3     8    1.40
    4     8    1.40
    5    15    1.80
    6    20    1.19
    7    20    1.19
    8    20    1.19

 **********************************************************************

            Electrostatic Properties Using The SCF Density

 **********************************************************************

       Atomic Center    1 is at   2.511360 -1.238669 -0.001079
       Atomic Center    2 is at   4.879749  0.001132 -0.000299
       Atomic Center    3 is at   2.509969  1.237791  0.000991
       Atomic Center    4 is at  -1.732921 -0.000111  0.000511
       Atomic Center    5 is at   3.410439  0.000022 -0.000149
       Atomic Center    6 is at   0.493479 -0.000910  0.000441
       Atomic Center    7 is at  -3.159960 -1.719262  0.000111
       Atomic Center    8 is at  -3.158612  1.720098 -0.000489
     828 points will be used for fitting atomic charges
 Fitting point charges to eletrostatic potential
 Charges from ESP fit, RMS=   0.02058 RRMS=   0.12717:
 Charge=   1.00000 Dipole=   -22.0122     0.0042    -0.0012 Tot=    22.0122
              1
     1  O   -0.879368
     2  O   -0.584261
     3  O   -0.878296
     4  O   -1.441386
     5  P    1.363422
     6  Ca   1.735088
     7  Ca   0.842366
     8  Ca   0.842433
 -----------------------------------------------------------------

              Electrostatic Properties (Atomic Units)

 -----------------------------------------------------------------
    Center     Electric         -------- Electric Field --------
               Potential          X             Y             Z
 -----------------------------------------------------------------
    1 Atom    -22.196216
    2 Atom    -22.214732
    3 Atom    -22.196252
    4 Atom    -22.249742
    5 Atom    -53.882715
    6 Atom    -80.030769
    7 Atom    -80.005564
    8 Atom    -80.005554
 -----------------------------------------------------------------
 1\1\GINC-N034\SP\RB3LYP\6-31+G(d,p)\Ca3O4P1(1+)\TIMN\12-Jun-2015\0\\# 
 b3lyp/6-31+G(d,p) int=ultrafine pop=(ReadRadii,MK)\\Ca3PO4_211.mol2_pl
 usQc.z51696.zip.xyz\\1,1\O,0,2.51136,-1.23867,-0.00108\O,0,4.87975,0.0
 0113,-0.0003\O,0,2.50997,1.23779,0.00099\O,0,-1.73292,-0.00011,0.00051
 \P,0,3.41044,0.00002,-0.00015\Ca,0,0.49348,-0.00091,0.00044\Ca,0,-3.15
 996,-1.71926,0.00011\Ca,0,-3.15861,1.7201,-0.00049\\Version=EM64T-G03R
 evE.01\State=1-A\HF=-2674.9538601\RMSD=8.912e-05\Thermal=0.\Dipole=-6.
 4749256,-0.0008326,0.0003652\PG=C01 [X(Ca3O4P1)]\\@


          EVOLUTION
 IN THE BEGINNING GOD MADE MAN.
 HE WORKED THE DIRT WITH HIS HANDS.
 THEN GOD DECIDED TO GIVE MAN SCIENCE,
 MAN SHOULD BE USEFUL (LIKE AN APPLIANCE.)
 BUT SOON MAN'S KNOWLEDGE GREW TOO GREAT,
 TO THE HEADING SCIENCE HE COULDN'T RELATE
 SO GOD SAID "LETS HAVE DIFFERENT FIELDS,
 WE'LL DIVIDE THEM UP, SEE WHAT IT YIELDS."
 ENTER PHYSICS, CHEMISTRY, BIO
 THEY SPRANG UP AROUND THE NILE.
 BUT CHEMISTRY SURPASSED THE REST
 FAR AND AWAY IT WAS THE BEST.
 EXPERIMENT WAS GOD'S DECREE
 EXPERIMENT DID CHEMISTS WITH LOTS OF GLEE
 BUT SOON THEIR TESTS BEGAN TO BOG,
 THEY FOUND THEMSELVES DEEP IN A FOG.
 "GIVE US SOME HELP" THEY CRIED TO GOD.
 GOD LOOKED AROUND, THEN GAVE THE NOD.
 ENTER EINSTEIN, HEISENBERG, BOHR,
 REACTION PATHS WERE CLEAR ONCE MORE.
 WITH THEORISTS GOD SEND DIRECTION
 AND THEN HE STOPPED, HE'D MADE PERFECTION.
          -- THOMAS A. HOLME, 1981
 Job cpu time:  0 days  0 hours  1 minutes  9.3 seconds.
 File lengths (MBytes):  RWF=     32 Int=      0 D2E=      0 Chk=     11 Scr=      1
 Normal termination of Gaussian 03 at Fri Jun 12 17:41:22 2015.
