 Entering Gaussian System, Link 0=/home/timn/tmp/g03.e01/g03
 Input=Ca3PO4_196.mol2_plusQ.z51205.zip.xyz.gjf
 Output=Ca3PO4_196.mol2_plusQ.z51205.zip.xyz.out
 Initial command:
 /home/timn/tmp/g03.e01/l1.exe /home/timn/tmp/g03.e01/Gau-13776.inp -scrdir=/home/timn/tmp/g03.e01/
 Default is to use a total of   2 processors:
                                2 via shared-memory
                                1 via Linda
 Entering Link 1 = /home/timn/tmp/g03.e01/l1.exe PID=     13777.
  
 Copyright (c) 1988,1990,1992,1993,1995,1998,2003,2004,2007, Gaussian, Inc.
                  All Rights Reserved.
  
 This is the Gaussian(R) 03 program.  It is based on the
 the Gaussian(R) 98 system (copyright 1998, Gaussian, Inc.),
 the Gaussian(R) 94 system (copyright 1995, Gaussian, Inc.),
 the Gaussian 92(TM) system (copyright 1992, Gaussian, Inc.),
 the Gaussian 90(TM) system (copyright 1990, Gaussian, Inc.),
 the Gaussian 88(TM) system (copyright 1988, Gaussian, Inc.),
 the Gaussian 86(TM) system (copyright 1986, Carnegie Mellon
 University), and the Gaussian 82(TM) system (copyright 1983,
 Carnegie Mellon University). Gaussian is a federally registered
 trademark of Gaussian, Inc.
  
 This software contains proprietary and confidential information,
 including trade secrets, belonging to Gaussian, Inc.
  
 This software is provided under written license and may be
 used, copied, transmitted, or stored only in accord with that
 written license.
  
 The following legend is applicable only to US Government
 contracts under FAR:
  
                    RESTRICTED RIGHTS LEGEND
  
 Use, reproduction and disclosure by the US Government is
 subject to restrictions as set forth in subparagraphs (a)
 and (c) of the Commercial Computer Software - Restricted
 Rights clause in FAR 52.227-19.
  
 Gaussian, Inc.
 340 Quinnipiac St., Bldg. 40, Wallingford CT 06492
  
  
 ---------------------------------------------------------------
 Warning -- This program may not be used in any manner that
 competes with the business of Gaussian, Inc. or will provide
 assistance to any competitor of Gaussian, Inc.  The licensee
 of this program is prohibited from giving any competitor of
 Gaussian, Inc. access to this program.  By using this program,
 the user acknowledges that Gaussian, Inc. is engaged in the
 business of creating and licensing software in the field of
 computational chemistry and represents and warrants to the
 licensee that it is not a competitor of Gaussian, Inc. and that
 it will not use this program in any manner prohibited above.
 ---------------------------------------------------------------
  

 Cite this work as:
 Gaussian 03, Revision E.01,
 M. J. Frisch, G. W. Trucks, H. B. Schlegel, G. E. Scuseria, 
 M. A. Robb, J. R. Cheeseman, J. A. Montgomery, Jr., T. Vreven, 
 K. N. Kudin, J. C. Burant, J. M. Millam, S. S. Iyengar, J. Tomasi, 
 V. Barone, B. Mennucci, M. Cossi, G. Scalmani, N. Rega, 
 G. A. Petersson, H. Nakatsuji, M. Hada, M. Ehara, K. Toyota, 
 R. Fukuda, J. Hasegawa, M. Ishida, T. Nakajima, Y. Honda, O. Kitao, 
 H. Nakai, M. Klene, X. Li, J. E. Knox, H. P. Hratchian, J. B. Cross, 
 V. Bakken, C. Adamo, J. Jaramillo, R. Gomperts, R. E. Stratmann, 
 O. Yazyev, A. J. Austin, R. Cammi, C. Pomelli, J. W. Ochterski, 
 P. Y. Ayala, K. Morokuma, G. A. Voth, P. Salvador, J. J. Dannenberg, 
 V. G. Zakrzewski, S. Dapprich, A. D. Daniels, M. C. Strain, 
 O. Farkas, D. K. Malick, A. D. Rabuck, K. Raghavachari, 
 J. B. Foresman, J. V. Ortiz, Q. Cui, A. G. Baboul, S. Clifford, 
 J. Cioslowski, B. B. Stefanov, G. Liu, A. Liashenko, P. Piskorz, 
 I. Komaromi, R. L. Martin, D. J. Fox, T. Keith, M. A. Al-Laham, 
 C. Y. Peng, A. Nanayakkara, M. Challacombe, P. M. W. Gill, 
 B. Johnson, W. Chen, M. W. Wong, C. Gonzalez, and J. A. Pople, 
 Gaussian, Inc., Wallingford CT, 2004.
 
 ******************************************
 Gaussian 03:  EM64T-G03RevE.01 11-Sep-2007
                12-Jun-2015 
 ******************************************
 %nproc=2
 Will use up to    2 processors via shared memory.
 Default route:  MP2=Direct MaxDisk=2000MB
 ----------------------------------------------------
 # b3lyp/6-31+G(d,p) int=ultrafine pop=(ReadRadii,MK)
 ----------------------------------------------------

 Warning!  SCF SP cutoffs with diffuse functions may be unreliable.
 Consider SCF=Tight

 1/38=1/1;
 2/17=6,18=5,40=1/2;
 3/5=1,6=6,7=111,11=2,16=1,25=1,30=1,74=-5,75=5/1,2,3;
 4//1;
 5/5=2,32=1,38=5/2;
 6/7=2,8=2,9=2,10=2,15=8,20=101,28=1/1,2;
 99/5=1,9=1/99;
 ------------------------------------
 Ca3PO4_196.mol2_plusQ.z51205.zip.xyz
 ------------------------------------
 Symbolic Z-matrix:
 Charge =  1 Multiplicity = 1
 O                     0.68888  -1.27548   0.36364 
 O                    -1.44871   0.0412    0.36589 
 O                     0.76046   1.23425   0.36361 
 O                     0.00254  -0.00008   2.59352 
 P                     0.00095   0.00003   1.11384 
 Ca                   -1.09065   2.01732  -0.76948 
 Ca                   -1.20376  -1.95201  -0.76947 
 Ca                    2.29243  -0.06529  -0.7711 
 
                          Input orientation:                          
 ---------------------------------------------------------------------
 Center     Atomic     Atomic              Coordinates (Angstroms)
 Number     Number      Type              X           Y           Z
 ---------------------------------------------------------------------
    1          8             0        0.688880   -1.275480    0.363640
    2          8             0       -1.448710    0.041200    0.365890
    3          8             0        0.760460    1.234250    0.363610
    4          8             0        0.002540   -0.000080    2.593520
    5         15             0        0.000950    0.000030    1.113840
    6         20             0       -1.090650    2.017320   -0.769480
    7         20             0       -1.203760   -1.952010   -0.769470
    8         20             0        2.292430   -0.065290   -0.771100
 ---------------------------------------------------------------------
                    Distance matrix (angstroms):
                    1          2          3          4          5
     1  O    0.000000
     2  O    2.510566   0.000000
     3  O    2.510751   2.510738   0.000000
     4  O    2.658961   2.658978   2.659043   0.000000
     5  P    1.631862   1.631759   1.631870   1.479681   0.000000
     6  Ca   3.910655   2.307016   2.307314   4.071208   2.967818
     7  Ca   2.307318   2.306931   3.910791   4.071227   2.967936
     8  Ca   2.307286   3.911549   2.307228   4.070444   2.967852
                    6          7          8
     6  Ca   0.000000
     7  Ca   3.970941   0.000000
     8  Ca   3.972719   3.972790   0.000000
 Stoichiometry    Ca3O4P(1+)
 Framework group  C1[X(Ca3O4P)]
 Deg. of freedom    18
 Full point group                 C1
 Largest Abelian subgroup         C1      NOp   1
 Largest concise Abelian subgroup C1      NOp   1
                         Standard orientation:                         
 ---------------------------------------------------------------------
 Center     Atomic     Atomic              Coordinates (Angstroms)
 Number     Number      Type              X           Y           Z
 ---------------------------------------------------------------------
    1          8             0        0.689958   -1.274897    0.363641
    2          8             0       -1.448744    0.039976    0.365891
    3          8             0        0.759416    1.234893    0.363611
    4          8             0        0.002540   -0.000078    2.593521
    5         15             0        0.000950    0.000031    1.113841
    6         20             0       -1.092355    2.016398   -0.769479
    7         20             0       -1.202110   -1.953027   -0.769469
    8         20             0        2.292484   -0.063352   -0.771099
 ---------------------------------------------------------------------
 Rotational constants (GHZ):      0.8580998      0.8575478      0.6910188
 Standard basis: 6-31+G(d,p) (6D, 7F)
 There are   180 symmetry adapted basis functions of A   symmetry.
 Integral buffers will be    131072 words long.
 Raffenetti 2 integral format.
 Two-electron integral symmetry is turned on.
   180 basis functions,   424 primitive gaussians,   180 cartesian basis functions
    53 alpha electrons       53 beta electrons
       nuclear repulsion energy       906.2017207495 Hartrees.
 NAtoms=    8 NActive=    8 NUniq=    8 SFac= 7.50D-01 NAtFMM=   80 NAOKFM=F Big=F
 One-electron integrals computed using PRISM.
 NBasis=   180 RedAO= T  NBF=   180
 NBsUse=   180 1.00D-06 NBFU=   180
 Harris functional with IExCor=  402 diagonalized for initial guess.
 ExpMin= 7.10D-03 ExpMax= 3.53D+04 ExpMxC= 5.30D+03 IAcc=3 IRadAn=         5 AccDes= 0.00D+00
 HarFok:  IExCor= 402 AccDes= 0.00D+00 IRadAn=         5 IDoV=1
 ScaDFX=  1.000000  1.000000  1.000000  1.000000
 Initial guess orbital symmetries:
       Occupied  (A) (A) (A) (A) (A) (A) (A) (A) (A) (A) (A) (A)
                 (A) (A) (A) (A) (A) (A) (A) (A) (A) (A) (A) (A)
                 (A) (A) (A) (A) (A) (A) (A) (A) (A) (A) (A) (A)
                 (A) (A) (A) (A) (A) (A) (A) (A) (A) (A) (A) (A)
                 (A) (A) (A) (A) (A)
       Virtual   (A) (A) (A) (A) (A) (A) (A) (A) (A) (A) (A) (A)
                 (A) (A) (A) (A) (A) (A) (A) (A) (A) (A) (A) (A)
                 (A) (A) (A) (A) (A) (A) (A) (A) (A) (A) (A) (A)
                 (A) (A) (A) (A) (A) (A) (A) (A) (A) (A) (A) (A)
                 (A) (A) (A) (A) (A) (A) (A) (A) (A) (A) (A) (A)
                 (A) (A) (A) (A) (A) (A) (A) (A) (A) (A) (A) (A)
                 (A) (A) (A) (A) (A) (A) (A) (A) (A) (A) (A) (A)
                 (A) (A) (A) (A) (A) (A) (A) (A) (A) (A) (A) (A)
                 (A) (A) (A) (A) (A) (A) (A) (A) (A) (A) (A) (A)
                 (A) (A) (A) (A) (A) (A) (A) (A) (A) (A) (A) (A)
                 (A) (A) (A) (A) (A) (A) (A)
 The electronic state of the initial guess is 1-A.
 Requested convergence on RMS density matrix=1.00D-04 within 128 cycles.
 Requested convergence on MAX density matrix=1.00D-02.
 Requested convergence on             energy=1.00D-02.
 No special actions if energy rises.
 EnCoef did     3 forward-backward iterations
 EnCoef did     1 forward-backward iterations
 SCF Done:  E(RB+HF-LYP) =  -2675.01478886     A.U. after    9 cycles
             Convg  =    0.4607D-04             -V/T =  2.0028
             S**2   =   0.0000

 **********************************************************************

            Population analysis using the SCF density.

 **********************************************************************

 Orbital symmetries:
       Occupied  (A) (A) (A) (A) (A) (A) (A) (A) (A) (A) (A) (A)
                 (A) (A) (A) (A) (A) (A) (A) (A) (A) (A) (A) (A)
                 (A) (A) (A) (A) (A) (A) (A) (A) (A) (A) (A) (A)
                 (A) (A) (A) (A) (A) (A) (A) (A) (A) (A) (A) (A)
                 (A) (A) (A) (A) (A)
       Virtual   (A) (A) (A) (A) (A) (A) (A) (A) (A) (A) (A) (A)
                 (A) (A) (A) (A) (A) (A) (A) (A) (A) (A) (A) (A)
                 (A) (A) (A) (A) (A) (A) (A) (A) (A) (A) (A) (A)
                 (A) (A) (A) (A) (A) (A) (A) (A) (A) (A) (A) (A)
                 (A) (A) (A) (A) (A) (A) (A) (A) (A) (A) (A) (A)
                 (A) (A) (A) (A) (A) (A) (A) (A) (A) (A) (A) (A)
                 (A) (A) (A) (A) (A) (A) (A) (A) (A) (A) (A) (A)
                 (A) (A) (A) (A) (A) (A) (A) (A) (A) (A) (A) (A)
                 (A) (A) (A) (A) (A) (A) (A) (A) (A) (A) (A) (A)
                 (A) (A) (A) (A) (A) (A) (A) (A) (A) (A) (A) (A)
                 (A) (A) (A) (A) (A) (A) (A)
 The electronic state is 1-A.
 Alpha  occ. eigenvalues -- -145.53872-145.53864-145.53862 -77.31586 -19.24426
 Alpha  occ. eigenvalues --  -19.24424 -19.24422 -19.19214 -15.60746 -15.60739
 Alpha  occ. eigenvalues --  -15.60737 -12.73963 -12.73956 -12.73955 -12.73908
 Alpha  occ. eigenvalues --  -12.73901 -12.73899 -12.73866 -12.73859 -12.73858
 Alpha  occ. eigenvalues --   -6.76008  -4.92418  -4.92418  -4.92183  -1.97817
 Alpha  occ. eigenvalues --   -1.97803  -1.97799  -1.25923  -1.25345  -1.25344
 Alpha  occ. eigenvalues --   -1.25327  -1.25268  -1.25265  -1.25006  -1.24995
 Alpha  occ. eigenvalues --   -1.24993  -1.13124  -1.04756  -1.04754  -1.03149
 Alpha  occ. eigenvalues --   -0.63959  -0.55396  -0.55395  -0.51611  -0.47523
 Alpha  occ. eigenvalues --   -0.47522  -0.44254  -0.42318  -0.42315  -0.42313
 Alpha  occ. eigenvalues --   -0.36904  -0.36903  -0.27478
 Alpha virt. eigenvalues --   -0.21865  -0.21860  -0.16761  -0.14741  -0.14738
 Alpha virt. eigenvalues --   -0.12213  -0.12035  -0.12032  -0.10708  -0.08570
 Alpha virt. eigenvalues --   -0.08565  -0.07685  -0.05762  -0.05760  -0.05644
 Alpha virt. eigenvalues --   -0.05097  -0.05096  -0.04711  -0.04372  -0.04372
 Alpha virt. eigenvalues --   -0.04069  -0.03573  -0.03383  -0.03383  -0.02211
 Alpha virt. eigenvalues --   -0.01298  -0.01297  -0.00371   0.00488   0.01159
 Alpha virt. eigenvalues --    0.01161   0.02995   0.03406   0.03411   0.03926
 Alpha virt. eigenvalues --    0.03930   0.04708   0.04711   0.05381   0.05384
 Alpha virt. eigenvalues --    0.05412   0.05738   0.05757   0.05763   0.06361
 Alpha virt. eigenvalues --    0.06826   0.06826   0.08518   0.09480   0.09490
 Alpha virt. eigenvalues --    0.09588   0.14801   0.16042   0.16045   0.18996
 Alpha virt. eigenvalues --    0.19553   0.20945   0.20946   0.21882   0.21885
 Alpha virt. eigenvalues --    0.21887   0.24355   0.24356   0.26716   0.27623
 Alpha virt. eigenvalues --    0.27626   0.29434   0.33949   0.34606   0.35260
 Alpha virt. eigenvalues --    0.35261   0.35703   0.44612   0.44620   0.52991
 Alpha virt. eigenvalues --    0.52996   0.57868   0.59901   0.59902   0.74731
 Alpha virt. eigenvalues --    0.77620   0.77622   0.92370   0.92375   1.02762
 Alpha virt. eigenvalues --    1.07950   1.14443   1.14446   1.17406   1.18761
 Alpha virt. eigenvalues --    1.20534   1.20542   1.22521   1.22523   1.24147
 Alpha virt. eigenvalues --    1.26351   1.26952   1.26953   1.48585   1.51904
 Alpha virt. eigenvalues --    1.51913   1.68422   1.69991   1.69994   1.70121
 Alpha virt. eigenvalues --    1.74272   1.74278   1.76498   1.76500   1.81295
 Alpha virt. eigenvalues --    1.86147   1.88075   1.88087   1.95660   1.95663
 Alpha virt. eigenvalues --    2.14563   2.18613   2.18615   2.46416   2.60829
 Alpha virt. eigenvalues --    2.60839   2.86177   3.48893   4.03372   4.06620
 Alpha virt. eigenvalues --    4.06634   4.14576
          Condensed to atoms (all electrons):
              1          2          3          4          5          6
     1  O    9.302068   0.075555   0.075401  -0.003862  -0.344415  -0.050805
     2  O    0.075555   9.302465   0.075485  -0.003903  -0.344842  -0.052241
     3  O    0.075401   0.075485   9.301866  -0.003899  -0.344295  -0.052186
     4  O   -0.003862  -0.003903  -0.003899   8.795102  -0.129060  -0.029896
     5  P   -0.344415  -0.344842  -0.344295  -0.129060  14.134731   0.310586
     6  Ca  -0.050805  -0.052241  -0.052186  -0.029896   0.310586  18.573629
     7  Ca  -0.052201  -0.052239  -0.050786  -0.029894   0.310569   0.098048
     8  Ca  -0.051752  -0.050464  -0.051742  -0.029753   0.309524   0.097530
              7          8
     1  O   -0.052201  -0.051752
     2  O   -0.052239  -0.050464
     3  O   -0.050786  -0.051742
     4  O   -0.029894  -0.029753
     5  P    0.310569   0.309524
     6  Ca   0.098048   0.097530
     7  Ca  18.573678   0.097525
     8  Ca   0.097525  18.572484
 Mulliken atomic charges:
              1
     1  O   -0.949988
     2  O   -0.949816
     3  O   -0.949844
     4  O   -0.564835
     5  P    1.097201
     6  Ca   1.105335
     7  Ca   1.105299
     8  Ca   1.106648
 Sum of Mulliken charges=   1.00000
 Atomic charges with hydrogens summed into heavy atoms:
              1
     1  O   -0.949988
     2  O   -0.949816
     3  O   -0.949844
     4  O   -0.564835
     5  P    1.097201
     6  Ca   1.105335
     7  Ca   1.105299
     8  Ca   1.106648
 Sum of Mulliken charges=   1.00000
 Electronic spatial extent (au):  <R**2>=  1841.7635
 Charge=     1.0000 electrons
 Dipole moment (field-independent basis, Debye):
    X=    -0.0052    Y=     0.0018    Z=   -10.4020  Tot=    10.4020
 Quadrupole moment (field-independent basis, Debye-Ang):
   XX=   -43.2320   YY=   -43.2772   ZZ=   -98.7788
   XY=    -0.0018   XZ=    -0.0392   YZ=    -0.0002
 Traceless Quadrupole moment (field-independent basis, Debye-Ang):
   XX=    18.5307   YY=    18.4855   ZZ=   -37.0162
   XY=    -0.0018   XZ=    -0.0392   YZ=    -0.0002
 Octapole moment (field-independent basis, Debye-Ang**2):
  XXX=    69.6325  YYY=     5.7910  ZZZ=    -0.7997  XYY=   -69.6091
  XXY=    -5.7820  XXZ=   -21.7310  XZZ=     0.0338  YZZ=     0.0034
  YYZ=   -21.6438  XYZ=     0.0035
 Hexadecapole moment (field-independent basis, Debye-Ang**3):
 XXXX=  -664.3506 YYYY=  -663.8323 ZZZZ=  -917.1200 XXXY=     0.0005
 XXXZ=   -31.3188 YYYX=    -0.0148 YYYZ=    -2.5930 ZZZX=    -0.2903
 ZZZY=    -0.0047 XXYY=  -221.2832 XXZZ=  -267.5351 YYZZ=  -267.4351
 XXYZ=     2.5806 YYXZ=    31.0194 ZZXY=    -0.0043
 N-N= 9.062017207495D+02 E-N=-8.132414424147D+03  KE= 2.667678257750D+03
 Merz-Kollman atomic radii used.
 Read replacement radii for each type of atom:
 Rad(20) =   1.188000000000D+00
 Atom Element Radius
    1     8    1.40
    2     8    1.40
    3     8    1.40
    4     8    1.40
    5    15    1.80
    6    20    1.19
    7    20    1.19
    8    20    1.19

 **********************************************************************

            Electrostatic Properties Using The SCF Density

 **********************************************************************

       Atomic Center    1 is at   0.689958 -1.274897  0.363641
       Atomic Center    2 is at  -1.448744  0.039976  0.365891
       Atomic Center    3 is at   0.759416  1.234893  0.363611
       Atomic Center    4 is at   0.002540 -0.000078  2.593521
       Atomic Center    5 is at   0.000950  0.000031  1.113841
       Atomic Center    6 is at  -1.092355  2.016398 -0.769479
       Atomic Center    7 is at  -1.202110 -1.953027 -0.769469
       Atomic Center    8 is at   2.292484 -0.063352 -0.771099
     665 points will be used for fitting atomic charges
 Fitting point charges to eletrostatic potential
 Charges from ESP fit, RMS=   0.03172 RRMS=   0.18576:
 Charge=   1.00000 Dipole=    -0.1909    -0.0612   -15.6919 Tot=    15.6932
              1
     1  O   -1.184610
     2  O   -1.190930
     3  O   -1.201469
     4  O   -1.113012
     5  P    2.815729
     6  Ca   0.964777
     7  Ca   0.961159
     8  Ca   0.948355
 -----------------------------------------------------------------

              Electrostatic Properties (Atomic Units)

 -----------------------------------------------------------------
    Center     Electric         -------- Electric Field --------
               Potential          X             Y             Z
 -----------------------------------------------------------------
    1 Atom    -22.219689
    2 Atom    -22.219536
    3 Atom    -22.219568
    4 Atom    -22.275305
    5 Atom    -53.889646
    6 Atom    -80.003222
    7 Atom    -80.003259
    8 Atom    -80.003192
 -----------------------------------------------------------------
 1\1\GINC-N035\SP\RB3LYP\6-31+G(d,p)\Ca3O4P1(1+)\TIMN\12-Jun-2015\0\\# 
 b3lyp/6-31+G(d,p) int=ultrafine pop=(ReadRadii,MK)\\Ca3PO4_196.mol2_pl
 usQ.z51205.zip.xyz\\1,1\O,0,0.68888,-1.27548,0.36364\O,0,-1.44871,0.04
 12,0.36589\O,0,0.76046,1.23425,0.36361\O,0,0.00254,-0.00008,2.59352\P,
 0,0.00095,0.00003,1.11384\Ca,0,-1.09065,2.01732,-0.76948\Ca,0,-1.20376
 ,-1.95201,-0.76947\Ca,0,2.29243,-0.06529,-0.7711\\Version=EM64T-G03Rev
 E.01\State=1-A\HF=-2675.0147889\RMSD=4.607e-05\Thermal=0.\Dipole=-0.00
 20504,0.0007118,-4.0924633\PG=C01 [X(Ca3O4P1)]\\@


 YOU CANNOT THROW TO THE GROUND THE LETTERS OF
 THE GREEK ALPHABET AND PICK UP THE ILIAD.
        - RUFUS CHOATE, 1799-1859
 Job cpu time:  0 days  0 hours  1 minutes 51.9 seconds.
 File lengths (MBytes):  RWF=     32 Int=      0 D2E=      0 Chk=     11 Scr=      1
 Normal termination of Gaussian 03 at Fri Jun 12 17:40:58 2015.
