 Entering Gaussian System, Link 0=/home/timn/tmp/g03.e01/g03
 Input=Ca3PO4_78.mol2c_plusQ.z51494.zip.xyz.gjf
 Output=Ca3PO4_78.mol2c_plusQ.z51494.zip.xyz.out
 Initial command:
 /home/timn/tmp/g03.e01/l1.exe /home/timn/tmp/g03.e01/Gau-13731.inp -scrdir=/home/timn/tmp/g03.e01/
 Default is to use a total of   2 processors:
                                2 via shared-memory
                                1 via Linda
 Entering Link 1 = /home/timn/tmp/g03.e01/l1.exe PID=     13732.
  
 Copyright (c) 1988,1990,1992,1993,1995,1998,2003,2004,2007, Gaussian, Inc.
                  All Rights Reserved.
  
 This is the Gaussian(R) 03 program.  It is based on the
 the Gaussian(R) 98 system (copyright 1998, Gaussian, Inc.),
 the Gaussian(R) 94 system (copyright 1995, Gaussian, Inc.),
 the Gaussian 92(TM) system (copyright 1992, Gaussian, Inc.),
 the Gaussian 90(TM) system (copyright 1990, Gaussian, Inc.),
 the Gaussian 88(TM) system (copyright 1988, Gaussian, Inc.),
 the Gaussian 86(TM) system (copyright 1986, Carnegie Mellon
 University), and the Gaussian 82(TM) system (copyright 1983,
 Carnegie Mellon University). Gaussian is a federally registered
 trademark of Gaussian, Inc.
  
 This software contains proprietary and confidential information,
 including trade secrets, belonging to Gaussian, Inc.
  
 This software is provided under written license and may be
 used, copied, transmitted, or stored only in accord with that
 written license.
  
 The following legend is applicable only to US Government
 contracts under FAR:
  
                    RESTRICTED RIGHTS LEGEND
  
 Use, reproduction and disclosure by the US Government is
 subject to restrictions as set forth in subparagraphs (a)
 and (c) of the Commercial Computer Software - Restricted
 Rights clause in FAR 52.227-19.
  
 Gaussian, Inc.
 340 Quinnipiac St., Bldg. 40, Wallingford CT 06492
  
  
 ---------------------------------------------------------------
 Warning -- This program may not be used in any manner that
 competes with the business of Gaussian, Inc. or will provide
 assistance to any competitor of Gaussian, Inc.  The licensee
 of this program is prohibited from giving any competitor of
 Gaussian, Inc. access to this program.  By using this program,
 the user acknowledges that Gaussian, Inc. is engaged in the
 business of creating and licensing software in the field of
 computational chemistry and represents and warrants to the
 licensee that it is not a competitor of Gaussian, Inc. and that
 it will not use this program in any manner prohibited above.
 ---------------------------------------------------------------
  

 Cite this work as:
 Gaussian 03, Revision E.01,
 M. J. Frisch, G. W. Trucks, H. B. Schlegel, G. E. Scuseria, 
 M. A. Robb, J. R. Cheeseman, J. A. Montgomery, Jr., T. Vreven, 
 K. N. Kudin, J. C. Burant, J. M. Millam, S. S. Iyengar, J. Tomasi, 
 V. Barone, B. Mennucci, M. Cossi, G. Scalmani, N. Rega, 
 G. A. Petersson, H. Nakatsuji, M. Hada, M. Ehara, K. Toyota, 
 R. Fukuda, J. Hasegawa, M. Ishida, T. Nakajima, Y. Honda, O. Kitao, 
 H. Nakai, M. Klene, X. Li, J. E. Knox, H. P. Hratchian, J. B. Cross, 
 V. Bakken, C. Adamo, J. Jaramillo, R. Gomperts, R. E. Stratmann, 
 O. Yazyev, A. J. Austin, R. Cammi, C. Pomelli, J. W. Ochterski, 
 P. Y. Ayala, K. Morokuma, G. A. Voth, P. Salvador, J. J. Dannenberg, 
 V. G. Zakrzewski, S. Dapprich, A. D. Daniels, M. C. Strain, 
 O. Farkas, D. K. Malick, A. D. Rabuck, K. Raghavachari, 
 J. B. Foresman, J. V. Ortiz, Q. Cui, A. G. Baboul, S. Clifford, 
 J. Cioslowski, B. B. Stefanov, G. Liu, A. Liashenko, P. Piskorz, 
 I. Komaromi, R. L. Martin, D. J. Fox, T. Keith, M. A. Al-Laham, 
 C. Y. Peng, A. Nanayakkara, M. Challacombe, P. M. W. Gill, 
 B. Johnson, W. Chen, M. W. Wong, C. Gonzalez, and J. A. Pople, 
 Gaussian, Inc., Wallingford CT, 2004.
 
 ******************************************
 Gaussian 03:  EM64T-G03RevE.01 11-Sep-2007
                12-Jun-2015 
 ******************************************
 %nproc=2
 Will use up to    2 processors via shared memory.
 Default route:  MP2=Direct MaxDisk=2000MB
 ----------------------------------------------------
 # b3lyp/6-31+G(d,p) int=ultrafine pop=(ReadRadii,MK)
 ----------------------------------------------------

 Warning!  SCF SP cutoffs with diffuse functions may be unreliable.
 Consider SCF=Tight

 1/38=1/1;
 2/17=6,18=5,40=1/2;
 3/5=1,6=6,7=111,11=2,16=1,25=1,30=1,74=-5,75=5/1,2,3;
 4//1;
 5/5=2,32=1,38=5/2;
 6/7=2,8=2,9=2,10=2,15=8,20=101,28=1/1,2;
 99/5=1,9=1/99;
 ------------------------------------
 Ca3PO4_78.mol2c_plusQ.z51494.zip.xyz
 ------------------------------------
 Symbolic Z-matrix:
 Charge =  1 Multiplicity = 1
 O                     0.19406  -1.46845   0.92194 
 O                    -1.36738   0.56658   0.92287 
 O                    -0.00121   0.0005   -1.71187 
 O                     1.17579   0.90085   0.92194 
 P                     0.00185  -0.00076   1.71804 
 Ca                   -0.25436   1.92959  -0.56929 
 Ca                   -1.54457  -1.1842   -0.56929 
 Ca                    1.79703  -0.74461  -0.5719 
 
                          Input orientation:                          
 ---------------------------------------------------------------------
 Center     Atomic     Atomic              Coordinates (Angstroms)
 Number     Number      Type              X           Y           Z
 ---------------------------------------------------------------------
    1          8             0        0.194060   -1.468450    0.921940
    2          8             0       -1.367380    0.566580    0.922870
    3          8             0       -0.001210    0.000500   -1.711870
    4          8             0        1.175790    0.900850    0.921940
    5         15             0        0.001850   -0.000760    1.718040
    6         20             0       -0.254360    1.929590   -0.569290
    7         20             0       -1.544570   -1.184200   -0.569290
    8         20             0        1.797030   -0.744610   -0.571900
 ---------------------------------------------------------------------
                    Distance matrix (angstroms):
                    1          2          3          4          5
     1  O    0.000000
     2  O    2.565042   0.000000
     3  O    3.022069   3.021377   0.000000
     4  O    2.564640   2.565044   3.022071   0.000000
     5  P    1.680724   1.681951   3.429912   1.680717   0.000000
     6  Ca   3.737850   2.307196   2.256316   2.308117   3.003960
     7  Ca   2.308116   2.307199   2.256316   3.737855   3.003968
     8  Ca   2.307599   3.737251   2.255745   2.307604   3.003300
                    6          7          8
     6  Ca   0.000000
     7  Ca   3.370509   0.000000
     8  Ca   3.370394   3.370391   0.000000
 Stoichiometry    Ca3O4P(1+)
 Framework group  C1[X(Ca3O4P)]
 Deg. of freedom    18
 Full point group                 C1
 Largest Abelian subgroup         C1      NOp   1
 Largest concise Abelian subgroup C1      NOp   1
                         Standard orientation:                         
 ---------------------------------------------------------------------
 Center     Atomic     Atomic              Coordinates (Angstroms)
 Number     Number      Type              X           Y           Z
 ---------------------------------------------------------------------
    1          8             0       -0.895682    1.179729    0.921940
    2          8             0        1.468534    0.184780    0.922870
    3          8             0        0.001297    0.000164   -1.711870
    4          8             0       -0.575508   -1.364847    0.921940
    5         15             0       -0.001985   -0.000256    1.718040
    6         20             0        1.176394   -1.550519   -0.569290
    7         20             0        0.755611    1.793620   -0.569290
    8         20             0       -1.929973   -0.242839   -0.571900
 ---------------------------------------------------------------------
 Rotational constants (GHZ):      1.0154977      1.0154951      0.9037633
 Standard basis: 6-31+G(d,p) (6D, 7F)
 There are   180 symmetry adapted basis functions of A   symmetry.
 Integral buffers will be    131072 words long.
 Raffenetti 2 integral format.
 Two-electron integral symmetry is turned on.
   180 basis functions,   424 primitive gaussians,   180 cartesian basis functions
    53 alpha electrons       53 beta electrons
       nuclear repulsion energy       952.7159659549 Hartrees.
 NAtoms=    8 NActive=    8 NUniq=    8 SFac= 7.50D-01 NAtFMM=   80 NAOKFM=F Big=F
 One-electron integrals computed using PRISM.
 NBasis=   180 RedAO= T  NBF=   180
 NBsUse=   180 1.00D-06 NBFU=   180
 Harris functional with IExCor=  402 diagonalized for initial guess.
 ExpMin= 7.10D-03 ExpMax= 3.53D+04 ExpMxC= 5.30D+03 IAcc=3 IRadAn=         5 AccDes= 0.00D+00
 HarFok:  IExCor= 402 AccDes= 0.00D+00 IRadAn=         5 IDoV=1
 ScaDFX=  1.000000  1.000000  1.000000  1.000000
 Initial guess orbital symmetries:
       Occupied  (A) (A) (A) (A) (A) (A) (A) (A) (A) (A) (A) (A)
                 (A) (A) (A) (A) (A) (A) (A) (A) (A) (A) (A) (A)
                 (A) (A) (A) (A) (A) (A) (A) (A) (A) (A) (A) (A)
                 (A) (A) (A) (A) (A) (A) (A) (A) (A) (A) (A) (A)
                 (A) (A) (A) (A) (A)
       Virtual   (A) (A) (A) (A) (A) (A) (A) (A) (A) (A) (A) (A)
                 (A) (A) (A) (A) (A) (A) (A) (A) (A) (A) (A) (A)
                 (A) (A) (A) (A) (A) (A) (A) (A) (A) (A) (A) (A)
                 (A) (A) (A) (A) (A) (A) (A) (A) (A) (A) (A) (A)
                 (A) (A) (A) (A) (A) (A) (A) (A) (A) (A) (A) (A)
                 (A) (A) (A) (A) (A) (A) (A) (A) (A) (A) (A) (A)
                 (A) (A) (A) (A) (A) (A) (A) (A) (A) (A) (A) (A)
                 (A) (A) (A) (A) (A) (A) (A) (A) (A) (A) (A) (A)
                 (A) (A) (A) (A) (A) (A) (A) (A) (A) (A) (A) (A)
                 (A) (A) (A) (A) (A) (A) (A) (A) (A) (A) (A) (A)
                 (A) (A) (A) (A) (A) (A) (A)
 The electronic state of the initial guess is 1-A.
 Requested convergence on RMS density matrix=1.00D-04 within 128 cycles.
 Requested convergence on MAX density matrix=1.00D-02.
 Requested convergence on             energy=1.00D-02.
 No special actions if energy rises.
 SCF Done:  E(RB+HF-LYP) =  -2675.07103669     A.U. after    8 cycles
             Convg  =    0.8202D-04             -V/T =  2.0028
             S**2   =   0.0000

 **********************************************************************

            Population analysis using the SCF density.

 **********************************************************************

 Orbital symmetries:
       Occupied  (A) (A) (A) (A) (A) (A) (A) (A) (A) (A) (A) (A)
                 (A) (A) (A) (A) (A) (A) (A) (A) (A) (A) (A) (A)
                 (A) (A) (A) (A) (A) (A) (A) (A) (A) (A) (A) (A)
                 (A) (A) (A) (A) (A) (A) (A) (A) (A) (A) (A) (A)
                 (A) (A) (A) (A) (A)
       Virtual   (A) (A) (A) (A) (A) (A) (A) (A) (A) (A) (A) (A)
                 (A) (A) (A) (A) (A) (A) (A) (A) (A) (A) (A) (A)
                 (A) (A) (A) (A) (A) (A) (A) (A) (A) (A) (A) (A)
                 (A) (A) (A) (A) (A) (A) (A) (A) (A) (A) (A) (A)
                 (A) (A) (A) (A) (A) (A) (A) (A) (A) (A) (A) (A)
                 (A) (A) (A) (A) (A) (A) (A) (A) (A) (A) (A) (A)
                 (A) (A) (A) (A) (A) (A) (A) (A) (A) (A) (A) (A)
                 (A) (A) (A) (A) (A) (A) (A) (A) (A) (A) (A) (A)
                 (A) (A) (A) (A) (A) (A) (A) (A) (A) (A) (A) (A)
                 (A) (A) (A) (A) (A) (A) (A) (A) (A) (A) (A) (A)
                 (A) (A) (A) (A) (A) (A) (A)
 The electronic state is 1-A.
 Alpha  occ. eigenvalues -- -145.49637-145.49632-145.49631 -77.25055 -19.21252
 Alpha  occ. eigenvalues --  -19.21251 -19.21161 -19.15932 -15.56471 -15.56467
 Alpha  occ. eigenvalues --  -15.56467 -12.69667 -12.69666 -12.69666 -12.69645
 Alpha  occ. eigenvalues --  -12.69645 -12.69642 -12.69597 -12.69597 -12.69596
 Alpha  occ. eigenvalues --   -6.70084  -4.86433  -4.86433  -4.85897  -1.93820
 Alpha  occ. eigenvalues --   -1.93735  -1.93735  -1.22373  -1.21692  -1.21691
 Alpha  occ. eigenvalues --   -1.21302  -1.21136  -1.21062  -1.21060  -1.20638
 Alpha  occ. eigenvalues --   -1.20638  -1.06753  -1.00374  -1.00327  -0.90930
 Alpha  occ. eigenvalues --   -0.62641  -0.50530  -0.50518  -0.47957  -0.43355
 Alpha  occ. eigenvalues --   -0.43352  -0.38353  -0.38327  -0.38175  -0.36130
 Alpha  occ. eigenvalues --   -0.36125  -0.34584  -0.30858
 Alpha virt. eigenvalues --   -0.19948  -0.18025  -0.18024  -0.12553  -0.12551
 Alpha virt. eigenvalues --   -0.10892  -0.09477  -0.09476  -0.08337  -0.07770
 Alpha virt. eigenvalues --   -0.06545  -0.06113  -0.06113  -0.04764  -0.04716
 Alpha virt. eigenvalues --   -0.04714  -0.04672  -0.04474  -0.04472  -0.04003
 Alpha virt. eigenvalues --   -0.04003  -0.03231  -0.02943  -0.02943  -0.02359
 Alpha virt. eigenvalues --   -0.02356  -0.00866   0.01028   0.02177   0.02618
 Alpha virt. eigenvalues --    0.02619   0.04575   0.04576   0.05229   0.06004
 Alpha virt. eigenvalues --    0.06005   0.06295   0.06295   0.07292   0.07297
 Alpha virt. eigenvalues --    0.07383   0.07666   0.07670   0.07824   0.08467
 Alpha virt. eigenvalues --    0.10687   0.10689   0.11333   0.11806   0.13661
 Alpha virt. eigenvalues --    0.15683   0.15683   0.19891   0.19893   0.20374
 Alpha virt. eigenvalues --    0.22088   0.22094   0.23486   0.23995   0.25321
 Alpha virt. eigenvalues --    0.25959   0.25971   0.30033   0.31451   0.31458
 Alpha virt. eigenvalues --    0.35747   0.36005   0.36008   0.37872   0.39075
 Alpha virt. eigenvalues --    0.39089   0.39780   0.45833   0.45834   0.53631
 Alpha virt. eigenvalues --    0.53634   0.55847   0.63370   0.63373   0.67682
 Alpha virt. eigenvalues --    0.82901   0.86956   0.86970   0.94089   0.94121
 Alpha virt. eigenvalues --    1.14558   1.16753   1.16771   1.18031   1.20794
 Alpha virt. eigenvalues --    1.21960   1.21985   1.23407   1.23417   1.28213
 Alpha virt. eigenvalues --    1.34157   1.34197   1.36436   1.54453   1.54480
 Alpha virt. eigenvalues --    1.57773   1.68383   1.71621   1.73136   1.73163
 Alpha virt. eigenvalues --    1.77476   1.77490   1.87085   1.87377   1.87386
 Alpha virt. eigenvalues --    1.88081   1.92069   1.92079   1.93329   1.98433
 Alpha virt. eigenvalues --    1.98449   2.03030   2.03033   2.14790   2.38156
 Alpha virt. eigenvalues --    2.55086   2.55193   3.54380   4.05632   4.14263
 Alpha virt. eigenvalues --    4.14314   4.31234
          Condensed to atoms (all electrons):
              1          2          3          4          5          6
     1  O    8.966310   0.058568   0.023994   0.058832  -0.201104   0.006254
     2  O    0.058568   8.964676   0.023932   0.058569  -0.200040   0.060017
     3  O    0.023994   0.023932   8.852489   0.023982  -0.039969   0.122128
     4  O    0.058832   0.058569   0.023982   8.966294  -0.201098   0.059810
     5  P   -0.201104  -0.200040  -0.039969  -0.201098  14.443003   0.033644
     6  Ca   0.006254   0.060017   0.122128   0.059810   0.033644  18.396819
     7  Ca   0.059796   0.060008   0.122124   0.006252   0.033639  -0.047554
     8  Ca   0.059716   0.006161   0.122245   0.059717   0.034056  -0.047720
              7          8
     1  O    0.059796   0.059716
     2  O    0.060008   0.006161
     3  O    0.122124   0.122245
     4  O    0.006252   0.059717
     5  P    0.033639   0.034056
     6  Ca  -0.047554  -0.047720
     7  Ca  18.396827  -0.047711
     8  Ca  -0.047711  18.397090
 Mulliken atomic charges:
              1
     1  O   -1.032367
     2  O   -1.031890
     3  O   -1.250925
     4  O   -1.032358
     5  P    1.097870
     6  Ca   1.416603
     7  Ca   1.416620
     8  Ca   1.416447
 Sum of Mulliken charges=   1.00000
 Atomic charges with hydrogens summed into heavy atoms:
              1
     1  O   -1.032367
     2  O   -1.031890
     3  O   -1.250925
     4  O   -1.032358
     5  P    1.097870
     6  Ca   1.416603
     7  Ca   1.416620
     8  Ca   1.416447
 Sum of Mulliken charges=   1.00000
 Electronic spatial extent (au):  <R**2>=  1510.1127
 Charge=     1.0000 electrons
 Dipole moment (field-independent basis, Debye):
    X=     0.0127    Y=     0.0017    Z=    -8.2281  Tot=     8.2281
 Quadrupole moment (field-independent basis, Debye-Ang):
   XX=   -40.0424   YY=   -40.0301   ZZ=   -90.0155
   XY=    -0.0016   XZ=     0.0429   YZ=     0.0054
 Traceless Quadrupole moment (field-independent basis, Debye-Ang):
   XX=    16.6536   YY=    16.6659   ZZ=   -33.3195
   XY=    -0.0016   XZ=     0.0429   YZ=     0.0054
 Octapole moment (field-independent basis, Debye-Ang**2):
  XXX=   -54.3840  YYY=    21.5104  ZZZ=    -1.6827  XYY=    54.5670
  XXY=   -21.4871  XXZ=   -46.7201  XZZ=    -0.0679  YZZ=    -0.0086
  YYZ=   -46.6162  XYZ=    -0.0132
 Hexadecapole moment (field-independent basis, Debye-Ang**3):
 XXXX=  -416.2378 YYYY=  -415.9894 ZZZZ=  -721.6788 XXXY=    -0.0360
 XXXZ=    14.5133 YYYX=     0.0048 YYYZ=    -5.6399 ZZZX=     0.1752
 ZZZY=     0.0227 XXYY=  -138.6554 XXZZ=  -187.5782 YYZZ=  -187.6255
 XXYZ=     5.6665 YYXZ=   -14.3053 ZZXY=     0.0063
 N-N= 9.527159659549D+02 E-N=-8.229903470673D+03  KE= 2.667693058971D+03
 Merz-Kollman atomic radii used.
 Read replacement radii for each type of atom:
 Rad(20) =   1.188000000000D+00
 Atom Element Radius
    1     8    1.40
    2     8    1.40
    3     8    1.40
    4     8    1.40
    5    15    1.80
    6    20    1.19
    7    20    1.19
    8    20    1.19

 **********************************************************************

            Electrostatic Properties Using The SCF Density

 **********************************************************************

       Atomic Center    1 is at  -0.895682  1.179729  0.921940
       Atomic Center    2 is at   1.468534  0.184780  0.922870
       Atomic Center    3 is at   0.001297  0.000164 -1.711870
       Atomic Center    4 is at  -0.575508 -1.364847  0.921940
       Atomic Center    5 is at  -0.001985 -0.000256  1.718040
       Atomic Center    6 is at   1.176394 -1.550519 -0.569290
       Atomic Center    7 is at   0.755611  1.793620 -0.569290
       Atomic Center    8 is at  -1.929973 -0.242839 -0.571900
     686 points will be used for fitting atomic charges
 Fitting point charges to eletrostatic potential
 Charges from ESP fit, RMS=   0.00625 RRMS=   0.03807:
 Charge=   1.00000 Dipole=    -0.0106    -0.0063    -8.4388 Tot=     8.4388
              1
     1  O   -0.948250
     2  O   -0.947712
     3  O   -1.636736
     4  O   -0.948359
     5  P    0.519825
     6  Ca   1.653067
     7  Ca   1.652371
     8  Ca   1.655795
 -----------------------------------------------------------------

              Electrostatic Properties (Atomic Units)

 -----------------------------------------------------------------
    Center     Electric         -------- Electric Field --------
               Potential          X             Y             Z
 -----------------------------------------------------------------
    1 Atom    -22.251785
    2 Atom    -22.250055
    3 Atom    -22.290583
    4 Atom    -22.251804
    5 Atom    -53.967971
    6 Atom    -80.043269
    7 Atom    -80.043267
    8 Atom    -80.043373
 -----------------------------------------------------------------
 1\1\GINC-N032\SP\RB3LYP\6-31+G(d,p)\Ca3O4P1(1+)\TIMN\12-Jun-2015\0\\# 
 b3lyp/6-31+G(d,p) int=ultrafine pop=(ReadRadii,MK)\\Ca3PO4_78.mol2c_pl
 usQ.z51494.zip.xyz\\1,1\O,0,0.19406,-1.46845,0.92194\O,0,-1.36738,0.56
 658,0.92287\O,0,-0.00121,0.0005,-1.71187\O,0,1.17579,0.90085,0.92194\P
 ,0,0.00185,-0.00076,1.71804\Ca,0,-0.25436,1.92959,-0.56929\Ca,0,-1.544
 57,-1.1842,-0.56929\Ca,0,1.79703,-0.74461,-0.5719\\Version=EM64T-G03Re
 vE.01\State=1-A\HF=-2675.0710367\RMSD=8.202e-05\Thermal=0.\Dipole=-0.0
 046587,0.0019027,-3.2371667\PG=C01 [X(Ca3O4P1)]\\@


 "PERFECTION IS NOT AN ACCIDENT"
         --  EAGLE ELECTRIC MANUFACTURING CO.,INC. NY
 Job cpu time:  0 days  0 hours  1 minutes 45.3 seconds.
 File lengths (MBytes):  RWF=     32 Int=      0 D2E=      0 Chk=     11 Scr=      1
 Normal termination of Gaussian 03 at Fri Jun 12 17:45:41 2015.
