 Entering Gaussian System, Link 0=/home/timn/tmp/g03.e01/g03
 Input=Ca3PO4_49.mol2c_plusQ.z51462.zip.xyz.gjf
 Output=Ca3PO4_49.mol2c_plusQ.z51462.zip.xyz.out
 Initial command:
 /home/timn/tmp/g03.e01/l1.exe /home/timn/tmp/g03.e01/Gau-12139.inp -scrdir=/home/timn/tmp/g03.e01/
 Default is to use a total of   2 processors:
                                2 via shared-memory
                                1 via Linda
 Entering Link 1 = /home/timn/tmp/g03.e01/l1.exe PID=     12140.
  
 Copyright (c) 1988,1990,1992,1993,1995,1998,2003,2004,2007, Gaussian, Inc.
                  All Rights Reserved.
  
 This is the Gaussian(R) 03 program.  It is based on the
 the Gaussian(R) 98 system (copyright 1998, Gaussian, Inc.),
 the Gaussian(R) 94 system (copyright 1995, Gaussian, Inc.),
 the Gaussian 92(TM) system (copyright 1992, Gaussian, Inc.),
 the Gaussian 90(TM) system (copyright 1990, Gaussian, Inc.),
 the Gaussian 88(TM) system (copyright 1988, Gaussian, Inc.),
 the Gaussian 86(TM) system (copyright 1986, Carnegie Mellon
 University), and the Gaussian 82(TM) system (copyright 1983,
 Carnegie Mellon University). Gaussian is a federally registered
 trademark of Gaussian, Inc.
  
 This software contains proprietary and confidential information,
 including trade secrets, belonging to Gaussian, Inc.
  
 This software is provided under written license and may be
 used, copied, transmitted, or stored only in accord with that
 written license.
  
 The following legend is applicable only to US Government
 contracts under FAR:
  
                    RESTRICTED RIGHTS LEGEND
  
 Use, reproduction and disclosure by the US Government is
 subject to restrictions as set forth in subparagraphs (a)
 and (c) of the Commercial Computer Software - Restricted
 Rights clause in FAR 52.227-19.
  
 Gaussian, Inc.
 340 Quinnipiac St., Bldg. 40, Wallingford CT 06492
  
  
 ---------------------------------------------------------------
 Warning -- This program may not be used in any manner that
 competes with the business of Gaussian, Inc. or will provide
 assistance to any competitor of Gaussian, Inc.  The licensee
 of this program is prohibited from giving any competitor of
 Gaussian, Inc. access to this program.  By using this program,
 the user acknowledges that Gaussian, Inc. is engaged in the
 business of creating and licensing software in the field of
 computational chemistry and represents and warrants to the
 licensee that it is not a competitor of Gaussian, Inc. and that
 it will not use this program in any manner prohibited above.
 ---------------------------------------------------------------
  

 Cite this work as:
 Gaussian 03, Revision E.01,
 M. J. Frisch, G. W. Trucks, H. B. Schlegel, G. E. Scuseria, 
 M. A. Robb, J. R. Cheeseman, J. A. Montgomery, Jr., T. Vreven, 
 K. N. Kudin, J. C. Burant, J. M. Millam, S. S. Iyengar, J. Tomasi, 
 V. Barone, B. Mennucci, M. Cossi, G. Scalmani, N. Rega, 
 G. A. Petersson, H. Nakatsuji, M. Hada, M. Ehara, K. Toyota, 
 R. Fukuda, J. Hasegawa, M. Ishida, T. Nakajima, Y. Honda, O. Kitao, 
 H. Nakai, M. Klene, X. Li, J. E. Knox, H. P. Hratchian, J. B. Cross, 
 V. Bakken, C. Adamo, J. Jaramillo, R. Gomperts, R. E. Stratmann, 
 O. Yazyev, A. J. Austin, R. Cammi, C. Pomelli, J. W. Ochterski, 
 P. Y. Ayala, K. Morokuma, G. A. Voth, P. Salvador, J. J. Dannenberg, 
 V. G. Zakrzewski, S. Dapprich, A. D. Daniels, M. C. Strain, 
 O. Farkas, D. K. Malick, A. D. Rabuck, K. Raghavachari, 
 J. B. Foresman, J. V. Ortiz, Q. Cui, A. G. Baboul, S. Clifford, 
 J. Cioslowski, B. B. Stefanov, G. Liu, A. Liashenko, P. Piskorz, 
 I. Komaromi, R. L. Martin, D. J. Fox, T. Keith, M. A. Al-Laham, 
 C. Y. Peng, A. Nanayakkara, M. Challacombe, P. M. W. Gill, 
 B. Johnson, W. Chen, M. W. Wong, C. Gonzalez, and J. A. Pople, 
 Gaussian, Inc., Wallingford CT, 2004.
 
 ******************************************
 Gaussian 03:  EM64T-G03RevE.01 11-Sep-2007
                12-Jun-2015 
 ******************************************
 %nproc=2
 Will use up to    2 processors via shared memory.
 Default route:  MP2=Direct MaxDisk=2000MB
 ----------------------------------------------------
 # b3lyp/6-31+G(d,p) int=ultrafine pop=(ReadRadii,MK)
 ----------------------------------------------------

 Warning!  SCF SP cutoffs with diffuse functions may be unreliable.
 Consider SCF=Tight

 1/38=1/1;
 2/17=6,18=5,40=1/2;
 3/5=1,6=6,7=111,11=2,16=1,25=1,30=1,74=-5,75=5/1,2,3;
 4//1;
 5/5=2,32=1,38=5/2;
 6/7=2,8=2,9=2,10=2,15=8,20=101,28=1/1,2;
 99/5=1,9=1/99;
 ------------------------------------
 Ca3PO4_49.mol2c_plusQ.z51462.zip.xyz
 ------------------------------------
 Symbolic Z-matrix:
 Charge =  1 Multiplicity = 1
 O                    -1.48158   0.56156   1.22919 
 O                    -1.48228   0.56216  -1.22903 
 O                    -2.55188  -1.41221  -0.00002 
 O                     1.50332  -0.01085   0.00037 
 P                    -2.45977   0.15057   0.00023 
 Ca                    3.64964  -0.26361  -0.00004 
 Ca                   -0.25359  -1.48511  -0.00025 
 Ca                    0.05375   1.75553  -0.00009 
 
                          Input orientation:                          
 ---------------------------------------------------------------------
 Center     Atomic     Atomic              Coordinates (Angstroms)
 Number     Number      Type              X           Y           Z
 ---------------------------------------------------------------------
    1          8             0       -1.481580    0.561560    1.229190
    2          8             0       -1.482280    0.562160   -1.229030
    3          8             0       -2.551880   -1.412210   -0.000020
    4          8             0        1.503320   -0.010850    0.000370
    5         15             0       -2.459770    0.150570    0.000230
    6         20             0        3.649640   -0.263610   -0.000040
    7         20             0       -0.253590   -1.485110   -0.000250
    8         20             0        0.053750    1.755530   -0.000090
 ---------------------------------------------------------------------
                    Distance matrix (angstroms):
                    1          2          3          4          5
     1  O    0.000000
     2  O    2.458220   0.000000
     3  O    2.559740   2.559814   0.000000
     4  O    3.278304   3.279264   4.290508   0.000000
     5  P    1.623611   1.623568   1.565492   3.966376   0.000000
     6  Ca   5.340537   5.341247   6.306991   2.161152   6.123433
     7  Ca   2.684835   2.685311   2.299446   2.293507   2.746394
     8  Ca   2.300855   2.300829   4.101693   2.285028   2.982227
                    6          7          8
     6  Ca   0.000000
     7  Ca   4.089898   0.000000
     8  Ca   4.123997   3.255181   0.000000
 Stoichiometry    Ca3O4P(1+)
 Framework group  C1[X(Ca3O4P)]
 Deg. of freedom    18
 Full point group                 C1
 Largest Abelian subgroup         C1      NOp   1
 Largest concise Abelian subgroup C1      NOp   1
                         Standard orientation:                         
 ---------------------------------------------------------------------
 Center     Atomic     Atomic              Coordinates (Angstroms)
 Number     Number      Type              X           Y           Z
 ---------------------------------------------------------------------
    1          8             0       -1.481581    0.561559    1.229191
    2          8             0       -1.482281    0.562159   -1.229029
    3          8             0       -2.551880   -1.412211   -0.000019
    4          8             0        1.503319   -0.010850    0.000371
    5         15             0       -2.459771    0.150569    0.000231
    6         20             0        3.649639   -0.263609   -0.000039
    7         20             0       -0.253590   -1.485110   -0.000249
    8         20             0        0.053748    1.755530   -0.000089
 ---------------------------------------------------------------------
 Rotational constants (GHZ):      1.6564050      0.5150370      0.4247957
 Standard basis: 6-31+G(d,p) (6D, 7F)
 There are   180 symmetry adapted basis functions of A   symmetry.
 Integral buffers will be    131072 words long.
 Raffenetti 2 integral format.
 Two-electron integral symmetry is turned on.
   180 basis functions,   424 primitive gaussians,   180 cartesian basis functions
    53 alpha electrons       53 beta electrons
       nuclear repulsion energy       861.0614596074 Hartrees.
 NAtoms=    8 NActive=    8 NUniq=    8 SFac= 7.50D-01 NAtFMM=   80 NAOKFM=F Big=F
 One-electron integrals computed using PRISM.
 NBasis=   180 RedAO= T  NBF=   180
 NBsUse=   180 1.00D-06 NBFU=   180
 Harris functional with IExCor=  402 diagonalized for initial guess.
 ExpMin= 7.10D-03 ExpMax= 3.53D+04 ExpMxC= 5.30D+03 IAcc=3 IRadAn=         5 AccDes= 0.00D+00
 HarFok:  IExCor= 402 AccDes= 0.00D+00 IRadAn=         5 IDoV=1
 ScaDFX=  1.000000  1.000000  1.000000  1.000000
 Initial guess orbital symmetries:
       Occupied  (A) (A) (A) (A) (A) (A) (A) (A) (A) (A) (A) (A)
                 (A) (A) (A) (A) (A) (A) (A) (A) (A) (A) (A) (A)
                 (A) (A) (A) (A) (A) (A) (A) (A) (A) (A) (A) (A)
                 (A) (A) (A) (A) (A) (A) (A) (A) (A) (A) (A) (A)
                 (A) (A) (A) (A) (A)
       Virtual   (A) (A) (A) (A) (A) (A) (A) (A) (A) (A) (A) (A)
                 (A) (A) (A) (A) (A) (A) (A) (A) (A) (A) (A) (A)
                 (A) (A) (A) (A) (A) (A) (A) (A) (A) (A) (A) (A)
                 (A) (A) (A) (A) (A) (A) (A) (A) (A) (A) (A) (A)
                 (A) (A) (A) (A) (A) (A) (A) (A) (A) (A) (A) (A)
                 (A) (A) (A) (A) (A) (A) (A) (A) (A) (A) (A) (A)
                 (A) (A) (A) (A) (A) (A) (A) (A) (A) (A) (A) (A)
                 (A) (A) (A) (A) (A) (A) (A) (A) (A) (A) (A) (A)
                 (A) (A) (A) (A) (A) (A) (A) (A) (A) (A) (A) (A)
                 (A) (A) (A) (A) (A) (A) (A) (A) (A) (A) (A) (A)
                 (A) (A) (A) (A) (A) (A) (A)
 The electronic state of the initial guess is 1-A.
 Requested convergence on RMS density matrix=1.00D-04 within 128 cycles.
 Requested convergence on MAX density matrix=1.00D-02.
 Requested convergence on             energy=1.00D-02.
 No special actions if energy rises.
 EnCoef did     3 forward-backward iterations
 EnCoef did     3 forward-backward iterations
 EnCoef did     9 forward-backward iterations
 SCF Done:  E(RB+HF-LYP) =  -2674.96933181     A.U. after   13 cycles
             Convg  =    0.1465D-04             -V/T =  2.0027
             S**2   =   0.0000

 **********************************************************************

            Population analysis using the SCF density.

 **********************************************************************

 Orbital symmetries:
       Occupied  (A) (A) (A) (A) (A) (A) (A) (A) (A) (A) (A) (A)
                 (A) (A) (A) (A) (A) (A) (A) (A) (A) (A) (A) (A)
                 (A) (A) (A) (A) (A) (A) (A) (A) (A) (A) (A) (A)
                 (A) (A) (A) (A) (A) (A) (A) (A) (A) (A) (A) (A)
                 (A) (A) (A) (A) (A)
       Virtual   (A) (A) (A) (A) (A) (A) (A) (A) (A) (A) (A) (A)
                 (A) (A) (A) (A) (A) (A) (A) (A) (A) (A) (A) (A)
                 (A) (A) (A) (A) (A) (A) (A) (A) (A) (A) (A) (A)
                 (A) (A) (A) (A) (A) (A) (A) (A) (A) (A) (A) (A)
                 (A) (A) (A) (A) (A) (A) (A) (A) (A) (A) (A) (A)
                 (A) (A) (A) (A) (A) (A) (A) (A) (A) (A) (A) (A)
                 (A) (A) (A) (A) (A) (A) (A) (A) (A) (A) (A) (A)
                 (A) (A) (A) (A) (A) (A) (A) (A) (A) (A) (A) (A)
                 (A) (A) (A) (A) (A) (A) (A) (A) (A) (A) (A) (A)
                 (A) (A) (A) (A) (A) (A) (A) (A) (A) (A) (A) (A)
                 (A) (A) (A) (A) (A) (A) (A)
 The electronic state is 1-A.
 Alpha  occ. eigenvalues -- -145.55818-145.50086-145.50011 -77.25792 -19.21432
 Alpha  occ. eigenvalues --  -19.21422 -19.20876 -19.20359 -15.62757 -15.56916
 Alpha  occ. eigenvalues --  -15.56859 -12.75967 -12.75960 -12.75817 -12.70155
 Alpha  occ. eigenvalues --  -12.70146 -12.70055 -12.70044 -12.69982 -12.69980
 Alpha  occ. eigenvalues --   -6.70981  -4.87273  -4.87248  -4.87109  -1.99819
 Alpha  occ. eigenvalues --   -1.94149  -1.94024  -1.27416  -1.27345  -1.26673
 Alpha  occ. eigenvalues --   -1.22614  -1.21674  -1.21660  -1.21544  -1.21529
 Alpha  occ. eigenvalues --   -1.20867  -1.08502  -1.01257  -1.00617  -0.95533
 Alpha  occ. eigenvalues --   -0.60814  -0.49930  -0.49323  -0.49048  -0.43413
 Alpha  occ. eigenvalues --   -0.41468  -0.41342  -0.40872  -0.38943  -0.38107
 Alpha  occ. eigenvalues --   -0.37086  -0.35503  -0.28524
 Alpha virt. eigenvalues --   -0.25639  -0.19510  -0.18739  -0.16213  -0.15701
 Alpha virt. eigenvalues --   -0.13308  -0.10762  -0.10041  -0.09620  -0.08493
 Alpha virt. eigenvalues --   -0.08235  -0.06943  -0.06587  -0.06009  -0.05229
 Alpha virt. eigenvalues --   -0.05152  -0.04538  -0.04298  -0.04286  -0.03992
 Alpha virt. eigenvalues --   -0.03988  -0.03388  -0.03058  -0.02672  -0.02239
 Alpha virt. eigenvalues --   -0.01314  -0.00252   0.00792   0.01484   0.01595
 Alpha virt. eigenvalues --    0.02289   0.02486   0.02583   0.03111   0.03639
 Alpha virt. eigenvalues --    0.03705   0.04480   0.04977   0.05584   0.05813
 Alpha virt. eigenvalues --    0.06409   0.06661   0.06829   0.07805   0.08114
 Alpha virt. eigenvalues --    0.08700   0.09019   0.09819   0.10458   0.11122
 Alpha virt. eigenvalues --    0.11607   0.14112   0.15716   0.16310   0.18044
 Alpha virt. eigenvalues --    0.19296   0.19536   0.21757   0.23106   0.23444
 Alpha virt. eigenvalues --    0.24608   0.26857   0.28393   0.28440   0.30461
 Alpha virt. eigenvalues --    0.31955   0.32072   0.33178   0.36003   0.37483
 Alpha virt. eigenvalues --    0.38609   0.42183   0.42571   0.46522   0.47674
 Alpha virt. eigenvalues --    0.48374   0.53727   0.61396   0.63246   0.70275
 Alpha virt. eigenvalues --    0.73755   0.75240   0.81334   0.94012   0.97195
 Alpha virt. eigenvalues --    1.08066   1.11452   1.14127   1.14749   1.15387
 Alpha virt. eigenvalues --    1.18259   1.20410   1.20528   1.23207   1.25621
 Alpha virt. eigenvalues --    1.28831   1.30662   1.38349   1.42073   1.45762
 Alpha virt. eigenvalues --    1.56961   1.71331   1.74205   1.75177   1.75233
 Alpha virt. eigenvalues --    1.77730   1.77783   1.78193   1.81957   1.82367
 Alpha virt. eigenvalues --    1.83744   1.85241   1.88037   1.91600   1.94228
 Alpha virt. eigenvalues --    1.95775   2.03360   2.06138   2.10723   2.52037
 Alpha virt. eigenvalues --    2.63937   2.72607   3.50248   3.90474   3.98369
 Alpha virt. eigenvalues --    4.08271   4.25732
          Condensed to atoms (all electrons):
              1          2          3          4          5          6
     1  O    8.836244   0.056092   0.034117  -0.008510  -0.210520   0.011302
     2  O    0.056092   8.836598   0.034101  -0.008503  -0.210707   0.011304
     3  O    0.034117   0.034101   8.744681   0.000081  -0.110530   0.006190
     4  O   -0.008510  -0.008503   0.000081   9.068756  -0.017835   0.080798
     5  P   -0.210520  -0.210707  -0.110530  -0.017835  14.472168  -0.028502
     6  Ca   0.011302   0.011304   0.006190   0.080798  -0.028502  18.738806
     7  Ca   0.019863   0.019843   0.053993   0.047759   0.163961   0.050890
     8  Ca   0.111137   0.111148   0.030800   0.074537  -0.053984   0.031328
              7          8
     1  O    0.019863   0.111137
     2  O    0.019843   0.111148
     3  O    0.053993   0.030800
     4  O    0.047759   0.074537
     5  P    0.163961  -0.053984
     6  Ca   0.050890   0.031328
     7  Ca  18.382139  -0.008550
     8  Ca  -0.008550  18.337398
 Mulliken atomic charges:
              1
     1  O   -0.849725
     2  O   -0.849876
     3  O   -0.793433
     4  O   -1.237084
     5  P    0.995948
     6  Ca   1.097884
     7  Ca   1.270100
     8  Ca   1.366186
 Sum of Mulliken charges=   1.00000
 Atomic charges with hydrogens summed into heavy atoms:
              1
     1  O   -0.849725
     2  O   -0.849876
     3  O   -0.793433
     4  O   -1.237084
     5  P    0.995948
     6  Ca   1.097884
     7  Ca   1.270100
     8  Ca   1.366186
 Sum of Mulliken charges=   1.00000
 Electronic spatial extent (au):  <R**2>=  2328.2120
 Charge=     1.0000 electrons
 Dipole moment (field-independent basis, Debye):
    X=    17.9749    Y=     1.5969    Z=    -0.0019  Tot=    18.0457
 Quadrupole moment (field-independent basis, Debye-Ang):
   XX=   -41.7568   YY=   -43.5927   ZZ=   -85.1467
   XY=    -6.9815   XZ=    -0.0045   YZ=     0.0038
 Traceless Quadrupole moment (field-independent basis, Debye-Ang):
   XX=    15.0752   YY=    13.2394   ZZ=   -28.3146
   XY=    -6.9815   XZ=    -0.0045   YZ=     0.0038
 Octapole moment (field-independent basis, Debye-Ang**2):
  XXX=   247.6706  YYY=    31.7090  ZZZ=    -0.0027  XYY=    20.6328
  XXY=     4.1361  XXZ=     0.0170  XZZ=    17.2874  YZZ=    -5.6075
  YYZ=    -0.0017  XYZ=    -0.0063
 Hexadecapole moment (field-independent basis, Debye-Ang**3):
 XXXX= -1471.5383 YYYY=  -422.7290 ZZZZ=  -251.7329 XXXY=  -108.3611
 XXXZ=     0.0226 YYYX=   -10.1992 YYYZ=     0.0067 ZZZX=     0.0113
 ZZZY=     0.0050 XXYY=  -511.7865 XXZZ=  -423.7582 YYZZ=  -129.7227
 XXYZ=     0.0042 YYXZ=     0.0006 ZZXY=    12.0075
 N-N= 8.610614596074D+02 E-N=-8.044956114701D+03  KE= 2.667667763502D+03
 Merz-Kollman atomic radii used.
 Read replacement radii for each type of atom:
 Rad(20) =   1.188000000000D+00
 Atom Element Radius
    1     8    1.40
    2     8    1.40
    3     8    1.40
    4     8    1.40
    5    15    1.80
    6    20    1.19
    7    20    1.19
    8    20    1.19

 **********************************************************************

            Electrostatic Properties Using The SCF Density

 **********************************************************************

       Atomic Center    1 is at  -1.481581  0.561559  1.229191
       Atomic Center    2 is at  -1.482281  0.562159 -1.229029
       Atomic Center    3 is at  -2.551880 -1.412211 -0.000019
       Atomic Center    4 is at   1.503319 -0.010850  0.000371
       Atomic Center    5 is at  -2.459771  0.150569  0.000231
       Atomic Center    6 is at   3.649639 -0.263609 -0.000039
       Atomic Center    7 is at  -0.253590 -1.485110 -0.000249
       Atomic Center    8 is at   0.053748  1.755530 -0.000089
     737 points will be used for fitting atomic charges
 Fitting point charges to eletrostatic potential
 Charges from ESP fit, RMS=   0.01184 RRMS=   0.07250:
 Charge=   1.00000 Dipole=    20.5418     1.3201    -0.0030 Tot=    20.5842
              1
     1  O   -0.864813
     2  O   -0.865205
     3  O   -0.709850
     4  O   -1.518495
     5  P    0.682981
     6  Ca   1.144428
     7  Ca   1.564417
     8  Ca   1.566537
 -----------------------------------------------------------------

              Electrostatic Properties (Atomic Units)

 -----------------------------------------------------------------
    Center     Electric         -------- Electric Field --------
               Potential          X             Y             Z
 -----------------------------------------------------------------
    1 Atom    -22.252390
    2 Atom    -22.252645
    3 Atom    -22.263664
    4 Atom    -22.255368
    5 Atom    -53.954800
    6 Atom    -79.984334
    7 Atom    -80.040786
    8 Atom    -80.040811
 -----------------------------------------------------------------
 1\1\GINC-N031\SP\RB3LYP\6-31+G(d,p)\Ca3O4P1(1+)\TIMN\12-Jun-2015\0\\# 
 b3lyp/6-31+G(d,p) int=ultrafine pop=(ReadRadii,MK)\\Ca3PO4_49.mol2c_pl
 usQ.z51462.zip.xyz\\1,1\O,0,-1.48158,0.56156,1.22919\O,0,-1.48228,0.56
 216,-1.22903\O,0,-2.55188,-1.41221,-0.00002\O,0,1.50332,-0.01085,0.000
 37\P,0,-2.45977,0.15057,0.00023\Ca,0,3.64964,-0.26361,-0.00004\Ca,0,-0
 .25359,-1.48511,-0.00025\Ca,0,0.05375,1.75553,-0.00009\\Version=EM64T-
 G03RevE.01\State=1-A\HF=-2674.9693318\RMSD=1.465e-05\Thermal=0.\Dipole
 =7.0718668,0.628269,-0.0007534\PG=C01 [X(Ca3O4P1)]\\@


 THE MOST BEAUTIFUL EXPERIENCE WE CAN HAVE IS THE MYSTERIOUS.
 IT IS THE FUNDAMENTAL EMOTION WHICH STANDS AT AT THE CRADLE 
 OF TRUE ART AND TRUE SCIENCE.

                                    -- ALBERT EINSTEIN
 Job cpu time:  0 days  0 hours  2 minutes 25.2 seconds.
 File lengths (MBytes):  RWF=     32 Int=      0 D2E=      0 Chk=     11 Scr=      1
 Normal termination of Gaussian 03 at Fri Jun 12 17:44:22 2015.
