 Entering Gaussian System, Link 0=/home/timn/tmp/g03.e01/g03
 Input=Ca3PO4_217.mol2c_plusQ.z51428.zip.xyz.gjf
 Output=Ca3PO4_217.mol2c_plusQ.z51428.zip.xyz.out
 Initial command:
 /home/timn/tmp/g03.e01/l1.exe /home/timn/tmp/g03.e01/Gau-18193.inp -scrdir=/home/timn/tmp/g03.e01/
 Default is to use a total of   2 processors:
                                2 via shared-memory
                                1 via Linda
 Entering Link 1 = /home/timn/tmp/g03.e01/l1.exe PID=     18195.
  
 Copyright (c) 1988,1990,1992,1993,1995,1998,2003,2004,2007, Gaussian, Inc.
                  All Rights Reserved.
  
 This is the Gaussian(R) 03 program.  It is based on the
 the Gaussian(R) 98 system (copyright 1998, Gaussian, Inc.),
 the Gaussian(R) 94 system (copyright 1995, Gaussian, Inc.),
 the Gaussian 92(TM) system (copyright 1992, Gaussian, Inc.),
 the Gaussian 90(TM) system (copyright 1990, Gaussian, Inc.),
 the Gaussian 88(TM) system (copyright 1988, Gaussian, Inc.),
 the Gaussian 86(TM) system (copyright 1986, Carnegie Mellon
 University), and the Gaussian 82(TM) system (copyright 1983,
 Carnegie Mellon University). Gaussian is a federally registered
 trademark of Gaussian, Inc.
  
 This software contains proprietary and confidential information,
 including trade secrets, belonging to Gaussian, Inc.
  
 This software is provided under written license and may be
 used, copied, transmitted, or stored only in accord with that
 written license.
  
 The following legend is applicable only to US Government
 contracts under FAR:
  
                    RESTRICTED RIGHTS LEGEND
  
 Use, reproduction and disclosure by the US Government is
 subject to restrictions as set forth in subparagraphs (a)
 and (c) of the Commercial Computer Software - Restricted
 Rights clause in FAR 52.227-19.
  
 Gaussian, Inc.
 340 Quinnipiac St., Bldg. 40, Wallingford CT 06492
  
  
 ---------------------------------------------------------------
 Warning -- This program may not be used in any manner that
 competes with the business of Gaussian, Inc. or will provide
 assistance to any competitor of Gaussian, Inc.  The licensee
 of this program is prohibited from giving any competitor of
 Gaussian, Inc. access to this program.  By using this program,
 the user acknowledges that Gaussian, Inc. is engaged in the
 business of creating and licensing software in the field of
 computational chemistry and represents and warrants to the
 licensee that it is not a competitor of Gaussian, Inc. and that
 it will not use this program in any manner prohibited above.
 ---------------------------------------------------------------
  

 Cite this work as:
 Gaussian 03, Revision E.01,
 M. J. Frisch, G. W. Trucks, H. B. Schlegel, G. E. Scuseria, 
 M. A. Robb, J. R. Cheeseman, J. A. Montgomery, Jr., T. Vreven, 
 K. N. Kudin, J. C. Burant, J. M. Millam, S. S. Iyengar, J. Tomasi, 
 V. Barone, B. Mennucci, M. Cossi, G. Scalmani, N. Rega, 
 G. A. Petersson, H. Nakatsuji, M. Hada, M. Ehara, K. Toyota, 
 R. Fukuda, J. Hasegawa, M. Ishida, T. Nakajima, Y. Honda, O. Kitao, 
 H. Nakai, M. Klene, X. Li, J. E. Knox, H. P. Hratchian, J. B. Cross, 
 V. Bakken, C. Adamo, J. Jaramillo, R. Gomperts, R. E. Stratmann, 
 O. Yazyev, A. J. Austin, R. Cammi, C. Pomelli, J. W. Ochterski, 
 P. Y. Ayala, K. Morokuma, G. A. Voth, P. Salvador, J. J. Dannenberg, 
 V. G. Zakrzewski, S. Dapprich, A. D. Daniels, M. C. Strain, 
 O. Farkas, D. K. Malick, A. D. Rabuck, K. Raghavachari, 
 J. B. Foresman, J. V. Ortiz, Q. Cui, A. G. Baboul, S. Clifford, 
 J. Cioslowski, B. B. Stefanov, G. Liu, A. Liashenko, P. Piskorz, 
 I. Komaromi, R. L. Martin, D. J. Fox, T. Keith, M. A. Al-Laham, 
 C. Y. Peng, A. Nanayakkara, M. Challacombe, P. M. W. Gill, 
 B. Johnson, W. Chen, M. W. Wong, C. Gonzalez, and J. A. Pople, 
 Gaussian, Inc., Wallingford CT, 2004.
 
 ******************************************
 Gaussian 03:  EM64T-G03RevE.01 11-Sep-2007
                12-Jun-2015 
 ******************************************
 %nproc=2
 Will use up to    2 processors via shared memory.
 Default route:  MP2=Direct MaxDisk=2000MB
 ----------------------------------------------------
 # b3lyp/6-31+G(d,p) int=ultrafine pop=(ReadRadii,MK)
 ----------------------------------------------------

 Warning!  SCF SP cutoffs with diffuse functions may be unreliable.
 Consider SCF=Tight

 1/38=1/1;
 2/17=6,18=5,40=1/2;
 3/5=1,6=6,7=111,11=2,16=1,25=1,30=1,74=-5,75=5/1,2,3;
 4//1;
 5/5=2,32=1,38=5/2;
 6/7=2,8=2,9=2,10=2,15=8,20=101,28=1/1,2;
 99/5=1,9=1/99;
 -------------------------------------
 Ca3PO4_217.mol2c_plusQ.z51428.zip.xyz
 -------------------------------------
 Symbolic Z-matrix:
 Charge =  1 Multiplicity = 1
 O                     2.9508    0.67038   0.00003 
 O                     1.66688  -1.49985   0. 
 O                    -0.8307    0.94446  -0.00007 
 O                    -2.8415   -1.41391   0.00003 
 P                     3.07368  -0.87737   0.00008 
 Ca                   -3.08534   0.69258   0.00007 
 Ca                   -0.67388  -1.45926  -0.00008 
 Ca                    1.07576   1.94428  -0.00004 
 
                          Input orientation:                          
 ---------------------------------------------------------------------
 Center     Atomic     Atomic              Coordinates (Angstroms)
 Number     Number      Type              X           Y           Z
 ---------------------------------------------------------------------
    1          8             0        2.950800    0.670380    0.000030
    2          8             0        1.666880   -1.499850    0.000000
    3          8             0       -0.830700    0.944460   -0.000070
    4          8             0       -2.841500   -1.413910    0.000030
    5         15             0        3.073680   -0.877370    0.000080
    6         20             0       -3.085340    0.692580    0.000070
    7         20             0       -0.673880   -1.459260   -0.000080
    8         20             0        1.075760    1.944280   -0.000040
 ---------------------------------------------------------------------
                    Distance matrix (angstroms):
                    1          2          3          4          5
     1  O    0.000000
     2  O    2.521577   0.000000
     3  O    3.791420   3.494647   0.000000
     4  O    6.155892   4.509199   3.099230   0.000000
     5  P    1.552620   1.538365   4.308509   5.939464   0.000000
     6  Ca   6.036181   5.233579   2.268666   2.120556   6.355963
     7  Ca   4.204007   2.341112   2.408830   2.168094   3.792466
     8  Ca   2.266847   3.494489   2.152726   5.159687   3.457368
                    6          7          8
     6  Ca   0.000000
     7  Ca   3.231958   0.000000
     8  Ca   4.345286   3.826921   0.000000
 Stoichiometry    Ca3O4P(1+)
 Framework group  C1[X(Ca3O4P)]
 Deg. of freedom    18
 Full point group                 C1
 Largest Abelian subgroup         C1      NOp   1
 Largest concise Abelian subgroup C1      NOp   1
                         Standard orientation:                         
 ---------------------------------------------------------------------
 Center     Atomic     Atomic              Coordinates (Angstroms)
 Number     Number      Type              X           Y           Z
 ---------------------------------------------------------------------
    1          8             0        2.950801    0.670380    0.000029
    2          8             0        1.666882   -1.499850   -0.000001
    3          8             0       -0.830699    0.944459   -0.000071
    4          8             0       -2.841498   -1.413912    0.000029
    5         15             0        3.073682   -0.877370    0.000079
    6         20             0       -3.085339    0.692578    0.000069
    7         20             0       -0.673878   -1.459261   -0.000081
    8         20             0        1.075761    1.944280   -0.000041
 ---------------------------------------------------------------------
 Rotational constants (GHZ):      1.3711645      0.4761897      0.3534430
 Standard basis: 6-31+G(d,p) (6D, 7F)
 There are   180 symmetry adapted basis functions of A   symmetry.
 Integral buffers will be    131072 words long.
 Raffenetti 2 integral format.
 Two-electron integral symmetry is turned on.
   180 basis functions,   424 primitive gaussians,   180 cartesian basis functions
    53 alpha electrons       53 beta electrons
       nuclear repulsion energy       801.1540447926 Hartrees.
 NAtoms=    8 NActive=    8 NUniq=    8 SFac= 7.50D-01 NAtFMM=   80 NAOKFM=F Big=F
 One-electron integrals computed using PRISM.
 NBasis=   180 RedAO= T  NBF=   180
 NBsUse=   180 1.00D-06 NBFU=   180
 Harris functional with IExCor=  402 diagonalized for initial guess.
 ExpMin= 7.10D-03 ExpMax= 3.53D+04 ExpMxC= 5.30D+03 IAcc=3 IRadAn=         5 AccDes= 0.00D+00
 HarFok:  IExCor= 402 AccDes= 0.00D+00 IRadAn=         5 IDoV=1
 ScaDFX=  1.000000  1.000000  1.000000  1.000000
 Initial guess orbital symmetries:
       Occupied  (A) (A) (A) (A) (A) (A) (A) (A) (A) (A) (A) (A)
                 (A) (A) (A) (A) (A) (A) (A) (A) (A) (A) (A) (A)
                 (A) (A) (A) (A) (A) (A) (A) (A) (A) (A) (A) (A)
                 (A) (A) (A) (A) (A) (A) (A) (A) (A) (A) (A) (A)
                 (A) (A) (A) (A) (A)
       Virtual   (A) (A) (A) (A) (A) (A) (A) (A) (A) (A) (A) (A)
                 (A) (A) (A) (A) (A) (A) (A) (A) (A) (A) (A) (A)
                 (A) (A) (A) (A) (A) (A) (A) (A) (A) (A) (A) (A)
                 (A) (A) (A) (A) (A) (A) (A) (A) (A) (A) (A) (A)
                 (A) (A) (A) (A) (A) (A) (A) (A) (A) (A) (A) (A)
                 (A) (A) (A) (A) (A) (A) (A) (A) (A) (A) (A) (A)
                 (A) (A) (A) (A) (A) (A) (A) (A) (A) (A) (A) (A)
                 (A) (A) (A) (A) (A) (A) (A) (A) (A) (A) (A) (A)
                 (A) (A) (A) (A) (A) (A) (A) (A) (A) (A) (A) (A)
                 (A) (A) (A) (A) (A) (A) (A) (A) (A) (A) (A) (A)
                 (A) (A) (A) (A) (A) (A) (A)
 The electronic state of the initial guess is 1-A.
 Requested convergence on RMS density matrix=1.00D-04 within 128 cycles.
 Requested convergence on MAX density matrix=1.00D-02.
 Requested convergence on             energy=1.00D-02.
 No special actions if energy rises.
 EnCoef did     3 forward-backward iterations
 EnCoef did   100 forward-backward iterations
 EnCoef did     4 forward-backward iterations
 EnCoef did     3 forward-backward iterations
 SCF Done:  E(RB+HF-LYP) =  -2675.00579564     A.U. after   10 cycles
             Convg  =    0.8255D-04             -V/T =  2.0028
             S**2   =   0.0000

 **********************************************************************

            Population analysis using the SCF density.

 **********************************************************************

 Orbital symmetries:
       Occupied  (A) (A) (A) (A) (A) (A) (A) (A) (A) (A) (A) (A)
                 (A) (A) (A) (A) (A) (A) (A) (A) (A) (A) (A) (A)
                 (A) (A) (A) (A) (A) (A) (A) (A) (A) (A) (A) (A)
                 (A) (A) (A) (A) (A) (A) (A) (A) (A) (A) (A) (A)
                 (A) (A) (A) (A) (A)
       Virtual   (A) (A) (A) (A) (A) (A) (A) (A) (A) (A) (A) (A)
                 (A) (A) (A) (A) (A) (A) (A) (A) (A) (A) (A) (A)
                 (A) (A) (A) (A) (A) (A) (A) (A) (A) (A) (A) (A)
                 (A) (A) (A) (A) (A) (A) (A) (A) (A) (A) (A) (A)
                 (A) (A) (A) (A) (A) (A) (A) (A) (A) (A) (A) (A)
                 (A) (A) (A) (A) (A) (A) (A) (A) (A) (A) (A) (A)
                 (A) (A) (A) (A) (A) (A) (A) (A) (A) (A) (A) (A)
                 (A) (A) (A) (A) (A) (A) (A) (A) (A) (A) (A) (A)
                 (A) (A) (A) (A) (A) (A) (A) (A) (A) (A) (A) (A)
                 (A) (A) (A) (A) (A) (A) (A) (A) (A) (A) (A) (A)
                 (A) (A) (A) (A) (A) (A) (A)
 The electronic state is 1-A.
 Alpha  occ. eigenvalues -- -145.53271-145.47074-145.44490 -77.29409 -19.27578
 Alpha  occ. eigenvalues --  -19.27202 -19.17715 -19.10351 -15.60164 -15.53973
 Alpha  occ. eigenvalues --  -15.51448 -12.73420 -12.73368 -12.73206 -12.67213
 Alpha  occ. eigenvalues --  -12.67131 -12.67052 -12.64724 -12.64633 -12.64479
 Alpha  occ. eigenvalues --   -6.74958  -4.91398  -4.91174  -4.90738  -1.97363
 Alpha  occ. eigenvalues --   -1.91269  -1.88898  -1.25217  -1.25066  -1.24234
 Alpha  occ. eigenvalues --   -1.19136  -1.18809  -1.18228  -1.17003  -1.16392
 Alpha  occ. eigenvalues --   -1.16279  -1.13247  -1.07848  -0.92328  -0.84316
 Alpha  occ. eigenvalues --   -0.66982  -0.56445  -0.52403  -0.52188  -0.45143
 Alpha  occ. eigenvalues --   -0.43252  -0.40559  -0.38450  -0.37476  -0.36315
 Alpha  occ. eigenvalues --   -0.29849  -0.28439  -0.28141
 Alpha virt. eigenvalues --   -0.21373  -0.19382  -0.18289  -0.14058  -0.13457
 Alpha virt. eigenvalues --   -0.11733  -0.10632  -0.10446  -0.08688  -0.08515
 Alpha virt. eigenvalues --   -0.07774  -0.07164  -0.06437  -0.06132  -0.05561
 Alpha virt. eigenvalues --   -0.05535  -0.04824  -0.04711  -0.04333  -0.03842
 Alpha virt. eigenvalues --   -0.03764  -0.03761  -0.03495  -0.03198  -0.02768
 Alpha virt. eigenvalues --   -0.02686  -0.02494  -0.01511   0.00305   0.00766
 Alpha virt. eigenvalues --    0.02072   0.03225   0.03830   0.04051   0.04453
 Alpha virt. eigenvalues --    0.04563   0.05405   0.06094   0.06136   0.06378
 Alpha virt. eigenvalues --    0.06542   0.07578   0.07675   0.08101   0.08708
 Alpha virt. eigenvalues --    0.10064   0.10949   0.11857   0.11985   0.13477
 Alpha virt. eigenvalues --    0.14461   0.15684   0.15952   0.17392   0.18061
 Alpha virt. eigenvalues --    0.18295   0.20071   0.20942   0.21853   0.24095
 Alpha virt. eigenvalues --    0.25449   0.26580   0.27029   0.29665   0.30447
 Alpha virt. eigenvalues --    0.31646   0.32408   0.33009   0.35982   0.37339
 Alpha virt. eigenvalues --    0.39257   0.40353   0.43799   0.46208   0.48630
 Alpha virt. eigenvalues --    0.52099   0.56514   0.56644   0.58487   0.58707
 Alpha virt. eigenvalues --    0.67530   0.79876   0.90156   0.95071   1.02171
 Alpha virt. eigenvalues --    1.06684   1.07636   1.08706   1.10066   1.11365
 Alpha virt. eigenvalues --    1.17108   1.18606   1.19535   1.23473   1.26403
 Alpha virt. eigenvalues --    1.28670   1.32065   1.33544   1.39682   1.43369
 Alpha virt. eigenvalues --    1.47840   1.61544   1.66131   1.67042   1.70946
 Alpha virt. eigenvalues --    1.74821   1.77147   1.79319   1.82734   1.83741
 Alpha virt. eigenvalues --    1.85245   1.86217   1.87616   1.87693   1.89266
 Alpha virt. eigenvalues --    1.94202   1.99865   2.01601   2.10545   2.22787
 Alpha virt. eigenvalues --    2.53989   2.69068   3.39972   3.84733   3.91750
 Alpha virt. eigenvalues --    3.92614   4.07875
          Condensed to atoms (all electrons):
              1          2          3          4          5          6
     1  O    8.779695  -0.080620   0.003019   0.000009  -0.070431   0.003777
     2  O   -0.080620   8.838101  -0.009432  -0.001509  -0.110261   0.009007
     3  O    0.003019  -0.009432   9.066883  -0.023475  -0.007108   0.085614
     4  O    0.000009  -0.001509  -0.023475   8.691013  -0.000374   0.232549
     5  P   -0.070431  -0.110261  -0.007108  -0.000374  14.559205  -0.013854
     6  Ca   0.003777   0.009007   0.085614   0.232549  -0.013854  18.391544
     7  Ca  -0.001438   0.034861   0.040467   0.222831   0.007030  -0.028702
     8  Ca   0.085978   0.003271   0.189680  -0.001260  -0.035253  -0.006255
              7          8
     1  O   -0.001438   0.085978
     2  O    0.034861   0.003271
     3  O    0.040467   0.189680
     4  O    0.222831  -0.001260
     5  P    0.007030  -0.035253
     6  Ca  -0.028702  -0.006255
     7  Ca  18.383534  -0.005864
     8  Ca  -0.005864  18.245512
 Mulliken atomic charges:
              1
     1  O   -0.719989
     2  O   -0.683418
     3  O   -1.345647
     4  O   -1.119785
     5  P    0.671047
     6  Ca   1.326321
     7  Ca   1.347281
     8  Ca   1.524191
 Sum of Mulliken charges=   1.00000
 Atomic charges with hydrogens summed into heavy atoms:
              1
     1  O   -0.719989
     2  O   -0.683418
     3  O   -1.345647
     4  O   -1.119785
     5  P    0.671047
     6  Ca   1.326321
     7  Ca   1.347281
     8  Ca   1.524191
 Sum of Mulliken charges=   1.00000
 Electronic spatial extent (au):  <R**2>=  2666.9774
 Charge=     1.0000 electrons
 Dipole moment (field-independent basis, Debye):
    X=    -0.3854    Y=    11.4158    Z=    -0.0001  Tot=    11.4223
 Quadrupole moment (field-independent basis, Debye-Ang):
   XX=   -59.0491   YY=   -46.9134   ZZ=   -69.1137
   XY=   -17.5410   XZ=    -0.0012   YZ=     0.0013
 Traceless Quadrupole moment (field-independent basis, Debye-Ang):
   XX=    -0.6903   YY=    11.4453   ZZ=   -10.7550
   XY=   -17.5410   XZ=    -0.0012   YZ=     0.0013
 Octapole moment (field-independent basis, Debye-Ang**2):
  XXX=  -102.6352  YYY=    80.1832  ZZZ=    -0.0008  XYY=    35.8626
  XXY=   115.6467  XXZ=     0.0024  XZZ=    -0.2993  YZZ=     8.1544
  YYZ=    -0.0028  XYZ=    -0.0039
 Hexadecapole moment (field-independent basis, Debye-Ang**3):
 XXXX= -2103.2708 YYYY=  -624.3657 ZZZZ=   -84.6594 XXXY=  -424.6185
 XXXZ=    -0.0174 YYYX=    48.5984 YYYZ=     0.0034 ZZZX=    -0.0034
 ZZZY=     0.0029 XXYY=  -564.3547 XXZZ=  -385.1293 YYZZ=  -135.4849
 XXYZ=     0.0060 YYXZ=    -0.0021 ZZXY=    -5.4089
 N-N= 8.011540447926D+02 E-N=-7.926807740399D+03  KE= 2.667645345812D+03
 Merz-Kollman atomic radii used.
 Read replacement radii for each type of atom:
 Rad(20) =   1.188000000000D+00
 Atom Element Radius
    1     8    1.40
    2     8    1.40
    3     8    1.40
    4     8    1.40
    5    15    1.80
    6    20    1.19
    7    20    1.19
    8    20    1.19

 **********************************************************************

            Electrostatic Properties Using The SCF Density

 **********************************************************************

       Atomic Center    1 is at   2.950801  0.670380  0.000029
       Atomic Center    2 is at   1.666882 -1.499850 -0.000001
       Atomic Center    3 is at  -0.830699  0.944459 -0.000071
       Atomic Center    4 is at  -2.841498 -1.413912  0.000029
       Atomic Center    5 is at   3.073682 -0.877370  0.000079
       Atomic Center    6 is at  -3.085339  0.692578  0.000069
       Atomic Center    7 is at  -0.673878 -1.459261 -0.000081
       Atomic Center    8 is at   1.075761  1.944280 -0.000041
     820 points will be used for fitting atomic charges
 Fitting point charges to eletrostatic potential
 Charges from ESP fit, RMS=   0.00596 RRMS=   0.03921:
 Charge=   1.00000 Dipole=    -0.7501    11.7460     0.0000 Tot=    11.7699
              1
     1  O   -0.705881
     2  O   -0.661937
     3  O   -1.707353
     4  O   -1.467238
     5  P    0.543958
     6  Ca   1.594359
     7  Ca   1.698715
     8  Ca   1.705378
 -----------------------------------------------------------------

              Electrostatic Properties (Atomic Units)

 -----------------------------------------------------------------
    Center     Electric         -------- Electric Field --------
               Potential          X             Y             Z
 -----------------------------------------------------------------
    1 Atom    -22.188769
    2 Atom    -22.191047
    3 Atom    -22.280943
    4 Atom    -22.359786
    5 Atom    -53.918786
    6 Atom    -80.072332
    7 Atom    -80.096721
    8 Atom    -80.008619
 -----------------------------------------------------------------
 1\1\GINC-N027\SP\RB3LYP\6-31+G(d,p)\Ca3O4P1(1+)\TIMN\12-Jun-2015\0\\# 
 b3lyp/6-31+G(d,p) int=ultrafine pop=(ReadRadii,MK)\\Ca3PO4_217.mol2c_p
 lusQ.z51428.zip.xyz\\1,1\O,0,2.9508,0.67038,0.00003\O,0,1.66688,-1.499
 85,0.\O,0,-0.8307,0.94446,-0.00007\O,0,-2.8415,-1.41391,0.00003\P,0,3.
 07368,-0.87737,0.00008\Ca,0,-3.08534,0.69258,0.00007\Ca,0,-0.67388,-1.
 45926,-0.00008\Ca,0,1.07576,1.94428,-0.00004\\Version=EM64T-G03RevE.01
 \State=1-A\HF=-2675.0057956\RMSD=8.255e-05\Thermal=0.\Dipole=-0.151622
 ,4.4913083,-0.0000446\PG=C01 [X(Ca3O4P1)]\\@


 NO MATTER HOW THIN YOU SLICE IT, IT'S STILL BALONEY

                                   -- ALFRED E. SMITH
 Job cpu time:  0 days  0 hours  1 minutes 46.1 seconds.
 File lengths (MBytes):  RWF=     32 Int=      0 D2E=      0 Chk=     11 Scr=      1
 Normal termination of Gaussian 03 at Fri Jun 12 17:42:10 2015.
