 Entering Gaussian System, Link 0=/home/timn/tmp/g03.e01/g03
 Input=Ca3PO4_20.mol2_plusQ.z51420.zip.xyz.gjf
 Output=Ca3PO4_20.mol2_plusQ.z51420.zip.xyz.out
 Initial command:
 /home/timn/tmp/g03.e01/l1.exe /home/timn/tmp/g03.e01/Gau-11821.inp -scrdir=/home/timn/tmp/g03.e01/
 Default is to use a total of   2 processors:
                                2 via shared-memory
                                1 via Linda
 Entering Link 1 = /home/timn/tmp/g03.e01/l1.exe PID=     11822.
  
 Copyright (c) 1988,1990,1992,1993,1995,1998,2003,2004,2007, Gaussian, Inc.
                  All Rights Reserved.
  
 This is the Gaussian(R) 03 program.  It is based on the
 the Gaussian(R) 98 system (copyright 1998, Gaussian, Inc.),
 the Gaussian(R) 94 system (copyright 1995, Gaussian, Inc.),
 the Gaussian 92(TM) system (copyright 1992, Gaussian, Inc.),
 the Gaussian 90(TM) system (copyright 1990, Gaussian, Inc.),
 the Gaussian 88(TM) system (copyright 1988, Gaussian, Inc.),
 the Gaussian 86(TM) system (copyright 1986, Carnegie Mellon
 University), and the Gaussian 82(TM) system (copyright 1983,
 Carnegie Mellon University). Gaussian is a federally registered
 trademark of Gaussian, Inc.
  
 This software contains proprietary and confidential information,
 including trade secrets, belonging to Gaussian, Inc.
  
 This software is provided under written license and may be
 used, copied, transmitted, or stored only in accord with that
 written license.
  
 The following legend is applicable only to US Government
 contracts under FAR:
  
                    RESTRICTED RIGHTS LEGEND
  
 Use, reproduction and disclosure by the US Government is
 subject to restrictions as set forth in subparagraphs (a)
 and (c) of the Commercial Computer Software - Restricted
 Rights clause in FAR 52.227-19.
  
 Gaussian, Inc.
 340 Quinnipiac St., Bldg. 40, Wallingford CT 06492
  
  
 ---------------------------------------------------------------
 Warning -- This program may not be used in any manner that
 competes with the business of Gaussian, Inc. or will provide
 assistance to any competitor of Gaussian, Inc.  The licensee
 of this program is prohibited from giving any competitor of
 Gaussian, Inc. access to this program.  By using this program,
 the user acknowledges that Gaussian, Inc. is engaged in the
 business of creating and licensing software in the field of
 computational chemistry and represents and warrants to the
 licensee that it is not a competitor of Gaussian, Inc. and that
 it will not use this program in any manner prohibited above.
 ---------------------------------------------------------------
  

 Cite this work as:
 Gaussian 03, Revision E.01,
 M. J. Frisch, G. W. Trucks, H. B. Schlegel, G. E. Scuseria, 
 M. A. Robb, J. R. Cheeseman, J. A. Montgomery, Jr., T. Vreven, 
 K. N. Kudin, J. C. Burant, J. M. Millam, S. S. Iyengar, J. Tomasi, 
 V. Barone, B. Mennucci, M. Cossi, G. Scalmani, N. Rega, 
 G. A. Petersson, H. Nakatsuji, M. Hada, M. Ehara, K. Toyota, 
 R. Fukuda, J. Hasegawa, M. Ishida, T. Nakajima, Y. Honda, O. Kitao, 
 H. Nakai, M. Klene, X. Li, J. E. Knox, H. P. Hratchian, J. B. Cross, 
 V. Bakken, C. Adamo, J. Jaramillo, R. Gomperts, R. E. Stratmann, 
 O. Yazyev, A. J. Austin, R. Cammi, C. Pomelli, J. W. Ochterski, 
 P. Y. Ayala, K. Morokuma, G. A. Voth, P. Salvador, J. J. Dannenberg, 
 V. G. Zakrzewski, S. Dapprich, A. D. Daniels, M. C. Strain, 
 O. Farkas, D. K. Malick, A. D. Rabuck, K. Raghavachari, 
 J. B. Foresman, J. V. Ortiz, Q. Cui, A. G. Baboul, S. Clifford, 
 J. Cioslowski, B. B. Stefanov, G. Liu, A. Liashenko, P. Piskorz, 
 I. Komaromi, R. L. Martin, D. J. Fox, T. Keith, M. A. Al-Laham, 
 C. Y. Peng, A. Nanayakkara, M. Challacombe, P. M. W. Gill, 
 B. Johnson, W. Chen, M. W. Wong, C. Gonzalez, and J. A. Pople, 
 Gaussian, Inc., Wallingford CT, 2004.
 
 ******************************************
 Gaussian 03:  EM64T-G03RevE.01 11-Sep-2007
                12-Jun-2015 
 ******************************************
 %nproc=2
 Will use up to    2 processors via shared memory.
 Default route:  MP2=Direct MaxDisk=2000MB
 ----------------------------------------------------
 # b3lyp/6-31+G(d,p) int=ultrafine pop=(ReadRadii,MK)
 ----------------------------------------------------

 Warning!  SCF SP cutoffs with diffuse functions may be unreliable.
 Consider SCF=Tight

 1/38=1/1;
 2/17=6,18=5,40=1/2;
 3/5=1,6=6,7=111,11=2,16=1,25=1,30=1,74=-5,75=5/1,2,3;
 4//1;
 5/5=2,32=1,38=5/2;
 6/7=2,8=2,9=2,10=2,15=8,20=101,28=1/1,2;
 99/5=1,9=1/99;
 -----------------------------------
 Ca3PO4_20.mol2_plusQ.z51420.zip.xyz
 -----------------------------------
 Symbolic Z-matrix:
 Charge =  1 Multiplicity = 1
 O                    -1.19445   0.87599   0.92193 
 O                     1.35511   0.59817   0.9219 
 O                    -0.00016  -0.00139  -1.71188 
 O                    -0.16032  -1.47134   0.92294 
 P                     0.00024   0.00208   1.71804 
 Ca                   -1.78082  -0.78536  -0.56924 
 Ca                    1.56987  -1.15047  -0.56926 
 Ca                    0.21071   1.9337   -0.57199 
 
                          Input orientation:                          
 ---------------------------------------------------------------------
 Center     Atomic     Atomic              Coordinates (Angstroms)
 Number     Number      Type              X           Y           Z
 ---------------------------------------------------------------------
    1          8             0       -1.194450    0.875990    0.921930
    2          8             0        1.355110    0.598170    0.921900
    3          8             0       -0.000160   -0.001390   -1.711880
    4          8             0       -0.160320   -1.471340    0.922940
    5         15             0        0.000240    0.002080    1.718040
    6         20             0       -1.780820   -0.785360   -0.569240
    7         20             0        1.569870   -1.150470   -0.569260
    8         20             0        0.210710    1.933700   -0.571990
 ---------------------------------------------------------------------
                    Distance matrix (angstroms):
                    1          2          3          4          5
     1  O    0.000000
     2  O    2.564652   0.000000
     3  O    3.022099   3.022090   0.000000
     4  O    2.565031   2.565034   3.021371   0.000000
     5  P    1.680712   1.680725   3.429922   1.681942   0.000000
     6  Ca   2.308138   3.737875   2.256321   2.307204   3.003978
     7  Ca   3.737867   2.308121   2.256315   2.307201   3.003973
     8  Ca   2.307601   2.307596   2.255746   3.737215   3.003280
                    6          7          8
     6  Ca   0.000000
     7  Ca   3.370524   0.000000
     8  Ca   3.370384   3.370375   0.000000
 Stoichiometry    Ca3O4P(1+)
 Framework group  C1[X(Ca3O4P)]
 Deg. of freedom    18
 Full point group                 C1
 Largest Abelian subgroup         C1      NOp   1
 Largest concise Abelian subgroup C1      NOp   1
                         Standard orientation:                         
 ---------------------------------------------------------------------
 Center     Atomic     Atomic              Coordinates (Angstroms)
 Number     Number      Type              X           Y           Z
 ---------------------------------------------------------------------
    1          8             0       -1.160918    0.919969    0.921931
    2          8             0        1.376493    0.547166    0.921901
    3          8             0       -0.000214   -0.001383   -1.711879
    4          8             0       -0.215137   -1.464330    0.922941
    5         15             0        0.000315    0.002069    1.718041
    6         20             0       -1.808899   -0.718334   -0.569239
    7         20             0        1.525826   -1.208273   -0.569259
    8         20             0        0.282747    1.924486   -0.571989
 ---------------------------------------------------------------------
 Rotational constants (GHZ):      1.0154997      1.0154890      0.9037653
 Standard basis: 6-31+G(d,p) (6D, 7F)
 There are   180 symmetry adapted basis functions of A   symmetry.
 Integral buffers will be    131072 words long.
 Raffenetti 2 integral format.
 Two-electron integral symmetry is turned on.
   180 basis functions,   424 primitive gaussians,   180 cartesian basis functions
    53 alpha electrons       53 beta electrons
       nuclear repulsion energy       952.7157005564 Hartrees.
 NAtoms=    8 NActive=    8 NUniq=    8 SFac= 7.50D-01 NAtFMM=   80 NAOKFM=F Big=F
 One-electron integrals computed using PRISM.
 NBasis=   180 RedAO= T  NBF=   180
 NBsUse=   180 1.00D-06 NBFU=   180
 Harris functional with IExCor=  402 diagonalized for initial guess.
 ExpMin= 7.10D-03 ExpMax= 3.53D+04 ExpMxC= 5.30D+03 IAcc=3 IRadAn=         5 AccDes= 0.00D+00
 HarFok:  IExCor= 402 AccDes= 0.00D+00 IRadAn=         5 IDoV=1
 ScaDFX=  1.000000  1.000000  1.000000  1.000000
 Initial guess orbital symmetries:
       Occupied  (A) (A) (A) (A) (A) (A) (A) (A) (A) (A) (A) (A)
                 (A) (A) (A) (A) (A) (A) (A) (A) (A) (A) (A) (A)
                 (A) (A) (A) (A) (A) (A) (A) (A) (A) (A) (A) (A)
                 (A) (A) (A) (A) (A) (A) (A) (A) (A) (A) (A) (A)
                 (A) (A) (A) (A) (A)
       Virtual   (A) (A) (A) (A) (A) (A) (A) (A) (A) (A) (A) (A)
                 (A) (A) (A) (A) (A) (A) (A) (A) (A) (A) (A) (A)
                 (A) (A) (A) (A) (A) (A) (A) (A) (A) (A) (A) (A)
                 (A) (A) (A) (A) (A) (A) (A) (A) (A) (A) (A) (A)
                 (A) (A) (A) (A) (A) (A) (A) (A) (A) (A) (A) (A)
                 (A) (A) (A) (A) (A) (A) (A) (A) (A) (A) (A) (A)
                 (A) (A) (A) (A) (A) (A) (A) (A) (A) (A) (A) (A)
                 (A) (A) (A) (A) (A) (A) (A) (A) (A) (A) (A) (A)
                 (A) (A) (A) (A) (A) (A) (A) (A) (A) (A) (A) (A)
                 (A) (A) (A) (A) (A) (A) (A) (A) (A) (A) (A) (A)
                 (A) (A) (A) (A) (A) (A) (A)
 The electronic state of the initial guess is 1-A.
 Requested convergence on RMS density matrix=1.00D-04 within 128 cycles.
 Requested convergence on MAX density matrix=1.00D-02.
 Requested convergence on             energy=1.00D-02.
 No special actions if energy rises.
 SCF Done:  E(RB+HF-LYP) =  -2675.07103794     A.U. after    8 cycles
             Convg  =    0.8203D-04             -V/T =  2.0028
             S**2   =   0.0000

 **********************************************************************

            Population analysis using the SCF density.

 **********************************************************************

 Orbital symmetries:
       Occupied  (A) (A) (A) (A) (A) (A) (A) (A) (A) (A) (A) (A)
                 (A) (A) (A) (A) (A) (A) (A) (A) (A) (A) (A) (A)
                 (A) (A) (A) (A) (A) (A) (A) (A) (A) (A) (A) (A)
                 (A) (A) (A) (A) (A) (A) (A) (A) (A) (A) (A) (A)
                 (A) (A) (A) (A) (A)
       Virtual   (A) (A) (A) (A) (A) (A) (A) (A) (A) (A) (A) (A)
                 (A) (A) (A) (A) (A) (A) (A) (A) (A) (A) (A) (A)
                 (A) (A) (A) (A) (A) (A) (A) (A) (A) (A) (A) (A)
                 (A) (A) (A) (A) (A) (A) (A) (A) (A) (A) (A) (A)
                 (A) (A) (A) (A) (A) (A) (A) (A) (A) (A) (A) (A)
                 (A) (A) (A) (A) (A) (A) (A) (A) (A) (A) (A) (A)
                 (A) (A) (A) (A) (A) (A) (A) (A) (A) (A) (A) (A)
                 (A) (A) (A) (A) (A) (A) (A) (A) (A) (A) (A) (A)
                 (A) (A) (A) (A) (A) (A) (A) (A) (A) (A) (A) (A)
                 (A) (A) (A) (A) (A) (A) (A) (A) (A) (A) (A) (A)
                 (A) (A) (A) (A) (A) (A) (A)
 The electronic state is 1-A.
 Alpha  occ. eigenvalues -- -145.49637-145.49632-145.49631 -77.25055 -19.21252
 Alpha  occ. eigenvalues --  -19.21251 -19.21159 -19.15932 -15.56471 -15.56467
 Alpha  occ. eigenvalues --  -15.56467 -12.69667 -12.69666 -12.69666 -12.69645
 Alpha  occ. eigenvalues --  -12.69645 -12.69642 -12.69597 -12.69597 -12.69596
 Alpha  occ. eigenvalues --   -6.70084  -4.86433  -4.86433  -4.85896  -1.93820
 Alpha  occ. eigenvalues --   -1.93735  -1.93735  -1.22373  -1.21692  -1.21691
 Alpha  occ. eigenvalues --   -1.21302  -1.21136  -1.21062  -1.21060  -1.20638
 Alpha  occ. eigenvalues --   -1.20638  -1.06753  -1.00374  -1.00327  -0.90930
 Alpha  occ. eigenvalues --   -0.62641  -0.50530  -0.50518  -0.47956  -0.43355
 Alpha  occ. eigenvalues --   -0.43352  -0.38354  -0.38327  -0.38175  -0.36129
 Alpha  occ. eigenvalues --   -0.36125  -0.34584  -0.30858
 Alpha virt. eigenvalues --   -0.19948  -0.18025  -0.18024  -0.12553  -0.12551
 Alpha virt. eigenvalues --   -0.10892  -0.09477  -0.09476  -0.08337  -0.07770
 Alpha virt. eigenvalues --   -0.06545  -0.06113  -0.06113  -0.04764  -0.04716
 Alpha virt. eigenvalues --   -0.04714  -0.04672  -0.04474  -0.04472  -0.04003
 Alpha virt. eigenvalues --   -0.04003  -0.03231  -0.02943  -0.02943  -0.02359
 Alpha virt. eigenvalues --   -0.02356  -0.00866   0.01028   0.02177   0.02618
 Alpha virt. eigenvalues --    0.02619   0.04575   0.04576   0.05229   0.06004
 Alpha virt. eigenvalues --    0.06005   0.06295   0.06295   0.07292   0.07297
 Alpha virt. eigenvalues --    0.07383   0.07666   0.07670   0.07824   0.08467
 Alpha virt. eigenvalues --    0.10687   0.10688   0.11333   0.11806   0.13661
 Alpha virt. eigenvalues --    0.15683   0.15683   0.19891   0.19893   0.20374
 Alpha virt. eigenvalues --    0.22088   0.22094   0.23486   0.23995   0.25321
 Alpha virt. eigenvalues --    0.25959   0.25971   0.30034   0.31451   0.31458
 Alpha virt. eigenvalues --    0.35747   0.36005   0.36008   0.37872   0.39075
 Alpha virt. eigenvalues --    0.39090   0.39780   0.45833   0.45834   0.53632
 Alpha virt. eigenvalues --    0.53634   0.55848   0.63370   0.63373   0.67682
 Alpha virt. eigenvalues --    0.82901   0.86955   0.86970   0.94090   0.94121
 Alpha virt. eigenvalues --    1.14558   1.16753   1.16771   1.18031   1.20794
 Alpha virt. eigenvalues --    1.21960   1.21985   1.23407   1.23417   1.28213
 Alpha virt. eigenvalues --    1.34156   1.34197   1.36436   1.54453   1.54480
 Alpha virt. eigenvalues --    1.57773   1.68383   1.71621   1.73136   1.73163
 Alpha virt. eigenvalues --    1.77476   1.77491   1.87085   1.87377   1.87386
 Alpha virt. eigenvalues --    1.88081   1.92069   1.92080   1.93330   1.98433
 Alpha virt. eigenvalues --    1.98450   2.03030   2.03033   2.14789   2.38157
 Alpha virt. eigenvalues --    2.55088   2.55193   3.54380   4.05632   4.14263
 Alpha virt. eigenvalues --    4.14314   4.31233
          Condensed to atoms (all electrons):
              1          2          3          4          5          6
     1  O    8.966329   0.058836   0.023996   0.058571  -0.201116   0.059795
     2  O    0.058836   8.966289   0.023985   0.058569  -0.201101   0.006251
     3  O    0.023996   0.023985   8.852480   0.023929  -0.039965   0.122125
     4  O    0.058571   0.058569   0.023929   8.964671  -0.200044   0.060008
     5  P   -0.201116  -0.201101  -0.039965  -0.200044  14.443008   0.033641
     6  Ca   0.059795   0.006251   0.122125   0.060008   0.033641  18.396818
     7  Ca   0.006253   0.059811   0.122125   0.060017   0.033640  -0.047548
     8  Ca   0.059712   0.059719   0.122241   0.006160   0.034063  -0.047713
              7          8
     1  O    0.006253   0.059712
     2  O    0.059811   0.059719
     3  O    0.122125   0.122241
     4  O    0.060017   0.006160
     5  P    0.033640   0.034063
     6  Ca  -0.047548  -0.047713
     7  Ca  18.396818  -0.047720
     8  Ca  -0.047720  18.397106
 Mulliken atomic charges:
              1
     1  O   -1.032376
     2  O   -1.032359
     3  O   -1.250916
     4  O   -1.031882
     5  P    1.097874
     6  Ca   1.416623
     7  Ca   1.416604
     8  Ca   1.416432
 Sum of Mulliken charges=   1.00000
 Atomic charges with hydrogens summed into heavy atoms:
              1
     1  O   -1.032376
     2  O   -1.032359
     3  O   -1.250916
     4  O   -1.031882
     5  P    1.097874
     6  Ca   1.416623
     7  Ca   1.416604
     8  Ca   1.416432
 Sum of Mulliken charges=   1.00000
 Electronic spatial extent (au):  <R**2>=  1510.1140
 Charge=     1.0000 electrons
 Dipole moment (field-independent basis, Debye):
    X=    -0.0021    Y=    -0.0133    Z=    -8.2282  Tot=     8.2282
 Quadrupole moment (field-independent basis, Debye-Ang):
   XX=   -40.0302   YY=   -40.0430   ZZ=   -90.0158
   XY=    -0.0018   XZ=    -0.0069   YZ=    -0.0453
 Traceless Quadrupole moment (field-independent basis, Debye-Ang):
   XX=    16.6662   YY=    16.6533   ZZ=   -33.3195
   XY=    -0.0018   XZ=    -0.0069   YZ=    -0.0453
 Octapole moment (field-independent basis, Debye-Ang**2):
  XXX=   -24.8596  YYY=    52.9356  ZZZ=    -1.6827  XYY=    24.8288
  XXY=   -53.1299  XXZ=   -46.6146  XZZ=     0.0112  YZZ=     0.0715
  YYZ=   -46.7216  XYZ=    -0.0158
 Hexadecapole moment (field-independent basis, Debye-Ang**3):
 XXXX=  -415.9928 YYYY=  -416.2369 ZZZZ=  -721.6858 XXXY=     0.0058
 XXXZ=     6.5153 YYYX=    -0.0428 YYYZ=   -14.1425 ZZZX=    -0.0284
 ZZZY=    -0.1853 XXYY=  -138.6565 XXZZ=  -187.6285 YYZZ=  -187.5776
 XXYZ=    13.9234 YYXZ=    -6.5485 ZZXY=     0.0075
 N-N= 9.527157005564D+02 E-N=-8.229902651305D+03  KE= 2.667693006368D+03
 Merz-Kollman atomic radii used.
 Read replacement radii for each type of atom:
 Rad(20) =   1.188000000000D+00
 Atom Element Radius
    1     8    1.40
    2     8    1.40
    3     8    1.40
    4     8    1.40
    5    15    1.80
    6    20    1.19
    7    20    1.19
    8    20    1.19

 **********************************************************************

            Electrostatic Properties Using The SCF Density

 **********************************************************************

       Atomic Center    1 is at  -1.160918  0.919969  0.921931
       Atomic Center    2 is at   1.376493  0.547166  0.921901
       Atomic Center    3 is at  -0.000214 -0.001383 -1.711879
       Atomic Center    4 is at  -0.215137 -1.464330  0.922941
       Atomic Center    5 is at   0.000315  0.002069  1.718041
       Atomic Center    6 is at  -1.808899 -0.718334 -0.569239
       Atomic Center    7 is at   1.525826 -1.208273 -0.569259
       Atomic Center    8 is at   0.282747  1.924486 -0.571989
     672 points will be used for fitting atomic charges
 Fitting point charges to eletrostatic potential
 Charges from ESP fit, RMS=   0.00622 RRMS=   0.03816:
 Charge=   1.00000 Dipole=    -0.0026     0.0134    -8.4352 Tot=     8.4352
              1
     1  O   -0.945051
     2  O   -0.945083
     3  O   -1.635178
     4  O   -0.946920
     5  P    0.516197
     6  Ca   1.651791
     7  Ca   1.651278
     8  Ca   1.652967
 -----------------------------------------------------------------

              Electrostatic Properties (Atomic Units)

 -----------------------------------------------------------------
    Center     Electric         -------- Electric Field --------
               Potential          X             Y             Z
 -----------------------------------------------------------------
    1 Atom    -22.251810
    2 Atom    -22.251793
    3 Atom    -22.290566
    4 Atom    -22.250034
    5 Atom    -53.967971
    6 Atom    -80.043264
    7 Atom    -80.043266
    8 Atom    -80.043374
 -----------------------------------------------------------------
 1\1\GINC-N033\SP\RB3LYP\6-31+G(d,p)\Ca3O4P1(1+)\TIMN\12-Jun-2015\0\\# 
 b3lyp/6-31+G(d,p) int=ultrafine pop=(ReadRadii,MK)\\Ca3PO4_20.mol2_plu
 sQ.z51420.zip.xyz\\1,1\O,0,-1.19445,0.87599,0.92193\O,0,1.35511,0.5981
 7,0.9219\O,0,-0.00016,-0.00139,-1.71188\O,0,-0.16032,-1.47134,0.92294\
 P,0,0.00024,0.00208,1.71804\Ca,0,-1.78082,-0.78536,-0.56924\Ca,0,1.569
 87,-1.15047,-0.56926\Ca,0,0.21071,1.9337,-0.57199\\Version=EM64T-G03Re
 vE.01\State=1-A\HF=-2675.0710379\RMSD=8.203e-05\Thermal=0.\Dipole=-0.0
 00613,-0.0052622,-3.2372038\PG=C01 [X(Ca3O4P1)]\\@


 SATCHEL PAIGE'S GUIDE TO LONGEVITY

    1.  AVOID FRIED MEATS, WHICH ANGRY UP THE BLOOD.

    2.  IF YOUR STOMACH DISPUTES YOU, LIE DOWN AND PACIFY IT WITH COOL
        THOUGHTS.

    3.  KEEP THE JUICES FLOWING BY JANGLING AROUND GENTLY AS YOU MOVE.

    4.  GO VERY LIGHT ON THE VICES, SUCH AS CARRYING ON IN SOCIETY.
        THE SOCIAL RUMBLE AIN'T RESTFUL.

    5.  AVOID RUNNING AT ALL TIMES.

    6.  DON'T LOOK BACK.  SOMETHING MAY BE GAINING ON YOU.
 Job cpu time:  0 days  0 hours  1 minutes 42.1 seconds.
 File lengths (MBytes):  RWF=     32 Int=      0 D2E=      0 Chk=     11 Scr=      1
 Normal termination of Gaussian 03 at Fri Jun 12 17:41:46 2015.
