 Entering Gaussian System, Link 0=/home/timn/tmp/g03.e01/g03
 Input=Ca3PO4_76.mol2_plusQ.z51492.zip.xyz.gjf
 Output=Ca3PO4_76.mol2_plusQ.z51492.zip.xyz.out
 Initial command:
 /home/timn/tmp/g03.e01/l1.exe /home/timn/tmp/g03.e01/Gau-17437.inp -scrdir=/home/timn/tmp/g03.e01/
 Default is to use a total of   2 processors:
                                2 via shared-memory
                                1 via Linda
 Entering Link 1 = /home/timn/tmp/g03.e01/l1.exe PID=     17438.
  
 Copyright (c) 1988,1990,1992,1993,1995,1998,2003,2004,2007, Gaussian, Inc.
                  All Rights Reserved.
  
 This is the Gaussian(R) 03 program.  It is based on the
 the Gaussian(R) 98 system (copyright 1998, Gaussian, Inc.),
 the Gaussian(R) 94 system (copyright 1995, Gaussian, Inc.),
 the Gaussian 92(TM) system (copyright 1992, Gaussian, Inc.),
 the Gaussian 90(TM) system (copyright 1990, Gaussian, Inc.),
 the Gaussian 88(TM) system (copyright 1988, Gaussian, Inc.),
 the Gaussian 86(TM) system (copyright 1986, Carnegie Mellon
 University), and the Gaussian 82(TM) system (copyright 1983,
 Carnegie Mellon University). Gaussian is a federally registered
 trademark of Gaussian, Inc.
  
 This software contains proprietary and confidential information,
 including trade secrets, belonging to Gaussian, Inc.
  
 This software is provided under written license and may be
 used, copied, transmitted, or stored only in accord with that
 written license.
  
 The following legend is applicable only to US Government
 contracts under FAR:
  
                    RESTRICTED RIGHTS LEGEND
  
 Use, reproduction and disclosure by the US Government is
 subject to restrictions as set forth in subparagraphs (a)
 and (c) of the Commercial Computer Software - Restricted
 Rights clause in FAR 52.227-19.
  
 Gaussian, Inc.
 340 Quinnipiac St., Bldg. 40, Wallingford CT 06492
  
  
 ---------------------------------------------------------------
 Warning -- This program may not be used in any manner that
 competes with the business of Gaussian, Inc. or will provide
 assistance to any competitor of Gaussian, Inc.  The licensee
 of this program is prohibited from giving any competitor of
 Gaussian, Inc. access to this program.  By using this program,
 the user acknowledges that Gaussian, Inc. is engaged in the
 business of creating and licensing software in the field of
 computational chemistry and represents and warrants to the
 licensee that it is not a competitor of Gaussian, Inc. and that
 it will not use this program in any manner prohibited above.
 ---------------------------------------------------------------
  

 Cite this work as:
 Gaussian 03, Revision E.01,
 M. J. Frisch, G. W. Trucks, H. B. Schlegel, G. E. Scuseria, 
 M. A. Robb, J. R. Cheeseman, J. A. Montgomery, Jr., T. Vreven, 
 K. N. Kudin, J. C. Burant, J. M. Millam, S. S. Iyengar, J. Tomasi, 
 V. Barone, B. Mennucci, M. Cossi, G. Scalmani, N. Rega, 
 G. A. Petersson, H. Nakatsuji, M. Hada, M. Ehara, K. Toyota, 
 R. Fukuda, J. Hasegawa, M. Ishida, T. Nakajima, Y. Honda, O. Kitao, 
 H. Nakai, M. Klene, X. Li, J. E. Knox, H. P. Hratchian, J. B. Cross, 
 V. Bakken, C. Adamo, J. Jaramillo, R. Gomperts, R. E. Stratmann, 
 O. Yazyev, A. J. Austin, R. Cammi, C. Pomelli, J. W. Ochterski, 
 P. Y. Ayala, K. Morokuma, G. A. Voth, P. Salvador, J. J. Dannenberg, 
 V. G. Zakrzewski, S. Dapprich, A. D. Daniels, M. C. Strain, 
 O. Farkas, D. K. Malick, A. D. Rabuck, K. Raghavachari, 
 J. B. Foresman, J. V. Ortiz, Q. Cui, A. G. Baboul, S. Clifford, 
 J. Cioslowski, B. B. Stefanov, G. Liu, A. Liashenko, P. Piskorz, 
 I. Komaromi, R. L. Martin, D. J. Fox, T. Keith, M. A. Al-Laham, 
 C. Y. Peng, A. Nanayakkara, M. Challacombe, P. M. W. Gill, 
 B. Johnson, W. Chen, M. W. Wong, C. Gonzalez, and J. A. Pople, 
 Gaussian, Inc., Wallingford CT, 2004.
 
 ******************************************
 Gaussian 03:  EM64T-G03RevE.01 11-Sep-2007
                12-Jun-2015 
 ******************************************
 %nproc=2
 Will use up to    2 processors via shared memory.
 Default route:  MP2=Direct MaxDisk=2000MB
 ----------------------------------------------------
 # b3lyp/6-31+G(d,p) int=ultrafine pop=(ReadRadii,MK)
 ----------------------------------------------------

 Warning!  SCF SP cutoffs with diffuse functions may be unreliable.
 Consider SCF=Tight

 1/38=1/1;
 2/17=6,18=5,40=1/2;
 3/5=1,6=6,7=111,11=2,16=1,25=1,30=1,74=-5,75=5/1,2,3;
 4//1;
 5/5=2,32=1,38=5/2;
 6/7=2,8=2,9=2,10=2,15=8,20=101,28=1/1,2;
 99/5=1,9=1/99;
 -----------------------------------
 Ca3PO4_76.mol2_plusQ.z51492.zip.xyz
 -----------------------------------
 Symbolic Z-matrix:
 Charge =  1 Multiplicity = 1
 O                    -1.32225   0.66764   0.92192 
 O                     1.23828   0.81284   0.92193 
 O                     0.0838   -1.4777    0.92291 
 O                     0.00008  -0.00136  -1.71187 
 P                    -0.00013   0.00205   1.71804 
 Ca                    1.73769  -0.87666  -0.56926 
 Ca                   -1.62743  -1.06749  -0.56928 
 Ca                   -0.11013   1.94205  -0.57195 
 
                          Input orientation:                          
 ---------------------------------------------------------------------
 Center     Atomic     Atomic              Coordinates (Angstroms)
 Number     Number      Type              X           Y           Z
 ---------------------------------------------------------------------
    1          8             0       -1.322250    0.667640    0.921920
    2          8             0        1.238280    0.812840    0.921930
    3          8             0        0.083800   -1.477700    0.922910
    4          8             0        0.000080   -0.001360   -1.711870
    5         15             0       -0.000130    0.002050    1.718040
    6         20             0        1.737690   -0.876660   -0.569260
    7         20             0       -1.627430   -1.067490   -0.569280
    8         20             0       -0.110130    1.942050   -0.571950
 ---------------------------------------------------------------------
                    Distance matrix (angstroms):
                    1          2          3          4          5
     1  O    0.000000
     2  O    2.564644   0.000000
     3  O    2.565046   2.565034   0.000000
     4  O    3.022080   3.022079   3.021366   0.000000
     5  P    1.680720   1.680723   1.681944   3.429912   0.000000
     6  Ca   3.737875   2.308131   2.307200   2.256324   3.003979
     7  Ca   2.308135   3.737866   2.307209   2.256310   3.003973
     8  Ca   2.307597   2.307597   3.737232   2.255750   3.003291
                    6          7          8
     6  Ca   0.000000
     7  Ca   3.370526   0.000000
     8  Ca   3.370396   3.370391   0.000000
 Stoichiometry    Ca3O4P(1+)
 Framework group  C1[X(Ca3O4P)]
 Deg. of freedom    18
 Full point group                 C1
 Largest Abelian subgroup         C1      NOp   1
 Largest concise Abelian subgroup C1      NOp   1
                         Standard orientation:                         
 ---------------------------------------------------------------------
 Center     Atomic     Atomic              Coordinates (Angstroms)
 Number     Number      Type              X           Y           Z
 ---------------------------------------------------------------------
    1          8             0       -1.441050    0.342724    0.921921
    2          8             0        1.015963    1.077898    0.921931
    3          8             0        0.424279   -1.417960    0.922911
    4          8             0        0.000394   -0.001305   -1.711869
    5         15             0       -0.000601    0.001963    1.718041
    6         20             0        1.893645   -0.449680   -0.569259
    7         20             0       -1.335430   -1.415871   -0.569279
    8         20             0       -0.557599    1.863536   -0.571949
 ---------------------------------------------------------------------
 Rotational constants (GHZ):      1.0154955      1.0154904      0.9037604
 Standard basis: 6-31+G(d,p) (6D, 7F)
 There are   180 symmetry adapted basis functions of A   symmetry.
 Integral buffers will be    131072 words long.
 Raffenetti 2 integral format.
 Two-electron integral symmetry is turned on.
   180 basis functions,   424 primitive gaussians,   180 cartesian basis functions
    53 alpha electrons       53 beta electrons
       nuclear repulsion energy       952.7146371158 Hartrees.
 NAtoms=    8 NActive=    8 NUniq=    8 SFac= 7.50D-01 NAtFMM=   80 NAOKFM=F Big=F
 One-electron integrals computed using PRISM.
 NBasis=   180 RedAO= T  NBF=   180
 NBsUse=   180 1.00D-06 NBFU=   180
 Harris functional with IExCor=  402 diagonalized for initial guess.
 ExpMin= 7.10D-03 ExpMax= 3.53D+04 ExpMxC= 5.30D+03 IAcc=3 IRadAn=         5 AccDes= 0.00D+00
 HarFok:  IExCor= 402 AccDes= 0.00D+00 IRadAn=         5 IDoV=1
 ScaDFX=  1.000000  1.000000  1.000000  1.000000
 Initial guess orbital symmetries:
       Occupied  (A) (A) (A) (A) (A) (A) (A) (A) (A) (A) (A) (A)
                 (A) (A) (A) (A) (A) (A) (A) (A) (A) (A) (A) (A)
                 (A) (A) (A) (A) (A) (A) (A) (A) (A) (A) (A) (A)
                 (A) (A) (A) (A) (A) (A) (A) (A) (A) (A) (A) (A)
                 (A) (A) (A) (A) (A)
       Virtual   (A) (A) (A) (A) (A) (A) (A) (A) (A) (A) (A) (A)
                 (A) (A) (A) (A) (A) (A) (A) (A) (A) (A) (A) (A)
                 (A) (A) (A) (A) (A) (A) (A) (A) (A) (A) (A) (A)
                 (A) (A) (A) (A) (A) (A) (A) (A) (A) (A) (A) (A)
                 (A) (A) (A) (A) (A) (A) (A) (A) (A) (A) (A) (A)
                 (A) (A) (A) (A) (A) (A) (A) (A) (A) (A) (A) (A)
                 (A) (A) (A) (A) (A) (A) (A) (A) (A) (A) (A) (A)
                 (A) (A) (A) (A) (A) (A) (A) (A) (A) (A) (A) (A)
                 (A) (A) (A) (A) (A) (A) (A) (A) (A) (A) (A) (A)
                 (A) (A) (A) (A) (A) (A) (A) (A) (A) (A) (A) (A)
                 (A) (A) (A) (A) (A) (A) (A)
 The electronic state of the initial guess is 1-A.
 Requested convergence on RMS density matrix=1.00D-04 within 128 cycles.
 Requested convergence on MAX density matrix=1.00D-02.
 Requested convergence on             energy=1.00D-02.
 No special actions if energy rises.
 SCF Done:  E(RB+HF-LYP) =  -2675.07105730     A.U. after    8 cycles
             Convg  =    0.8149D-04             -V/T =  2.0028
             S**2   =   0.0000

 **********************************************************************

            Population analysis using the SCF density.

 **********************************************************************

 Orbital symmetries:
       Occupied  (A) (A) (A) (A) (A) (A) (A) (A) (A) (A) (A) (A)
                 (A) (A) (A) (A) (A) (A) (A) (A) (A) (A) (A) (A)
                 (A) (A) (A) (A) (A) (A) (A) (A) (A) (A) (A) (A)
                 (A) (A) (A) (A) (A) (A) (A) (A) (A) (A) (A) (A)
                 (A) (A) (A) (A) (A)
       Virtual   (A) (A) (A) (A) (A) (A) (A) (A) (A) (A) (A) (A)
                 (A) (A) (A) (A) (A) (A) (A) (A) (A) (A) (A) (A)
                 (A) (A) (A) (A) (A) (A) (A) (A) (A) (A) (A) (A)
                 (A) (A) (A) (A) (A) (A) (A) (A) (A) (A) (A) (A)
                 (A) (A) (A) (A) (A) (A) (A) (A) (A) (A) (A) (A)
                 (A) (A) (A) (A) (A) (A) (A) (A) (A) (A) (A) (A)
                 (A) (A) (A) (A) (A) (A) (A) (A) (A) (A) (A) (A)
                 (A) (A) (A) (A) (A) (A) (A) (A) (A) (A) (A) (A)
                 (A) (A) (A) (A) (A) (A) (A) (A) (A) (A) (A) (A)
                 (A) (A) (A) (A) (A) (A) (A) (A) (A) (A) (A) (A)
                 (A) (A) (A) (A) (A) (A) (A)
 The electronic state is 1-A.
 Alpha  occ. eigenvalues -- -145.49638-145.49632-145.49631 -77.25055 -19.21253
 Alpha  occ. eigenvalues --  -19.21251 -19.21161 -19.15934 -15.56471 -15.56468
 Alpha  occ. eigenvalues --  -15.56467 -12.69668 -12.69667 -12.69666 -12.69646
 Alpha  occ. eigenvalues --  -12.69645 -12.69643 -12.69598 -12.69598 -12.69596
 Alpha  occ. eigenvalues --   -6.70085  -4.86433  -4.86433  -4.85897  -1.93821
 Alpha  occ. eigenvalues --   -1.93736  -1.93736  -1.22374  -1.21693  -1.21692
 Alpha  occ. eigenvalues --   -1.21303  -1.21136  -1.21062  -1.21061  -1.20639
 Alpha  occ. eigenvalues --   -1.20639  -1.06754  -1.00375  -1.00328  -0.90932
 Alpha  occ. eigenvalues --   -0.62641  -0.50530  -0.50518  -0.47957  -0.43356
 Alpha  occ. eigenvalues --   -0.43352  -0.38354  -0.38327  -0.38176  -0.36131
 Alpha  occ. eigenvalues --   -0.36126  -0.34585  -0.30859
 Alpha virt. eigenvalues --   -0.19948  -0.18025  -0.18025  -0.12553  -0.12552
 Alpha virt. eigenvalues --   -0.10892  -0.09477  -0.09477  -0.08338  -0.07770
 Alpha virt. eigenvalues --   -0.06545  -0.06114  -0.06113  -0.04765  -0.04717
 Alpha virt. eigenvalues --   -0.04715  -0.04672  -0.04475  -0.04472  -0.04004
 Alpha virt. eigenvalues --   -0.04003  -0.03232  -0.02943  -0.02943  -0.02360
 Alpha virt. eigenvalues --   -0.02356  -0.00867   0.01027   0.02177   0.02618
 Alpha virt. eigenvalues --    0.02618   0.04574   0.04576   0.05228   0.06004
 Alpha virt. eigenvalues --    0.06005   0.06294   0.06295   0.07291   0.07296
 Alpha virt. eigenvalues --    0.07383   0.07665   0.07670   0.07824   0.08467
 Alpha virt. eigenvalues --    0.10687   0.10688   0.11333   0.11805   0.13661
 Alpha virt. eigenvalues --    0.15682   0.15683   0.19890   0.19893   0.20374
 Alpha virt. eigenvalues --    0.22088   0.22094   0.23486   0.23995   0.25321
 Alpha virt. eigenvalues --    0.25958   0.25971   0.30033   0.31451   0.31457
 Alpha virt. eigenvalues --    0.35747   0.36005   0.36008   0.37871   0.39075
 Alpha virt. eigenvalues --    0.39089   0.39779   0.45832   0.45833   0.53631
 Alpha virt. eigenvalues --    0.53634   0.55847   0.63370   0.63373   0.67681
 Alpha virt. eigenvalues --    0.82901   0.86954   0.86970   0.94089   0.94120
 Alpha virt. eigenvalues --    1.14556   1.16752   1.16770   1.18031   1.20791
 Alpha virt. eigenvalues --    1.21959   1.21984   1.23406   1.23416   1.28212
 Alpha virt. eigenvalues --    1.34155   1.34196   1.36435   1.54452   1.54479
 Alpha virt. eigenvalues --    1.57771   1.68382   1.71620   1.73135   1.73162
 Alpha virt. eigenvalues --    1.77475   1.77490   1.87084   1.87376   1.87385
 Alpha virt. eigenvalues --    1.88080   1.92069   1.92079   1.93329   1.98432
 Alpha virt. eigenvalues --    1.98448   2.03029   2.03032   2.14789   2.38156
 Alpha virt. eigenvalues --    2.55087   2.55192   3.54379   4.05629   4.14262
 Alpha virt. eigenvalues --    4.14313   4.31233
          Condensed to atoms (all electrons):
              1          2          3          4          5          6
     1  O    8.966281   0.058840   0.058571   0.023974  -0.201094   0.006255
     2  O    0.058840   8.966296   0.058567   0.023991  -0.201089   0.059804
     3  O    0.058571   0.058567   8.964677   0.023942  -0.200019   0.060009
     4  O    0.023974   0.023991   0.023942   8.852583  -0.039948   0.122101
     5  P   -0.201094  -0.201089  -0.200019  -0.039948  14.442920   0.033634
     6  Ca   0.006255   0.059804   0.060009   0.122101   0.033634  18.396816
     7  Ca   0.059797   0.006255   0.060001   0.122101   0.033629  -0.047532
     8  Ca   0.059729   0.059731   0.006156   0.122240   0.034055  -0.047726
              7          8
     1  O    0.059797   0.059729
     2  O    0.006255   0.059731
     3  O    0.060001   0.006156
     4  O    0.122101   0.122240
     5  P    0.033629   0.034055
     6  Ca  -0.047532  -0.047726
     7  Ca  18.396819  -0.047702
     8  Ca  -0.047702  18.397069
 Mulliken atomic charges:
              1
     1  O   -1.032351
     2  O   -1.032394
     3  O   -1.031905
     4  O   -1.250983
     5  P    1.097912
     6  Ca   1.416640
     7  Ca   1.416633
     8  Ca   1.416449
 Sum of Mulliken charges=   1.00000
 Atomic charges with hydrogens summed into heavy atoms:
              1
     1  O   -1.032351
     2  O   -1.032394
     3  O   -1.031905
     4  O   -1.250983
     5  P    1.097912
     6  Ca   1.416640
     7  Ca   1.416633
     8  Ca   1.416449
 Sum of Mulliken charges=   1.00000
 Electronic spatial extent (au):  <R**2>=  1510.1152
 Charge=     1.0000 electrons
 Dipole moment (field-independent basis, Debye):
    X=     0.0038    Y=    -0.0128    Z=    -8.2280  Tot=     8.2280
 Quadrupole moment (field-independent basis, Debye-Ang):
   XX=   -40.0297   YY=   -40.0407   ZZ=   -90.0149
   XY=     0.0036   XZ=     0.0129   YZ=    -0.0427
 Traceless Quadrupole moment (field-independent basis, Debye-Ang):
   XX=    16.6654   YY=    16.6544   ZZ=   -33.3198
   XY=     0.0036   XZ=     0.0129   YZ=    -0.0427
 Octapole moment (field-independent basis, Debye-Ang**2):
  XXX=    44.9201  YYY=    37.5531  ZZZ=    -1.6834  XYY=   -44.8633
  XXY=   -37.7372  XXZ=   -46.6231  XZZ=    -0.0206  YZZ=     0.0674
  YYZ=   -46.7150  XYZ=     0.0299
 Hexadecapole moment (field-independent basis, Debye-Ang**3):
 XXXX=  -415.9806 YYYY=  -416.1934 ZZZZ=  -721.6705 XXXY=    -0.0043
 XXXZ=   -11.7705 YYYX=     0.0754 YYYZ=   -10.0811 ZZZX=     0.0534
 ZZZY=    -0.1754 XXYY=  -138.6733 XXZZ=  -187.6210 YYZZ=  -187.5778
 XXYZ=     9.8738 YYXZ=    11.8339 ZZXY=    -0.0135
 N-N= 9.527146371158D+02 E-N=-8.229901711591D+03  KE= 2.667693258138D+03
 Merz-Kollman atomic radii used.
 Read replacement radii for each type of atom:
 Rad(20) =   1.188000000000D+00
 Atom Element Radius
    1     8    1.40
    2     8    1.40
    3     8    1.40
    4     8    1.40
    5    15    1.80
    6    20    1.19
    7    20    1.19
    8    20    1.19

 **********************************************************************

            Electrostatic Properties Using The SCF Density

 **********************************************************************

       Atomic Center    1 is at  -1.441050  0.342724  0.921921
       Atomic Center    2 is at   1.015963  1.077898  0.921931
       Atomic Center    3 is at   0.424279 -1.417960  0.922911
       Atomic Center    4 is at   0.000394 -0.001305 -1.711869
       Atomic Center    5 is at  -0.000601  0.001963  1.718041
       Atomic Center    6 is at   1.893645 -0.449680 -0.569259
       Atomic Center    7 is at  -1.335430 -1.415871 -0.569279
       Atomic Center    8 is at  -0.557599  1.863536 -0.571949
     683 points will be used for fitting atomic charges
 Fitting point charges to eletrostatic potential
 Charges from ESP fit, RMS=   0.00618 RRMS=   0.03774:
 Charge=   1.00000 Dipole=    -0.0188    -0.0047    -8.4265 Tot=     8.4265
              1
     1  O   -0.943358
     2  O   -0.945988
     3  O   -0.946266
     4  O   -1.636976
     5  P    0.515161
     6  Ca   1.652167
     7  Ca   1.652566
     8  Ca   1.652694
 -----------------------------------------------------------------

              Electrostatic Properties (Atomic Units)

 -----------------------------------------------------------------
    Center     Electric         -------- Electric Field --------
               Potential          X             Y             Z
 -----------------------------------------------------------------
    1 Atom    -22.251787
    2 Atom    -22.251827
    3 Atom    -22.250058
    4 Atom    -22.290643
    5 Atom    -53.967975
    6 Atom    -80.043269
    7 Atom    -80.043266
    8 Atom    -80.043381
 -----------------------------------------------------------------
 1\1\GINC-N025\SP\RB3LYP\6-31+G(d,p)\Ca3O4P1(1+)\TIMN\12-Jun-2015\0\\# 
 b3lyp/6-31+G(d,p) int=ultrafine pop=(ReadRadii,MK)\\Ca3PO4_76.mol2_plu
 sQ.z51492.zip.xyz\\1,1\O,0,-1.32225,0.66764,0.92192\O,0,1.23828,0.8128
 4,0.92193\O,0,0.0838,-1.4777,0.92291\O,0,0.00008,-0.00136,-1.71187\P,0
 ,-0.00013,0.00205,1.71804\Ca,0,1.73769,-0.87666,-0.56926\Ca,0,-1.62743
 ,-1.06749,-0.56928\Ca,0,-0.11013,1.94205,-0.57195\\Version=EM64T-G03Re
 vE.01\State=1-A\HF=-2675.0710573\RMSD=8.149e-05\Thermal=0.\Dipole=0.00
 02733,-0.0052403,-3.2371425\PG=C01 [X(Ca3O4P1)]\\@


 Just remember, when you're over the hill, you begin to pick up speed.
 -- Charles Schulz
 Job cpu time:  0 days  0 hours  1 minutes 43.1 seconds.
 File lengths (MBytes):  RWF=     32 Int=      0 D2E=      0 Chk=     11 Scr=      1
 Normal termination of Gaussian 03 at Fri Jun 12 17:45:26 2015.
