 Entering Gaussian System, Link 0=/home/timn/tmp/g03.e01/g03
 Input=Ca3PO4_165.mol2c_plusQ.z51171.zip.xyz.gjf
 Output=Ca3PO4_165.mol2c_plusQ.z51171.zip.xyz.out
 Initial command:
 /home/timn/tmp/g03.e01/l1.exe /home/timn/tmp/g03.e01/Gau-11654.inp -scrdir=/home/timn/tmp/g03.e01/
 Default is to use a total of   2 processors:
                                2 via shared-memory
                                1 via Linda
 Entering Link 1 = /home/timn/tmp/g03.e01/l1.exe PID=     11655.
  
 Copyright (c) 1988,1990,1992,1993,1995,1998,2003,2004,2007, Gaussian, Inc.
                  All Rights Reserved.
  
 This is the Gaussian(R) 03 program.  It is based on the
 the Gaussian(R) 98 system (copyright 1998, Gaussian, Inc.),
 the Gaussian(R) 94 system (copyright 1995, Gaussian, Inc.),
 the Gaussian 92(TM) system (copyright 1992, Gaussian, Inc.),
 the Gaussian 90(TM) system (copyright 1990, Gaussian, Inc.),
 the Gaussian 88(TM) system (copyright 1988, Gaussian, Inc.),
 the Gaussian 86(TM) system (copyright 1986, Carnegie Mellon
 University), and the Gaussian 82(TM) system (copyright 1983,
 Carnegie Mellon University). Gaussian is a federally registered
 trademark of Gaussian, Inc.
  
 This software contains proprietary and confidential information,
 including trade secrets, belonging to Gaussian, Inc.
  
 This software is provided under written license and may be
 used, copied, transmitted, or stored only in accord with that
 written license.
  
 The following legend is applicable only to US Government
 contracts under FAR:
  
                    RESTRICTED RIGHTS LEGEND
  
 Use, reproduction and disclosure by the US Government is
 subject to restrictions as set forth in subparagraphs (a)
 and (c) of the Commercial Computer Software - Restricted
 Rights clause in FAR 52.227-19.
  
 Gaussian, Inc.
 340 Quinnipiac St., Bldg. 40, Wallingford CT 06492
  
  
 ---------------------------------------------------------------
 Warning -- This program may not be used in any manner that
 competes with the business of Gaussian, Inc. or will provide
 assistance to any competitor of Gaussian, Inc.  The licensee
 of this program is prohibited from giving any competitor of
 Gaussian, Inc. access to this program.  By using this program,
 the user acknowledges that Gaussian, Inc. is engaged in the
 business of creating and licensing software in the field of
 computational chemistry and represents and warrants to the
 licensee that it is not a competitor of Gaussian, Inc. and that
 it will not use this program in any manner prohibited above.
 ---------------------------------------------------------------
  

 Cite this work as:
 Gaussian 03, Revision E.01,
 M. J. Frisch, G. W. Trucks, H. B. Schlegel, G. E. Scuseria, 
 M. A. Robb, J. R. Cheeseman, J. A. Montgomery, Jr., T. Vreven, 
 K. N. Kudin, J. C. Burant, J. M. Millam, S. S. Iyengar, J. Tomasi, 
 V. Barone, B. Mennucci, M. Cossi, G. Scalmani, N. Rega, 
 G. A. Petersson, H. Nakatsuji, M. Hada, M. Ehara, K. Toyota, 
 R. Fukuda, J. Hasegawa, M. Ishida, T. Nakajima, Y. Honda, O. Kitao, 
 H. Nakai, M. Klene, X. Li, J. E. Knox, H. P. Hratchian, J. B. Cross, 
 V. Bakken, C. Adamo, J. Jaramillo, R. Gomperts, R. E. Stratmann, 
 O. Yazyev, A. J. Austin, R. Cammi, C. Pomelli, J. W. Ochterski, 
 P. Y. Ayala, K. Morokuma, G. A. Voth, P. Salvador, J. J. Dannenberg, 
 V. G. Zakrzewski, S. Dapprich, A. D. Daniels, M. C. Strain, 
 O. Farkas, D. K. Malick, A. D. Rabuck, K. Raghavachari, 
 J. B. Foresman, J. V. Ortiz, Q. Cui, A. G. Baboul, S. Clifford, 
 J. Cioslowski, B. B. Stefanov, G. Liu, A. Liashenko, P. Piskorz, 
 I. Komaromi, R. L. Martin, D. J. Fox, T. Keith, M. A. Al-Laham, 
 C. Y. Peng, A. Nanayakkara, M. Challacombe, P. M. W. Gill, 
 B. Johnson, W. Chen, M. W. Wong, C. Gonzalez, and J. A. Pople, 
 Gaussian, Inc., Wallingford CT, 2004.
 
 ******************************************
 Gaussian 03:  EM64T-G03RevE.01 11-Sep-2007
                12-Jun-2015 
 ******************************************
 %nproc=2
 Will use up to    2 processors via shared memory.
 Default route:  MP2=Direct MaxDisk=2000MB
 ----------------------------------------------------
 # b3lyp/6-31+G(d,p) int=ultrafine pop=(ReadRadii,MK)
 ----------------------------------------------------

 Warning!  SCF SP cutoffs with diffuse functions may be unreliable.
 Consider SCF=Tight

 1/38=1/1;
 2/17=6,18=5,40=1/2;
 3/5=1,6=6,7=111,11=2,16=1,25=1,30=1,74=-5,75=5/1,2,3;
 4//1;
 5/5=2,32=1,38=5/2;
 6/7=2,8=2,9=2,10=2,15=8,20=101,28=1/1,2;
 99/5=1,9=1/99;
 -------------------------------------
 Ca3PO4_165.mol2c_plusQ.z51171.zip.xyz
 -------------------------------------
 Symbolic Z-matrix:
 Charge =  1 Multiplicity = 1
 O                    -1.93766  -1.51252   0.04274 
 O                     2.87069   0.98622  -0.47242 
 O                    -1.27017   0.91126   0.42619 
 O                     0.58344  -0.82685   0.3385 
 P                    -0.90057  -0.72074   0.97232 
 Ca                   -3.05899   0.20991  -0.71747 
 Ca                    0.94229   1.63319   0.2468 
 Ca                    2.6936   -1.12579  -0.39257 
 
                          Input orientation:                          
 ---------------------------------------------------------------------
 Center     Atomic     Atomic              Coordinates (Angstroms)
 Number     Number      Type              X           Y           Z
 ---------------------------------------------------------------------
    1          8             0       -1.937660   -1.512520    0.042740
    2          8             0        2.870690    0.986220   -0.472420
    3          8             0       -1.270170    0.911260    0.426190
    4          8             0        0.583440   -0.826850    0.338500
    5         15             0       -0.900570   -0.720740    0.972320
    6         20             0       -3.058990    0.209910   -0.717470
    7         20             0        0.942290    1.633190    0.246800
    8         20             0        2.693600   -1.125790   -0.392570
 ---------------------------------------------------------------------
                    Distance matrix (angstroms):
                    1          2          3          4          5
     1  O    0.000000
     2  O    5.443282   0.000000
     3  O    2.543086   4.237905   0.000000
     4  O    2.629365   3.029245   2.542555   0.000000
     5  P    1.602058   4.384448   1.760195   1.617181   0.000000
     6  Ca   2.191362   5.985300   2.236007   3.931570   2.894871
     7  Ca   4.269806   2.157446   2.334169   2.487766   3.076280
     8  Ca   4.667722   2.120925   4.531160   2.253132   3.865883
                    6          7          8
     6  Ca   0.000000
     7  Ca   4.354972   0.000000
     8  Ca   5.914554   3.329843   0.000000
 Stoichiometry    Ca3O4P(1+)
 Framework group  C1[X(Ca3O4P)]
 Deg. of freedom    18
 Full point group                 C1
 Largest Abelian subgroup         C1      NOp   1
 Largest concise Abelian subgroup C1      NOp   1
                         Standard orientation:                         
 ---------------------------------------------------------------------
 Center     Atomic     Atomic              Coordinates (Angstroms)
 Number     Number      Type              X           Y           Z
 ---------------------------------------------------------------------
    1          8             0       -1.937659   -1.512519    0.042739
    2          8             0        2.870692    0.986219   -0.472421
    3          8             0       -1.270168    0.911261    0.426189
    4          8             0        0.583441   -0.826850    0.338499
    5         15             0       -0.900569   -0.720739    0.972319
    6         20             0       -3.058988    0.209912   -0.717471
    7         20             0        0.942292    1.633190    0.246799
    8         20             0        2.693601   -1.125791   -0.392571
 ---------------------------------------------------------------------
 Rotational constants (GHZ):      1.5880744      0.4982113      0.4214761
 Standard basis: 6-31+G(d,p) (6D, 7F)
 There are   180 symmetry adapted basis functions of A   symmetry.
 Integral buffers will be    131072 words long.
 Raffenetti 2 integral format.
 Two-electron integral symmetry is turned on.
   180 basis functions,   424 primitive gaussians,   180 cartesian basis functions
    53 alpha electrons       53 beta electrons
       nuclear repulsion energy       845.7355202651 Hartrees.
 NAtoms=    8 NActive=    8 NUniq=    8 SFac= 7.50D-01 NAtFMM=   80 NAOKFM=F Big=F
 One-electron integrals computed using PRISM.
 NBasis=   180 RedAO= T  NBF=   180
 NBsUse=   180 1.00D-06 NBFU=   180
 Harris functional with IExCor=  402 diagonalized for initial guess.
 ExpMin= 7.10D-03 ExpMax= 3.53D+04 ExpMxC= 5.30D+03 IAcc=3 IRadAn=         5 AccDes= 0.00D+00
 HarFok:  IExCor= 402 AccDes= 0.00D+00 IRadAn=         5 IDoV=1
 ScaDFX=  1.000000  1.000000  1.000000  1.000000
 Initial guess orbital symmetries:
       Occupied  (A) (A) (A) (A) (A) (A) (A) (A) (A) (A) (A) (A)
                 (A) (A) (A) (A) (A) (A) (A) (A) (A) (A) (A) (A)
                 (A) (A) (A) (A) (A) (A) (A) (A) (A) (A) (A) (A)
                 (A) (A) (A) (A) (A) (A) (A) (A) (A) (A) (A) (A)
                 (A) (A) (A) (A) (A)
       Virtual   (A) (A) (A) (A) (A) (A) (A) (A) (A) (A) (A) (A)
                 (A) (A) (A) (A) (A) (A) (A) (A) (A) (A) (A) (A)
                 (A) (A) (A) (A) (A) (A) (A) (A) (A) (A) (A) (A)
                 (A) (A) (A) (A) (A) (A) (A) (A) (A) (A) (A) (A)
                 (A) (A) (A) (A) (A) (A) (A) (A) (A) (A) (A) (A)
                 (A) (A) (A) (A) (A) (A) (A) (A) (A) (A) (A) (A)
                 (A) (A) (A) (A) (A) (A) (A) (A) (A) (A) (A) (A)
                 (A) (A) (A) (A) (A) (A) (A) (A) (A) (A) (A) (A)
                 (A) (A) (A) (A) (A) (A) (A) (A) (A) (A) (A) (A)
                 (A) (A) (A) (A) (A) (A) (A) (A) (A) (A) (A) (A)
                 (A) (A) (A) (A) (A) (A) (A)
 The electronic state of the initial guess is 1-A.
 Requested convergence on RMS density matrix=1.00D-04 within 128 cycles.
 Requested convergence on MAX density matrix=1.00D-02.
 Requested convergence on             energy=1.00D-02.
 No special actions if energy rises.
 SCF Done:  E(RB+HF-LYP) =  -2674.99497607     A.U. after    9 cycles
             Convg  =    0.7406D-04             -V/T =  2.0028
             S**2   =   0.0000

 **********************************************************************

            Population analysis using the SCF density.

 **********************************************************************

 Orbital symmetries:
       Occupied  (A) (A) (A) (A) (A) (A) (A) (A) (A) (A) (A) (A)
                 (A) (A) (A) (A) (A) (A) (A) (A) (A) (A) (A) (A)
                 (A) (A) (A) (A) (A) (A) (A) (A) (A) (A) (A) (A)
                 (A) (A) (A) (A) (A) (A) (A) (A) (A) (A) (A) (A)
                 (A) (A) (A) (A) (A)
       Virtual   (A) (A) (A) (A) (A) (A) (A) (A) (A) (A) (A) (A)
                 (A) (A) (A) (A) (A) (A) (A) (A) (A) (A) (A) (A)
                 (A) (A) (A) (A) (A) (A) (A) (A) (A) (A) (A) (A)
                 (A) (A) (A) (A) (A) (A) (A) (A) (A) (A) (A) (A)
                 (A) (A) (A) (A) (A) (A) (A) (A) (A) (A) (A) (A)
                 (A) (A) (A) (A) (A) (A) (A) (A) (A) (A) (A) (A)
                 (A) (A) (A) (A) (A) (A) (A) (A) (A) (A) (A) (A)
                 (A) (A) (A) (A) (A) (A) (A) (A) (A) (A) (A) (A)
                 (A) (A) (A) (A) (A) (A) (A) (A) (A) (A) (A) (A)
                 (A) (A) (A) (A) (A) (A) (A) (A) (A) (A) (A) (A)
                 (A) (A) (A) (A) (A) (A) (A)
 The electronic state is 1-A.
 Alpha  occ. eigenvalues -- -145.54315-145.48567-145.45757 -77.24722 -19.21996
 Alpha  occ. eigenvalues --  -19.21590 -19.20160 -19.10636 -15.61175 -15.55410
 Alpha  occ. eigenvalues --  -15.52726 -12.74406 -12.74312 -12.74305 -12.68651
 Alpha  occ. eigenvalues --  -12.68572 -12.68502 -12.65986 -12.65936 -12.65739
 Alpha  occ. eigenvalues --   -6.69761  -4.86170  -4.86090  -4.85590  -1.98286
 Alpha  occ. eigenvalues --   -1.92617  -1.90131  -1.25954  -1.25787  -1.25427
 Alpha  occ. eigenvalues --   -1.20406  -1.20266  -1.19547  -1.18139  -1.17940
 Alpha  occ. eigenvalues --   -1.16948  -1.07024  -1.01223  -0.99689  -0.84841
 Alpha  occ. eigenvalues --   -0.62360  -0.51023  -0.50164  -0.47528  -0.44197
 Alpha  occ. eigenvalues --   -0.41665  -0.38714  -0.37898  -0.37643  -0.30573
 Alpha  occ. eigenvalues --   -0.30452  -0.29022  -0.28542
 Alpha virt. eigenvalues --   -0.22180  -0.18250  -0.15632  -0.13736  -0.12731
 Alpha virt. eigenvalues --   -0.10817  -0.09951  -0.09059  -0.08486  -0.08243
 Alpha virt. eigenvalues --   -0.07266  -0.06104  -0.05853  -0.05240  -0.05145
 Alpha virt. eigenvalues --   -0.04926  -0.04514  -0.04309  -0.04026  -0.03812
 Alpha virt. eigenvalues --   -0.03497  -0.03399  -0.03203  -0.02890  -0.02454
 Alpha virt. eigenvalues --   -0.01526  -0.00824   0.00405   0.00834   0.01611
 Alpha virt. eigenvalues --    0.02996   0.03075   0.03766   0.04220   0.04729
 Alpha virt. eigenvalues --    0.04821   0.05227   0.05830   0.06769   0.07328
 Alpha virt. eigenvalues --    0.07554   0.07991   0.08523   0.09537   0.09760
 Alpha virt. eigenvalues --    0.10479   0.10611   0.11517   0.12373   0.13469
 Alpha virt. eigenvalues --    0.14498   0.16232   0.16411   0.17339   0.19197
 Alpha virt. eigenvalues --    0.20484   0.21755   0.22613   0.22775   0.24378
 Alpha virt. eigenvalues --    0.25052   0.25821   0.27812   0.29184   0.30227
 Alpha virt. eigenvalues --    0.32543   0.33345   0.35812   0.37488   0.38650
 Alpha virt. eigenvalues --    0.39744   0.41423   0.42313   0.44628   0.46932
 Alpha virt. eigenvalues --    0.53058   0.61143   0.64419   0.65672   0.67930
 Alpha virt. eigenvalues --    0.70806   0.83400   0.88610   0.89942   0.96780
 Alpha virt. eigenvalues --    1.07782   1.14082   1.15948   1.17525   1.18416
 Alpha virt. eigenvalues --    1.18454   1.20319   1.21939   1.23333   1.24249
 Alpha virt. eigenvalues --    1.26511   1.30402   1.34335   1.48168   1.52100
 Alpha virt. eigenvalues --    1.55240   1.66381   1.71382   1.73737   1.76241
 Alpha virt. eigenvalues --    1.76894   1.78513   1.81095   1.82873   1.86436
 Alpha virt. eigenvalues --    1.87277   1.88112   1.89998   1.93396   1.97001
 Alpha virt. eigenvalues --    1.98653   2.00394   2.07214   2.07870   2.32734
 Alpha virt. eigenvalues --    2.57645   2.66732   3.52688   3.98926   3.99983
 Alpha virt. eigenvalues --    4.03606   4.10809
          Condensed to atoms (all electrons):
              1          2          3          4          5          6
     1  O    8.837234   0.000557   0.010896   0.091530  -0.244905   0.143178
     2  O    0.000557   8.711837  -0.001187  -0.013216  -0.013376  -0.002533
     3  O    0.010896  -0.001187   9.120450   0.026956  -0.265709   0.086170
     4  O    0.091530  -0.013216   0.026956   9.357901  -0.587434   0.025310
     5  P   -0.244905  -0.013376  -0.265709  -0.587434  15.264214   0.043443
     6  Ca   0.143178  -0.002533   0.086170   0.025310   0.043443  18.309090
     7  Ca   0.024551   0.229715   0.085719   0.063871  -0.116168  -0.017420
     8  Ca  -0.002937   0.226383  -0.001788   0.045238   0.028999   0.006948
              7          8
     1  O    0.024551  -0.002937
     2  O    0.229715   0.226383
     3  O    0.085719  -0.001788
     4  O    0.063871   0.045238
     5  P   -0.116168   0.028999
     6  Ca  -0.017420   0.006948
     7  Ca  18.363291  -0.030104
     8  Ca  -0.030104  18.350612
 Mulliken atomic charges:
              1
     1  O   -0.860104
     2  O   -1.138180
     3  O   -1.061507
     4  O   -1.010155
     5  P    0.890936
     6  Ca   1.405815
     7  Ca   1.396545
     8  Ca   1.376649
 Sum of Mulliken charges=   1.00000
 Atomic charges with hydrogens summed into heavy atoms:
              1
     1  O   -0.860104
     2  O   -1.138180
     3  O   -1.061507
     4  O   -1.010155
     5  P    0.890936
     6  Ca   1.405815
     7  Ca   1.396545
     8  Ca   1.376649
 Sum of Mulliken charges=   1.00000
 Electronic spatial extent (au):  <R**2>=  2367.9481
 Charge=     1.0000 electrons
 Dipole moment (field-independent basis, Debye):
    X=    -5.9275    Y=     1.2134    Z=    -4.9135  Tot=     7.7943
 Quadrupole moment (field-independent basis, Debye-Ang):
   XX=   -17.9994   YY=   -59.9074   ZZ=   -70.0748
   XY=   -36.2451   XZ=    19.5699   YZ=     7.3091
 Traceless Quadrupole moment (field-independent basis, Debye-Ang):
   XX=    31.3278   YY=   -10.5802   ZZ=   -20.7476
   XY=   -36.2451   XZ=    19.5699   YZ=     7.3091
 Octapole moment (field-independent basis, Debye-Ang**2):
  XXX=  -189.5457  YYY=    33.4496  ZZZ=   -23.6234  XYY=    47.8175
  XXY=   -75.6772  XXZ=   -52.4704  XZZ=   -10.7360  YZZ=     1.3631
  YYZ=    -1.4252  XYZ=    28.0336
 Hexadecapole moment (field-independent basis, Debye-Ang**3):
 XXXX= -1245.3045 YYYY=  -504.8866 ZZZZ=  -253.3351 XXXY=  -459.8988
 XXXZ=   205.8056 YYYX=   -89.7356 YYYZ=    32.3408 ZZZX=    56.1070
 ZZZY=    27.2908 XXYY=  -397.1161 XXZZ=  -314.2427 YYZZ=  -130.6856
 XXYZ=    46.1713 YYXZ=    16.7962 ZZXY=   -31.9252
 N-N= 8.457355202651D+02 E-N=-8.016591674473D+03  KE= 2.667644511052D+03
 Merz-Kollman atomic radii used.
 Read replacement radii for each type of atom:
 Rad(20) =   1.188000000000D+00
 Atom Element Radius
    1     8    1.40
    2     8    1.40
    3     8    1.40
    4     8    1.40
    5    15    1.80
    6    20    1.19
    7    20    1.19
    8    20    1.19

 **********************************************************************

            Electrostatic Properties Using The SCF Density

 **********************************************************************

       Atomic Center    1 is at  -1.937659 -1.512519  0.042739
       Atomic Center    2 is at   2.870692  0.986219 -0.472421
       Atomic Center    3 is at  -1.270168  0.911261  0.426189
       Atomic Center    4 is at   0.583441 -0.826850  0.338499
       Atomic Center    5 is at  -0.900569 -0.720739  0.972319
       Atomic Center    6 is at  -3.058988  0.209912 -0.717471
       Atomic Center    7 is at   0.942292  1.633190  0.246799
       Atomic Center    8 is at   2.693601 -1.125791 -0.392571
     759 points will be used for fitting atomic charges
 Fitting point charges to eletrostatic potential
 Charges from ESP fit, RMS=   0.00787 RRMS=   0.05006:
 Charge=   1.00000 Dipole=    -6.1193     1.2832    -5.2244 Tot=     8.1479
              1
     1  O   -0.704874
     2  O   -1.521324
     3  O   -1.138323
     4  O   -0.860259
     5  P    0.353405
     6  Ca   1.574971
     7  Ca   1.689956
     8  Ca   1.606449
 -----------------------------------------------------------------

              Electrostatic Properties (Atomic Units)

 -----------------------------------------------------------------
    Center     Electric         -------- Electric Field --------
               Potential          X             Y             Z
 -----------------------------------------------------------------
    1 Atom    -22.255871
    2 Atom    -22.347775
    3 Atom    -22.247422
    4 Atom    -22.254415
    5 Atom    -53.969364
    6 Atom    -79.998155
    7 Atom    -80.083177
    8 Atom    -80.055482
 -----------------------------------------------------------------
 1\1\GINC-N033\SP\RB3LYP\6-31+G(d,p)\Ca3O4P1(1+)\TIMN\12-Jun-2015\0\\# 
 b3lyp/6-31+G(d,p) int=ultrafine pop=(ReadRadii,MK)\\Ca3PO4_165.mol2c_p
 lusQ.z51171.zip.xyz\\1,1\O,0,-1.93766,-1.51252,0.04274\O,0,2.87069,0.9
 8622,-0.47242\O,0,-1.27017,0.91126,0.42619\O,0,0.58344,-0.82685,0.3385
 \P,0,-0.90057,-0.72074,0.97232\Ca,0,-3.05899,0.20991,-0.71747\Ca,0,0.9
 4229,1.63319,0.2468\Ca,0,2.6936,-1.12579,-0.39257\\Version=EM64T-G03Re
 vE.01\State=1-A\HF=-2674.9949761\RMSD=7.406e-05\Thermal=0.\Dipole=-2.3
 320756,0.4774031,-1.9331315\PG=C01 [X(Ca3O4P1)]\\@


 THE NUMBERS ARE MEANINGLESS, BUT THE TRENDS ARE IMPORTANT.
     -- LARRY BURGGRAF
 Job cpu time:  0 days  0 hours  1 minutes 43.6 seconds.
 File lengths (MBytes):  RWF=     32 Int=      0 D2E=      0 Chk=     11 Scr=      1
 Normal termination of Gaussian 03 at Fri Jun 12 17:39:08 2015.
