 Entering Gaussian System, Link 0=/home/timn/tmp/g03.e01/g03
 Input=Ca3PO4_70.mol2c_plusQ.z51486.zip.xyz.gjf
 Output=Ca3PO4_70.mol2c_plusQ.z51486.zip.xyz.out
 Initial command:
 /home/timn/tmp/g03.e01/l1.exe /home/timn/tmp/g03.e01/Gau-18378.inp -scrdir=/home/timn/tmp/g03.e01/
 Default is to use a total of   2 processors:
                                2 via shared-memory
                                1 via Linda
 Entering Link 1 = /home/timn/tmp/g03.e01/l1.exe PID=     18379.
  
 Copyright (c) 1988,1990,1992,1993,1995,1998,2003,2004,2007, Gaussian, Inc.
                  All Rights Reserved.
  
 This is the Gaussian(R) 03 program.  It is based on the
 the Gaussian(R) 98 system (copyright 1998, Gaussian, Inc.),
 the Gaussian(R) 94 system (copyright 1995, Gaussian, Inc.),
 the Gaussian 92(TM) system (copyright 1992, Gaussian, Inc.),
 the Gaussian 90(TM) system (copyright 1990, Gaussian, Inc.),
 the Gaussian 88(TM) system (copyright 1988, Gaussian, Inc.),
 the Gaussian 86(TM) system (copyright 1986, Carnegie Mellon
 University), and the Gaussian 82(TM) system (copyright 1983,
 Carnegie Mellon University). Gaussian is a federally registered
 trademark of Gaussian, Inc.
  
 This software contains proprietary and confidential information,
 including trade secrets, belonging to Gaussian, Inc.
  
 This software is provided under written license and may be
 used, copied, transmitted, or stored only in accord with that
 written license.
  
 The following legend is applicable only to US Government
 contracts under FAR:
  
                    RESTRICTED RIGHTS LEGEND
  
 Use, reproduction and disclosure by the US Government is
 subject to restrictions as set forth in subparagraphs (a)
 and (c) of the Commercial Computer Software - Restricted
 Rights clause in FAR 52.227-19.
  
 Gaussian, Inc.
 340 Quinnipiac St., Bldg. 40, Wallingford CT 06492
  
  
 ---------------------------------------------------------------
 Warning -- This program may not be used in any manner that
 competes with the business of Gaussian, Inc. or will provide
 assistance to any competitor of Gaussian, Inc.  The licensee
 of this program is prohibited from giving any competitor of
 Gaussian, Inc. access to this program.  By using this program,
 the user acknowledges that Gaussian, Inc. is engaged in the
 business of creating and licensing software in the field of
 computational chemistry and represents and warrants to the
 licensee that it is not a competitor of Gaussian, Inc. and that
 it will not use this program in any manner prohibited above.
 ---------------------------------------------------------------
  

 Cite this work as:
 Gaussian 03, Revision E.01,
 M. J. Frisch, G. W. Trucks, H. B. Schlegel, G. E. Scuseria, 
 M. A. Robb, J. R. Cheeseman, J. A. Montgomery, Jr., T. Vreven, 
 K. N. Kudin, J. C. Burant, J. M. Millam, S. S. Iyengar, J. Tomasi, 
 V. Barone, B. Mennucci, M. Cossi, G. Scalmani, N. Rega, 
 G. A. Petersson, H. Nakatsuji, M. Hada, M. Ehara, K. Toyota, 
 R. Fukuda, J. Hasegawa, M. Ishida, T. Nakajima, Y. Honda, O. Kitao, 
 H. Nakai, M. Klene, X. Li, J. E. Knox, H. P. Hratchian, J. B. Cross, 
 V. Bakken, C. Adamo, J. Jaramillo, R. Gomperts, R. E. Stratmann, 
 O. Yazyev, A. J. Austin, R. Cammi, C. Pomelli, J. W. Ochterski, 
 P. Y. Ayala, K. Morokuma, G. A. Voth, P. Salvador, J. J. Dannenberg, 
 V. G. Zakrzewski, S. Dapprich, A. D. Daniels, M. C. Strain, 
 O. Farkas, D. K. Malick, A. D. Rabuck, K. Raghavachari, 
 J. B. Foresman, J. V. Ortiz, Q. Cui, A. G. Baboul, S. Clifford, 
 J. Cioslowski, B. B. Stefanov, G. Liu, A. Liashenko, P. Piskorz, 
 I. Komaromi, R. L. Martin, D. J. Fox, T. Keith, M. A. Al-Laham, 
 C. Y. Peng, A. Nanayakkara, M. Challacombe, P. M. W. Gill, 
 B. Johnson, W. Chen, M. W. Wong, C. Gonzalez, and J. A. Pople, 
 Gaussian, Inc., Wallingford CT, 2004.
 
 ******************************************
 Gaussian 03:  EM64T-G03RevE.01 11-Sep-2007
                12-Jun-2015 
 ******************************************
 %nproc=2
 Will use up to    2 processors via shared memory.
 Default route:  MP2=Direct MaxDisk=2000MB
 ----------------------------------------------------
 # b3lyp/6-31+G(d,p) int=ultrafine pop=(ReadRadii,MK)
 ----------------------------------------------------

 Warning!  SCF SP cutoffs with diffuse functions may be unreliable.
 Consider SCF=Tight

 1/38=1/1;
 2/17=6,18=5,40=1/2;
 3/5=1,6=6,7=111,11=2,16=1,25=1,30=1,74=-5,75=5/1,2,3;
 4//1;
 5/5=2,32=1,38=5/2;
 6/7=2,8=2,9=2,10=2,15=8,20=101,28=1/1,2;
 99/5=1,9=1/99;
 ------------------------------------
 Ca3PO4_70.mol2c_plusQ.z51486.zip.xyz
 ------------------------------------
 Symbolic Z-matrix:
 Charge =  1 Multiplicity = 1
 O                    -0.90087   1.17667   0.92125 
 O                    -0.56871  -1.36673   0.92304 
 O                     1.46818   0.19217   0.92321 
 O                     0.00122  -0.00176  -1.71155 
 P                    -0.00139   0.00103   1.71837 
 Ca                    1.18333  -1.5449   -0.56893 
 Ca                   -1.92918  -0.25224  -0.57129 
 Ca                    0.74698   1.79623  -0.57094 
 
                          Input orientation:                          
 ---------------------------------------------------------------------
 Center     Atomic     Atomic              Coordinates (Angstroms)
 Number     Number      Type              X           Y           Z
 ---------------------------------------------------------------------
    1          8             0       -0.900870    1.176670    0.921250
    2          8             0       -0.568710   -1.366730    0.923040
    3          8             0        1.468180    0.192170    0.923210
    4          8             0        0.001220   -0.001760   -1.711550
    5         15             0       -0.001390    0.001030    1.718370
    6         20             0        1.183330   -1.544900   -0.568930
    7         20             0       -1.929180   -0.252240   -0.571290
    8         20             0        0.746980    1.796230   -0.570940
 ---------------------------------------------------------------------
                    Distance matrix (angstroms):
                    1          2          3          4          5
     1  O    0.000000
     2  O    2.564998   0.000000
     3  O    2.565471   2.564974   0.000000
     4  O    3.022267   3.021428   3.021844   0.000000
     5  P    1.681248   1.680824   1.681800   3.429922   0.000000
     6  Ca   3.737843   2.308108   2.307603   2.254827   3.004197
     7  Ca   2.308004   2.307810   3.738059   2.255965   3.003841
     8  Ca   2.307790   3.737289   2.307731   2.256084   3.003954
                    6          7          8
     6  Ca   0.000000
     7  Ca   3.370266   0.000000
     8  Ca   3.369504   3.370172   0.000000
 Stoichiometry    Ca3O4P(1+)
 Framework group  C1[X(Ca3O4P)]
 Deg. of freedom    18
 Full point group                 C1
 Largest Abelian subgroup         C1      NOp   1
 Largest concise Abelian subgroup C1      NOp   1
                         Standard orientation:                         
 ---------------------------------------------------------------------
 Center     Atomic     Atomic              Coordinates (Angstroms)
 Number     Number      Type              X           Y           Z
 ---------------------------------------------------------------------
    1          8             0       -0.903971    1.174291    0.921250
    2          8             0       -0.565109   -1.368224    0.923040
    3          8             0        1.467666    0.196038    0.923210
    4          8             0        0.001222   -0.001757   -1.711550
    5         15             0       -0.001396    0.001026    1.718370
    6         20             0        1.187394   -1.541777   -0.568930
    7         20             0       -1.928511   -0.257324   -0.571290
    8         20             0        0.742241    1.798192   -0.570940
 ---------------------------------------------------------------------
 Rotational constants (GHZ):      1.0156047      1.0153072      0.9039277
 Standard basis: 6-31+G(d,p) (6D, 7F)
 There are   180 symmetry adapted basis functions of A   symmetry.
 Integral buffers will be    131072 words long.
 Raffenetti 2 integral format.
 Two-electron integral symmetry is turned on.
   180 basis functions,   424 primitive gaussians,   180 cartesian basis functions
    53 alpha electrons       53 beta electrons
       nuclear repulsion energy       952.7173210986 Hartrees.
 NAtoms=    8 NActive=    8 NUniq=    8 SFac= 7.50D-01 NAtFMM=   80 NAOKFM=F Big=F
 One-electron integrals computed using PRISM.
 NBasis=   180 RedAO= T  NBF=   180
 NBsUse=   180 1.00D-06 NBFU=   180
 Harris functional with IExCor=  402 diagonalized for initial guess.
 ExpMin= 7.10D-03 ExpMax= 3.53D+04 ExpMxC= 5.30D+03 IAcc=3 IRadAn=         5 AccDes= 0.00D+00
 HarFok:  IExCor= 402 AccDes= 0.00D+00 IRadAn=         5 IDoV=1
 ScaDFX=  1.000000  1.000000  1.000000  1.000000
 Initial guess orbital symmetries:
       Occupied  (A) (A) (A) (A) (A) (A) (A) (A) (A) (A) (A) (A)
                 (A) (A) (A) (A) (A) (A) (A) (A) (A) (A) (A) (A)
                 (A) (A) (A) (A) (A) (A) (A) (A) (A) (A) (A) (A)
                 (A) (A) (A) (A) (A) (A) (A) (A) (A) (A) (A) (A)
                 (A) (A) (A) (A) (A)
       Virtual   (A) (A) (A) (A) (A) (A) (A) (A) (A) (A) (A) (A)
                 (A) (A) (A) (A) (A) (A) (A) (A) (A) (A) (A) (A)
                 (A) (A) (A) (A) (A) (A) (A) (A) (A) (A) (A) (A)
                 (A) (A) (A) (A) (A) (A) (A) (A) (A) (A) (A) (A)
                 (A) (A) (A) (A) (A) (A) (A) (A) (A) (A) (A) (A)
                 (A) (A) (A) (A) (A) (A) (A) (A) (A) (A) (A) (A)
                 (A) (A) (A) (A) (A) (A) (A) (A) (A) (A) (A) (A)
                 (A) (A) (A) (A) (A) (A) (A) (A) (A) (A) (A) (A)
                 (A) (A) (A) (A) (A) (A) (A) (A) (A) (A) (A) (A)
                 (A) (A) (A) (A) (A) (A) (A) (A) (A) (A) (A) (A)
                 (A) (A) (A) (A) (A) (A) (A)
 The electronic state of the initial guess is 1-A.
 Requested convergence on RMS density matrix=1.00D-04 within 128 cycles.
 Requested convergence on MAX density matrix=1.00D-02.
 Requested convergence on             energy=1.00D-02.
 No special actions if energy rises.
 SCF Done:  E(RB+HF-LYP) =  -2675.07103838     A.U. after    8 cycles
             Convg  =    0.8229D-04             -V/T =  2.0028
             S**2   =   0.0000

 **********************************************************************

            Population analysis using the SCF density.

 **********************************************************************

 Orbital symmetries:
       Occupied  (A) (A) (A) (A) (A) (A) (A) (A) (A) (A) (A) (A)
                 (A) (A) (A) (A) (A) (A) (A) (A) (A) (A) (A) (A)
                 (A) (A) (A) (A) (A) (A) (A) (A) (A) (A) (A) (A)
                 (A) (A) (A) (A) (A) (A) (A) (A) (A) (A) (A) (A)
                 (A) (A) (A) (A) (A)
       Virtual   (A) (A) (A) (A) (A) (A) (A) (A) (A) (A) (A) (A)
                 (A) (A) (A) (A) (A) (A) (A) (A) (A) (A) (A) (A)
                 (A) (A) (A) (A) (A) (A) (A) (A) (A) (A) (A) (A)
                 (A) (A) (A) (A) (A) (A) (A) (A) (A) (A) (A) (A)
                 (A) (A) (A) (A) (A) (A) (A) (A) (A) (A) (A) (A)
                 (A) (A) (A) (A) (A) (A) (A) (A) (A) (A) (A) (A)
                 (A) (A) (A) (A) (A) (A) (A) (A) (A) (A) (A) (A)
                 (A) (A) (A) (A) (A) (A) (A) (A) (A) (A) (A) (A)
                 (A) (A) (A) (A) (A) (A) (A) (A) (A) (A) (A) (A)
                 (A) (A) (A) (A) (A) (A) (A) (A) (A) (A) (A) (A)
                 (A) (A) (A) (A) (A) (A) (A)
 The electronic state is 1-A.
 Alpha  occ. eigenvalues -- -145.49644-145.49635-145.49623 -77.25059 -19.21245
 Alpha  occ. eigenvalues --  -19.21238 -19.21185 -19.15941 -15.56478 -15.56470
 Alpha  occ. eigenvalues --  -15.56459 -12.69676 -12.69668 -12.69657 -12.69654
 Alpha  occ. eigenvalues --  -12.69646 -12.69634 -12.69606 -12.69599 -12.69587
 Alpha  occ. eigenvalues --   -6.70088  -4.86437  -4.86437  -4.85900  -1.93822
 Alpha  occ. eigenvalues --   -1.93741  -1.93731  -1.22375  -1.21696  -1.21690
 Alpha  occ. eigenvalues --   -1.21305  -1.21137  -1.21065  -1.21058  -1.20644
 Alpha  occ. eigenvalues --   -1.20635  -1.06748  -1.00363  -1.00333  -0.90944
 Alpha  occ. eigenvalues --   -0.62642  -0.50525  -0.50516  -0.47954  -0.43353
 Alpha  occ. eigenvalues --   -0.43350  -0.38348  -0.38332  -0.38173  -0.36141
 Alpha  occ. eigenvalues --   -0.36139  -0.34596  -0.30863
 Alpha virt. eigenvalues --   -0.19949  -0.18028  -0.18023  -0.12556  -0.12552
 Alpha virt. eigenvalues --   -0.10893  -0.09479  -0.09475  -0.08337  -0.07771
 Alpha virt. eigenvalues --   -0.06545  -0.06114  -0.06113  -0.04765  -0.04717
 Alpha virt. eigenvalues --   -0.04715  -0.04672  -0.04475  -0.04473  -0.04003
 Alpha virt. eigenvalues --   -0.04003  -0.03231  -0.02944  -0.02943  -0.02360
 Alpha virt. eigenvalues --   -0.02357  -0.00867   0.01028   0.02176   0.02616
 Alpha virt. eigenvalues --    0.02619   0.04573   0.04575   0.05227   0.06003
 Alpha virt. eigenvalues --    0.06005   0.06293   0.06296   0.07292   0.07292
 Alpha virt. eigenvalues --    0.07383   0.07665   0.07668   0.07823   0.08460
 Alpha virt. eigenvalues --    0.10683   0.10691   0.11328   0.11807   0.13657
 Alpha virt. eigenvalues --    0.15681   0.15685   0.19891   0.19893   0.20370
 Alpha virt. eigenvalues --    0.22088   0.22091   0.23481   0.23995   0.25319
 Alpha virt. eigenvalues --    0.25959   0.25961   0.30030   0.31452   0.31456
 Alpha virt. eigenvalues --    0.35746   0.36001   0.36014   0.37873   0.39072
 Alpha virt. eigenvalues --    0.39087   0.39777   0.45827   0.45849   0.53630
 Alpha virt. eigenvalues --    0.53638   0.55844   0.63365   0.63369   0.67679
 Alpha virt. eigenvalues --    0.82897   0.86955   0.86965   0.94076   0.94109
 Alpha virt. eigenvalues --    1.14552   1.16751   1.16762   1.18028   1.20786
 Alpha virt. eigenvalues --    1.21966   1.21980   1.23401   1.23411   1.28208
 Alpha virt. eigenvalues --    1.34163   1.34180   1.36435   1.54449   1.54473
 Alpha virt. eigenvalues --    1.57781   1.68378   1.71620   1.73138   1.73154
 Alpha virt. eigenvalues --    1.77478   1.77488   1.87082   1.87368   1.87379
 Alpha virt. eigenvalues --    1.88078   1.92060   1.92075   1.93317   1.98433
 Alpha virt. eigenvalues --    1.98441   2.03021   2.03032   2.14777   2.38129
 Alpha virt. eigenvalues --    2.55073   2.55152   3.54377   4.05636   4.14266
 Alpha virt. eigenvalues --    4.14300   4.31227
          Condensed to atoms (all electrons):
              1          2          3          4          5          6
     1  O    8.965963   0.058652   0.058508   0.023977  -0.200590   0.006234
     2  O    0.058652   8.965841   0.058492   0.024014  -0.200594   0.059748
     3  O    0.058508   0.058492   8.964758   0.023962  -0.199849   0.059897
     4  O    0.023977   0.024014   0.023962   8.852745  -0.039954   0.122167
     5  P   -0.200590  -0.200594  -0.199849  -0.039954  14.441667   0.033755
     6  Ca   0.006234   0.059748   0.059897   0.122167   0.033755  18.397043
     7  Ca   0.059803   0.059799   0.006216   0.122111   0.033910  -0.047659
     8  Ca   0.059834   0.006244   0.059963   0.122053   0.033699  -0.047645
              7          8
     1  O    0.059803   0.059834
     2  O    0.059799   0.006244
     3  O    0.006216   0.059963
     4  O    0.122111   0.122053
     5  P    0.033910   0.033699
     6  Ca  -0.047659  -0.047645
     7  Ca  18.396842  -0.047689
     8  Ca  -0.047689  18.397024
 Mulliken atomic charges:
              1
     1  O   -1.032382
     2  O   -1.032196
     3  O   -1.031947
     4  O   -1.251075
     5  P    1.097956
     6  Ca   1.416460
     7  Ca   1.416667
     8  Ca   1.416517
 Sum of Mulliken charges=   1.00000
 Atomic charges with hydrogens summed into heavy atoms:
              1
     1  O   -1.032382
     2  O   -1.032196
     3  O   -1.031947
     4  O   -1.251075
     5  P    1.097956
     6  Ca   1.416460
     7  Ca   1.416667
     8  Ca   1.416517
 Sum of Mulliken charges=   1.00000
 Electronic spatial extent (au):  <R**2>=  1510.0589
 Charge=     1.0000 electrons
 Dipole moment (field-independent basis, Debye):
    X=     0.0029    Y=    -0.0044    Z=    -8.2363  Tot=     8.2363
 Quadrupole moment (field-independent basis, Debye-Ang):
   XX=   -40.0382   YY=   -40.0564   ZZ=   -89.9984
   XY=     0.0063   XZ=     0.0288   YZ=    -0.0382
 Traceless Quadrupole moment (field-independent basis, Debye-Ang):
   XX=    16.6594   YY=    16.6413   ZZ=   -33.3007
   XY=     0.0063   XZ=     0.0288   YZ=    -0.0382
 Octapole moment (field-independent basis, Debye-Ang**2):
  XXX=   -53.9784  YYY=    22.5752  ZZZ=    -1.7236  XYY=    54.0398
  XXY=   -22.7090  XXZ=   -46.7185  XZZ=    -0.0565  YZZ=     0.0605
  YYZ=   -46.6601  XYZ=    -0.0411
 Hexadecapole moment (field-independent basis, Debye-Ang**3):
 XXXX=  -416.1892 YYYY=  -416.0147 ZZZZ=  -721.6730 XXXY=     0.0115
 XXXZ=    14.3365 YYYX=     0.0099 YYYZ=    -6.1155 ZZZX=     0.1354
 ZZZY=    -0.1728 XXYY=  -138.6722 XXZZ=  -187.6040 YYZZ=  -187.5806
 XXYZ=     5.9302 YYXZ=   -14.1897 ZZXY=     0.0225
 N-N= 9.527173210986D+02 E-N=-8.229908755271D+03  KE= 2.667693546819D+03
 Merz-Kollman atomic radii used.
 Read replacement radii for each type of atom:
 Rad(20) =   1.188000000000D+00
 Atom Element Radius
    1     8    1.40
    2     8    1.40
    3     8    1.40
    4     8    1.40
    5    15    1.80
    6    20    1.19
    7    20    1.19
    8    20    1.19

 **********************************************************************

            Electrostatic Properties Using The SCF Density

 **********************************************************************

       Atomic Center    1 is at  -0.903971  1.174291  0.921250
       Atomic Center    2 is at  -0.565109 -1.368224  0.923040
       Atomic Center    3 is at   1.467666  0.196038  0.923210
       Atomic Center    4 is at   0.001222 -0.001757 -1.711550
       Atomic Center    5 is at  -0.001396  0.001026  1.718370
       Atomic Center    6 is at   1.187394 -1.541777 -0.568930
       Atomic Center    7 is at  -1.928511 -0.257324 -0.571290
       Atomic Center    8 is at   0.742241  1.798192 -0.570940
     687 points will be used for fitting atomic charges
 Fitting point charges to eletrostatic potential
 Charges from ESP fit, RMS=   0.00623 RRMS=   0.03797:
 Charge=   1.00000 Dipole=    -0.0234    -0.0187    -8.4471 Tot=     8.4472
              1
     1  O   -0.948444
     2  O   -0.947364
     3  O   -0.948306
     4  O   -1.636785
     5  P    0.519866
     6  Ca   1.653283
     7  Ca   1.655461
     8  Ca   1.652289
 -----------------------------------------------------------------

              Electrostatic Properties (Atomic Units)

 -----------------------------------------------------------------
    Center     Electric         -------- Electric Field --------
               Potential          X             Y             Z
 -----------------------------------------------------------------
    1 Atom    -22.251699
    2 Atom    -22.251496
    3 Atom    -22.250545
    4 Atom    -22.290702
    5 Atom    -53.967990
    6 Atom    -80.043391
    7 Atom    -80.043261
    8 Atom    -80.043286
 -----------------------------------------------------------------
 1\1\GINC-N027\SP\RB3LYP\6-31+G(d,p)\Ca3O4P1(1+)\TIMN\12-Jun-2015\0\\# 
 b3lyp/6-31+G(d,p) int=ultrafine pop=(ReadRadii,MK)\\Ca3PO4_70.mol2c_pl
 usQ.z51486.zip.xyz\\1,1\O,0,-0.90087,1.17667,0.92125\O,0,-0.56871,-1.3
 6673,0.92304\O,0,1.46818,0.19217,0.92321\O,0,0.00122,-0.00176,-1.71155
 \P,0,-0.00139,0.00103,1.71837\Ca,0,1.18333,-1.5449,-0.56893\Ca,0,-1.92
 918,-0.25224,-0.57129\Ca,0,0.74698,1.79623,-0.57094\\Version=EM64T-G03
 RevE.01\State=1-A\HF=-2675.0710384\RMSD=8.229e-05\Thermal=0.\Dipole=0.
 0011207,-0.001748,-3.2404028\PG=C01 [X(Ca3O4P1)]\\@


 The juvenile sea squirt wanders through the sea searching
 for a suitable rock or hunk of coral to cling to and make
 its home for life.  For this task it has a rudimentary
 nervous system.  When it finds its spot and takes root, it
 doesn't need its brain any more so it eats it.
 It's rather like getting tenure.

                               -- source unknown
 Job cpu time:  0 days  0 hours  1 minutes 43.8 seconds.
 File lengths (MBytes):  RWF=     32 Int=      0 D2E=      0 Chk=     11 Scr=      1
 Normal termination of Gaussian 03 at Fri Jun 12 17:44:55 2015.
