 Entering Gaussian System, Link 0=/home/timn/tmp/g03.e01/g03
 Input=Ca3PO4_215.mol2c_plusQ.z51426.zip.xyz.gjf
 Output=Ca3PO4_215.mol2c_plusQ.z51426.zip.xyz.out
 Initial command:
 /home/timn/tmp/g03.e01/l1.exe /home/timn/tmp/g03.e01/Gau-18720.inp -scrdir=/home/timn/tmp/g03.e01/
 Default is to use a total of   2 processors:
                                2 via shared-memory
                                1 via Linda
 Entering Link 1 = /home/timn/tmp/g03.e01/l1.exe PID=     18721.
  
 Copyright (c) 1988,1990,1992,1993,1995,1998,2003,2004,2007, Gaussian, Inc.
                  All Rights Reserved.
  
 This is the Gaussian(R) 03 program.  It is based on the
 the Gaussian(R) 98 system (copyright 1998, Gaussian, Inc.),
 the Gaussian(R) 94 system (copyright 1995, Gaussian, Inc.),
 the Gaussian 92(TM) system (copyright 1992, Gaussian, Inc.),
 the Gaussian 90(TM) system (copyright 1990, Gaussian, Inc.),
 the Gaussian 88(TM) system (copyright 1988, Gaussian, Inc.),
 the Gaussian 86(TM) system (copyright 1986, Carnegie Mellon
 University), and the Gaussian 82(TM) system (copyright 1983,
 Carnegie Mellon University). Gaussian is a federally registered
 trademark of Gaussian, Inc.
  
 This software contains proprietary and confidential information,
 including trade secrets, belonging to Gaussian, Inc.
  
 This software is provided under written license and may be
 used, copied, transmitted, or stored only in accord with that
 written license.
  
 The following legend is applicable only to US Government
 contracts under FAR:
  
                    RESTRICTED RIGHTS LEGEND
  
 Use, reproduction and disclosure by the US Government is
 subject to restrictions as set forth in subparagraphs (a)
 and (c) of the Commercial Computer Software - Restricted
 Rights clause in FAR 52.227-19.
  
 Gaussian, Inc.
 340 Quinnipiac St., Bldg. 40, Wallingford CT 06492
  
  
 ---------------------------------------------------------------
 Warning -- This program may not be used in any manner that
 competes with the business of Gaussian, Inc. or will provide
 assistance to any competitor of Gaussian, Inc.  The licensee
 of this program is prohibited from giving any competitor of
 Gaussian, Inc. access to this program.  By using this program,
 the user acknowledges that Gaussian, Inc. is engaged in the
 business of creating and licensing software in the field of
 computational chemistry and represents and warrants to the
 licensee that it is not a competitor of Gaussian, Inc. and that
 it will not use this program in any manner prohibited above.
 ---------------------------------------------------------------
  

 Cite this work as:
 Gaussian 03, Revision E.01,
 M. J. Frisch, G. W. Trucks, H. B. Schlegel, G. E. Scuseria, 
 M. A. Robb, J. R. Cheeseman, J. A. Montgomery, Jr., T. Vreven, 
 K. N. Kudin, J. C. Burant, J. M. Millam, S. S. Iyengar, J. Tomasi, 
 V. Barone, B. Mennucci, M. Cossi, G. Scalmani, N. Rega, 
 G. A. Petersson, H. Nakatsuji, M. Hada, M. Ehara, K. Toyota, 
 R. Fukuda, J. Hasegawa, M. Ishida, T. Nakajima, Y. Honda, O. Kitao, 
 H. Nakai, M. Klene, X. Li, J. E. Knox, H. P. Hratchian, J. B. Cross, 
 V. Bakken, C. Adamo, J. Jaramillo, R. Gomperts, R. E. Stratmann, 
 O. Yazyev, A. J. Austin, R. Cammi, C. Pomelli, J. W. Ochterski, 
 P. Y. Ayala, K. Morokuma, G. A. Voth, P. Salvador, J. J. Dannenberg, 
 V. G. Zakrzewski, S. Dapprich, A. D. Daniels, M. C. Strain, 
 O. Farkas, D. K. Malick, A. D. Rabuck, K. Raghavachari, 
 J. B. Foresman, J. V. Ortiz, Q. Cui, A. G. Baboul, S. Clifford, 
 J. Cioslowski, B. B. Stefanov, G. Liu, A. Liashenko, P. Piskorz, 
 I. Komaromi, R. L. Martin, D. J. Fox, T. Keith, M. A. Al-Laham, 
 C. Y. Peng, A. Nanayakkara, M. Challacombe, P. M. W. Gill, 
 B. Johnson, W. Chen, M. W. Wong, C. Gonzalez, and J. A. Pople, 
 Gaussian, Inc., Wallingford CT, 2004.
 
 ******************************************
 Gaussian 03:  EM64T-G03RevE.01 11-Sep-2007
                12-Jun-2015 
 ******************************************
 %nproc=2
 Will use up to    2 processors via shared memory.
 Default route:  MP2=Direct MaxDisk=2000MB
 ----------------------------------------------------
 # b3lyp/6-31+G(d,p) int=ultrafine pop=(ReadRadii,MK)
 ----------------------------------------------------

 Warning!  SCF SP cutoffs with diffuse functions may be unreliable.
 Consider SCF=Tight

 1/38=1/1;
 2/17=6,18=5,40=1/2;
 3/5=1,6=6,7=111,11=2,16=1,25=1,30=1,74=-5,75=5/1,2,3;
 4//1;
 5/5=2,32=1,38=5/2;
 6/7=2,8=2,9=2,10=2,15=8,20=101,28=1/1,2;
 99/5=1,9=1/99;
 -------------------------------------
 Ca3PO4_215.mol2c_plusQ.z51426.zip.xyz
 -------------------------------------
 Symbolic Z-matrix:
 Charge =  1 Multiplicity = 1
 O                     3.199     0.05257  -0.00852 
 O                     3.12349  -2.58725  -0.00412 
 O                     0.94184  -1.11019   0.00639 
 O                    -3.04214   0.0837    0.01556 
 P                     2.45492  -1.2754   -0.00215 
 Ca                    2.4787    2.24329  -0.0041 
 Ca                   -0.8932    0.27891   0.01348 
 Ca                   -5.11557  -0.14118  -0.01149 
 
                          Input orientation:                          
 ---------------------------------------------------------------------
 Center     Atomic     Atomic              Coordinates (Angstroms)
 Number     Number      Type              X           Y           Z
 ---------------------------------------------------------------------
    1          8             0        3.199000    0.052570   -0.008520
    2          8             0        3.123490   -2.587250   -0.004120
    3          8             0        0.941840   -1.110190    0.006390
    4          8             0       -3.042140    0.083700    0.015560
    5         15             0        2.454920   -1.275400   -0.002150
    6         20             0        2.478700    2.243290   -0.004100
    7         20             0       -0.893200    0.278910    0.013480
    8         20             0       -5.115570   -0.141180   -0.011490
 ---------------------------------------------------------------------
                    Distance matrix (angstroms):
                    1          2          3          4          5
     1  O    0.000000
     2  O    2.640903   0.000000
     3  O    2.539095   2.634656   0.000000
     4  O    6.241264   6.719327   4.159033   0.000000
     5  P    1.522235   1.472393   1.522097   5.662609   0.000000
     6  Ca   2.306102   4.873384   3.688886   5.928228   3.518771
     7  Ca   4.098514   4.934469   2.301526   2.157789   3.691345
     8  Ca   8.316828   8.594500   6.134453   2.085765   7.654989
                    6          7          8
     6  Ca   0.000000
     7  Ca   3.902410   0.000000
     8  Ca   7.959817   4.243290   0.000000
 Stoichiometry    Ca3O4P(1+)
 Framework group  C1[X(Ca3O4P)]
 Deg. of freedom    18
 Full point group                 C1
 Largest Abelian subgroup         C1      NOp   1
 Largest concise Abelian subgroup C1      NOp   1
                         Standard orientation:                         
 ---------------------------------------------------------------------
 Center     Atomic     Atomic              Coordinates (Angstroms)
 Number     Number      Type              X           Y           Z
 ---------------------------------------------------------------------
    1          8             0        3.199001    0.052573   -0.008520
    2          8             0        3.123494   -2.587247   -0.004120
    3          8             0        0.941842   -1.110189    0.006390
    4          8             0       -3.042139    0.083696    0.015560
    5         15             0        2.454922   -1.275397   -0.002150
    6         20             0        2.478698    2.243293   -0.004100
    7         20             0       -0.893200    0.278909    0.013480
    8         20             0       -5.115569   -0.141186   -0.011490
 ---------------------------------------------------------------------
 Rotational constants (GHZ):      1.3218146      0.2537287      0.2128712
 Standard basis: 6-31+G(d,p) (6D, 7F)
 There are   180 symmetry adapted basis functions of A   symmetry.
 Integral buffers will be    131072 words long.
 Raffenetti 2 integral format.
 Two-electron integral symmetry is turned on.
   180 basis functions,   424 primitive gaussians,   180 cartesian basis functions
    53 alpha electrons       53 beta electrons
       nuclear repulsion energy       714.5765857523 Hartrees.
 NAtoms=    8 NActive=    8 NUniq=    8 SFac= 7.50D-01 NAtFMM=   80 NAOKFM=F Big=F
 One-electron integrals computed using PRISM.
 NBasis=   180 RedAO= T  NBF=   180
 NBsUse=   180 1.00D-06 NBFU=   180
 Harris functional with IExCor=  402 diagonalized for initial guess.
 ExpMin= 7.10D-03 ExpMax= 3.53D+04 ExpMxC= 5.30D+03 IAcc=3 IRadAn=         5 AccDes= 0.00D+00
 HarFok:  IExCor= 402 AccDes= 0.00D+00 IRadAn=         5 IDoV=1
 ScaDFX=  1.000000  1.000000  1.000000  1.000000
 Initial guess orbital symmetries:
       Occupied  (A) (A) (A) (A) (A) (A) (A) (A) (A) (A) (A) (A)
                 (A) (A) (A) (A) (A) (A) (A) (A) (A) (A) (A) (A)
                 (A) (A) (A) (A) (A) (A) (A) (A) (A) (A) (A) (A)
                 (A) (A) (A) (A) (A) (A) (A) (A) (A) (A) (A) (A)
                 (A) (A) (A) (A) (A)
       Virtual   (A) (A) (A) (A) (A) (A) (A) (A) (A) (A) (A) (A)
                 (A) (A) (A) (A) (A) (A) (A) (A) (A) (A) (A) (A)
                 (A) (A) (A) (A) (A) (A) (A) (A) (A) (A) (A) (A)
                 (A) (A) (A) (A) (A) (A) (A) (A) (A) (A) (A) (A)
                 (A) (A) (A) (A) (A) (A) (A) (A) (A) (A) (A) (A)
                 (A) (A) (A) (A) (A) (A) (A) (A) (A) (A) (A) (A)
                 (A) (A) (A) (A) (A) (A) (A) (A) (A) (A) (A) (A)
                 (A) (A) (A) (A) (A) (A) (A) (A) (A) (A) (A) (A)
                 (A) (A) (A) (A) (A) (A) (A) (A) (A) (A) (A) (A)
                 (A) (A) (A) (A) (A) (A) (A) (A) (A) (A) (A) (A)
                 (A) (A) (A) (A) (A) (A) (A)
 The electronic state of the initial guess is 1-A.
 Requested convergence on RMS density matrix=1.00D-04 within 128 cycles.
 Requested convergence on MAX density matrix=1.00D-02.
 Requested convergence on             energy=1.00D-02.
 No special actions if energy rises.
 EnCoef did     2 forward-backward iterations
 EnCoef did     4 forward-backward iterations
 EnCoef did     2 forward-backward iterations
 EnCoef did   100 forward-backward iterations
 EnCoef did     2 forward-backward iterations
 EnCoef did     2 forward-backward iterations
 EnCoef did     3 forward-backward iterations
 SCF Done:  E(RB+HF-LYP) =  -2674.91188099     A.U. after   13 cycles
             Convg  =    0.6923D-04             -V/T =  2.0028
             S**2   =   0.0000

 **********************************************************************

            Population analysis using the SCF density.

 **********************************************************************

 Orbital symmetries:
       Occupied  (A) (A) (A) (A) (A) (A) (A) (A) (A) (A) (A) (A)
                 (A) (A) (A) (A) (A) (A) (A) (A) (A) (A) (A) (A)
                 (A) (A) (A) (A) (A) (A) (A) (A) (A) (A) (A) (A)
                 (A) (A) (A) (A) (A) (A) (A) (A) (A) (A) (A) (A)
                 (A) (A) (A) (A) (A)
       Virtual   (A) (A) (A) (A) (A) (A) (A) (A) (A) (A) (A) (A)
                 (A) (A) (A) (A) (A) (A) (A) (A) (A) (A) (A) (A)
                 (A) (A) (A) (A) (A) (A) (A) (A) (A) (A) (A) (A)
                 (A) (A) (A) (A) (A) (A) (A) (A) (A) (A) (A) (A)
                 (A) (A) (A) (A) (A) (A) (A) (A) (A) (A) (A) (A)
                 (A) (A) (A) (A) (A) (A) (A) (A) (A) (A) (A) (A)
                 (A) (A) (A) (A) (A) (A) (A) (A) (A) (A) (A) (A)
                 (A) (A) (A) (A) (A) (A) (A) (A) (A) (A) (A) (A)
                 (A) (A) (A) (A) (A) (A) (A) (A) (A) (A) (A) (A)
                 (A) (A) (A) (A) (A) (A) (A) (A) (A) (A) (A) (A)
                 (A) (A) (A) (A) (A) (A) (A)
 The electronic state is 1-A.
 Alpha  occ. eigenvalues -- -145.54701-145.51479-145.47080 -77.32478 -19.26442
 Alpha  occ. eigenvalues --  -19.26434 -19.24364 -19.15582 -15.61543 -15.58463
 Alpha  occ. eigenvalues --  -15.53988 -12.74758 -12.74758 -12.74612 -12.71651
 Alpha  occ. eigenvalues --  -12.71641 -12.71546 -12.67248 -12.67193 -12.67023
 Alpha  occ. eigenvalues --   -6.77670  -4.94279  -4.93820  -4.93730  -1.98519
 Alpha  occ. eigenvalues --   -1.95518  -1.91252  -1.26081  -1.26077  -1.25232
 Alpha  occ. eigenvalues --   -1.22959  -1.22941  -1.22739  -1.19169  -1.19045
 Alpha  occ. eigenvalues --   -1.18450  -1.14994  -1.07890  -1.07201  -0.89674
 Alpha  occ. eigenvalues --   -0.64318  -0.56447  -0.53250  -0.52730  -0.47106
 Alpha  occ. eigenvalues --   -0.44486  -0.44407  -0.42262  -0.39355  -0.36325
 Alpha  occ. eigenvalues --   -0.33758  -0.33709  -0.26092
 Alpha virt. eigenvalues --   -0.23738  -0.17071  -0.14495  -0.14206  -0.14086
 Alpha virt. eigenvalues --   -0.13818  -0.12581  -0.11425  -0.09608  -0.09528
 Alpha virt. eigenvalues --   -0.09013  -0.07579  -0.07083  -0.06390  -0.05478
 Alpha virt. eigenvalues --   -0.05320  -0.05203  -0.04627  -0.04590  -0.04129
 Alpha virt. eigenvalues --   -0.03433  -0.03380  -0.03123  -0.02682  -0.02256
 Alpha virt. eigenvalues --   -0.02199  -0.00282   0.00158   0.01327   0.01446
 Alpha virt. eigenvalues --    0.02226   0.02542   0.03731   0.04022   0.04532
 Alpha virt. eigenvalues --    0.04543   0.04724   0.05155   0.05910   0.05957
 Alpha virt. eigenvalues --    0.06137   0.06170   0.06600   0.06975   0.07115
 Alpha virt. eigenvalues --    0.07906   0.08701   0.09235   0.09887   0.10076
 Alpha virt. eigenvalues --    0.11679   0.11802   0.12899   0.15186   0.17168
 Alpha virt. eigenvalues --    0.17537   0.18005   0.18468   0.18830   0.21461
 Alpha virt. eigenvalues --    0.23025   0.23787   0.23987   0.24220   0.27659
 Alpha virt. eigenvalues --    0.28466   0.29647   0.30259   0.31055   0.32982
 Alpha virt. eigenvalues --    0.34842   0.37521   0.38843   0.41239   0.47951
 Alpha virt. eigenvalues --    0.56745   0.56819   0.57591   0.57639   0.61088
 Alpha virt. eigenvalues --    0.66479   0.83402   0.90360   0.96649   0.98204
 Alpha virt. eigenvalues --    1.07782   1.09315   1.09460   1.12989   1.13915
 Alpha virt. eigenvalues --    1.15912   1.16804   1.19462   1.21869   1.24096
 Alpha virt. eigenvalues --    1.26131   1.31739   1.36268   1.40431   1.43205
 Alpha virt. eigenvalues --    1.45678   1.51683   1.66818   1.67993   1.69035
 Alpha virt. eigenvalues --    1.69667   1.71288   1.76361   1.77664   1.78189
 Alpha virt. eigenvalues --    1.78279   1.82805   1.83994   1.86445   1.93731
 Alpha virt. eigenvalues --    2.01912   2.07688   2.20241   2.20889   2.59860
 Alpha virt. eigenvalues --    2.73395   2.80780   3.39485   3.85642   3.92904
 Alpha virt. eigenvalues --    3.97907   4.00785
          Condensed to atoms (all electrons):
              1          2          3          4          5          6
     1  O    9.068316  -0.130259  -0.274922  -0.000032   0.225179  -0.079401
     2  O   -0.130259   8.502095  -0.155920   0.000026   0.420793  -0.023495
     3  O   -0.274922  -0.155920   9.307516   0.001973   0.067336  -0.130117
     4  O   -0.000032   0.000026   0.001973   8.765358  -0.001435  -0.009929
     5  P    0.225179   0.420793   0.067336  -0.001435  12.699503   0.059584
     6  Ca  -0.079401  -0.023495  -0.130117  -0.009929   0.059584  19.495725
     7  Ca  -0.103349   0.004722  -0.047149   0.194726   0.043612   0.271577
     8  Ca  -0.001590   0.005578  -0.008546   0.232205   0.001171  -0.040465
              7          8
     1  O   -0.103349  -0.001590
     2  O    0.004722   0.005578
     3  O   -0.047149  -0.008546
     4  O    0.194726   0.232205
     5  P    0.043612   0.001171
     6  Ca   0.271577  -0.040465
     7  Ca  18.607364  -0.003454
     8  Ca  -0.003454  18.517288
 Mulliken atomic charges:
              1
     1  O   -0.703942
     2  O   -0.623539
     3  O   -0.760170
     4  O   -1.182891
     5  P    1.484257
     6  Ca   0.456521
     7  Ca   1.031951
     8  Ca   1.297812
 Sum of Mulliken charges=   1.00000
 Atomic charges with hydrogens summed into heavy atoms:
              1
     1  O   -0.703942
     2  O   -0.623539
     3  O   -0.760170
     4  O   -1.182891
     5  P    1.484257
     6  Ca   0.456521
     7  Ca   1.031951
     8  Ca   1.297812
 Sum of Mulliken charges=   1.00000
 Electronic spatial extent (au):  <R**2>=  4315.2807
 Charge=     1.0000 electrons
 Dipole moment (field-independent basis, Debye):
    X=   -16.2993    Y=     6.4337    Z=    -0.0908  Tot=    17.5233
 Quadrupole moment (field-independent basis, Debye-Ang):
   XX=    40.0749   YY=   -79.3951   ZZ=   -77.0810
   XY=    31.3532   XZ=     0.5159   YZ=    -0.0288
 Traceless Quadrupole moment (field-independent basis, Debye-Ang):
   XX=    78.8753   YY=   -40.5947   ZZ=   -38.2806
   XY=    31.3532   XZ=     0.5159   YZ=    -0.0288
 Octapole moment (field-independent basis, Debye-Ang**2):
  XXX=  -710.4012  YYY=    22.8320  ZZZ=    -0.0952  XYY=     0.9381
  XXY=    48.7719  XXZ=    -2.2275  XZZ=   -11.7693  YZZ=   -13.8318
  YYZ=    -0.1574  XYZ=    -0.2194
 Hexadecapole moment (field-independent basis, Debye-Ang**3):
 XXXX=  -533.1506 YYYY= -1133.9968 ZZZZ=  -141.7468 XXXY=   379.4378
 XXXZ=    10.9605 YYYX=   178.7643 YYYZ=    -0.4165 ZZZX=     0.4940
 ZZZY=    -0.0407 XXYY=  -808.2211 XXZZ=  -690.5916 YYZZ=  -206.4594
 XXYZ=    -0.4253 YYXZ=    -0.0261 ZZXY=   -12.0644
 N-N= 7.145765857523D+02 E-N=-7.750786687041D+03  KE= 2.667550997411D+03
 Merz-Kollman atomic radii used.
 Read replacement radii for each type of atom:
 Rad(20) =   1.188000000000D+00
 Atom Element Radius
    1     8    1.40
    2     8    1.40
    3     8    1.40
    4     8    1.40
    5    15    1.80
    6    20    1.19
    7    20    1.19
    8    20    1.19

 **********************************************************************

            Electrostatic Properties Using The SCF Density

 **********************************************************************

       Atomic Center    1 is at   3.199001  0.052573 -0.008520
       Atomic Center    2 is at   3.123494 -2.587247 -0.004120
       Atomic Center    3 is at   0.941842 -1.110189  0.006390
       Atomic Center    4 is at  -3.042139  0.083696  0.015560
       Atomic Center    5 is at   2.454922 -1.275397 -0.002150
       Atomic Center    6 is at   2.478698  2.243293 -0.004100
       Atomic Center    7 is at  -0.893200  0.278909  0.013480
       Atomic Center    8 is at  -5.115569 -0.141186 -0.011490
     869 points will be used for fitting atomic charges
 Fitting point charges to eletrostatic potential
 Charges from ESP fit, RMS=   0.02429 RRMS=   0.16125:
 Charge=   1.00000 Dipole=   -17.6344     9.8279    -0.1087 Tot=    20.1884
              1
     1  O   -0.062405
     2  O   -0.265170
     3  O   -0.042859
     4  O   -1.195451
     5  P   -0.108454
     6  Ca   0.545316
     7  Ca   0.844520
     8  Ca   1.284502
 -----------------------------------------------------------------

              Electrostatic Properties (Atomic Units)

 -----------------------------------------------------------------
    Center     Electric         -------- Electric Field --------
               Potential          X             Y             Z
 -----------------------------------------------------------------
    1 Atom    -22.201700
    2 Atom    -22.226694
    3 Atom    -22.197411
    4 Atom    -22.309969
    5 Atom    -53.882985
    6 Atom    -80.031761
    7 Atom    -80.069773
    8 Atom    -79.993590
 -----------------------------------------------------------------
 1\1\GINC-N026\SP\RB3LYP\6-31+G(d,p)\Ca3O4P1(1+)\TIMN\12-Jun-2015\0\\# 
 b3lyp/6-31+G(d,p) int=ultrafine pop=(ReadRadii,MK)\\Ca3PO4_215.mol2c_p
 lusQ.z51426.zip.xyz\\1,1\O,0,3.199,0.05257,-0.00852\O,0,3.12349,-2.587
 25,-0.00412\O,0,0.94184,-1.11019,0.00639\O,0,-3.04214,0.0837,0.01556\P
 ,0,2.45492,-1.2754,-0.00215\Ca,0,2.4787,2.24329,-0.0041\Ca,0,-0.8932,0
 .27891,0.01348\Ca,0,-5.11557,-0.14118,-0.01149\\Version=EM64T-G03RevE.
 01\State=1-A\HF=-2674.911881\RMSD=6.923e-05\Thermal=0.\Dipole=-6.41262
 86,2.5312041,-0.0357098\PG=C01 [X(Ca3O4P1)]\\@


 NO MATTER HOW THIN YOU SLICE IT, IT'S STILL BALONEY

                                   -- ALFRED E. SMITH
 Job cpu time:  0 days  0 hours  1 minutes 60.0 seconds.
 File lengths (MBytes):  RWF=     32 Int=      0 D2E=      0 Chk=     11 Scr=      1
 Normal termination of Gaussian 03 at Fri Jun 12 17:42:10 2015.
