 Entering Gaussian System, Link 0=/home/timn/tmp/g03.e01/g03
 Input=Ca3PO4_10.mol2_plusQ.z51110.zip.xyz.gjf
 Output=Ca3PO4_10.mol2_plusQ.z51110.zip.xyz.out
 Initial command:
 /home/timn/tmp/g03.e01/l1.exe /home/timn/tmp/g03.e01/Gau-11515.inp -scrdir=/home/timn/tmp/g03.e01/
 Default is to use a total of   2 processors:
                                2 via shared-memory
                                1 via Linda
 Entering Link 1 = /home/timn/tmp/g03.e01/l1.exe PID=     11516.
  
 Copyright (c) 1988,1990,1992,1993,1995,1998,2003,2004,2007, Gaussian, Inc.
                  All Rights Reserved.
  
 This is the Gaussian(R) 03 program.  It is based on the
 the Gaussian(R) 98 system (copyright 1998, Gaussian, Inc.),
 the Gaussian(R) 94 system (copyright 1995, Gaussian, Inc.),
 the Gaussian 92(TM) system (copyright 1992, Gaussian, Inc.),
 the Gaussian 90(TM) system (copyright 1990, Gaussian, Inc.),
 the Gaussian 88(TM) system (copyright 1988, Gaussian, Inc.),
 the Gaussian 86(TM) system (copyright 1986, Carnegie Mellon
 University), and the Gaussian 82(TM) system (copyright 1983,
 Carnegie Mellon University). Gaussian is a federally registered
 trademark of Gaussian, Inc.
  
 This software contains proprietary and confidential information,
 including trade secrets, belonging to Gaussian, Inc.
  
 This software is provided under written license and may be
 used, copied, transmitted, or stored only in accord with that
 written license.
  
 The following legend is applicable only to US Government
 contracts under FAR:
  
                    RESTRICTED RIGHTS LEGEND
  
 Use, reproduction and disclosure by the US Government is
 subject to restrictions as set forth in subparagraphs (a)
 and (c) of the Commercial Computer Software - Restricted
 Rights clause in FAR 52.227-19.
  
 Gaussian, Inc.
 340 Quinnipiac St., Bldg. 40, Wallingford CT 06492
  
  
 ---------------------------------------------------------------
 Warning -- This program may not be used in any manner that
 competes with the business of Gaussian, Inc. or will provide
 assistance to any competitor of Gaussian, Inc.  The licensee
 of this program is prohibited from giving any competitor of
 Gaussian, Inc. access to this program.  By using this program,
 the user acknowledges that Gaussian, Inc. is engaged in the
 business of creating and licensing software in the field of
 computational chemistry and represents and warrants to the
 licensee that it is not a competitor of Gaussian, Inc. and that
 it will not use this program in any manner prohibited above.
 ---------------------------------------------------------------
  

 Cite this work as:
 Gaussian 03, Revision E.01,
 M. J. Frisch, G. W. Trucks, H. B. Schlegel, G. E. Scuseria, 
 M. A. Robb, J. R. Cheeseman, J. A. Montgomery, Jr., T. Vreven, 
 K. N. Kudin, J. C. Burant, J. M. Millam, S. S. Iyengar, J. Tomasi, 
 V. Barone, B. Mennucci, M. Cossi, G. Scalmani, N. Rega, 
 G. A. Petersson, H. Nakatsuji, M. Hada, M. Ehara, K. Toyota, 
 R. Fukuda, J. Hasegawa, M. Ishida, T. Nakajima, Y. Honda, O. Kitao, 
 H. Nakai, M. Klene, X. Li, J. E. Knox, H. P. Hratchian, J. B. Cross, 
 V. Bakken, C. Adamo, J. Jaramillo, R. Gomperts, R. E. Stratmann, 
 O. Yazyev, A. J. Austin, R. Cammi, C. Pomelli, J. W. Ochterski, 
 P. Y. Ayala, K. Morokuma, G. A. Voth, P. Salvador, J. J. Dannenberg, 
 V. G. Zakrzewski, S. Dapprich, A. D. Daniels, M. C. Strain, 
 O. Farkas, D. K. Malick, A. D. Rabuck, K. Raghavachari, 
 J. B. Foresman, J. V. Ortiz, Q. Cui, A. G. Baboul, S. Clifford, 
 J. Cioslowski, B. B. Stefanov, G. Liu, A. Liashenko, P. Piskorz, 
 I. Komaromi, R. L. Martin, D. J. Fox, T. Keith, M. A. Al-Laham, 
 C. Y. Peng, A. Nanayakkara, M. Challacombe, P. M. W. Gill, 
 B. Johnson, W. Chen, M. W. Wong, C. Gonzalez, and J. A. Pople, 
 Gaussian, Inc., Wallingford CT, 2004.
 
 ******************************************
 Gaussian 03:  EM64T-G03RevE.01 11-Sep-2007
                12-Jun-2015 
 ******************************************
 %nproc=2
 Will use up to    2 processors via shared memory.
 Default route:  MP2=Direct MaxDisk=2000MB
 ----------------------------------------------------
 # b3lyp/6-31+G(d,p) int=ultrafine pop=(ReadRadii,MK)
 ----------------------------------------------------

 Warning!  SCF SP cutoffs with diffuse functions may be unreliable.
 Consider SCF=Tight

 1/38=1/1;
 2/17=6,18=5,40=1/2;
 3/5=1,6=6,7=111,11=2,16=1,25=1,30=1,74=-5,75=5/1,2,3;
 4//1;
 5/5=2,32=1,38=5/2;
 6/7=2,8=2,9=2,10=2,15=8,20=101,28=1/1,2;
 99/5=1,9=1/99;
 -----------------------------------
 Ca3PO4_10.mol2_plusQ.z51110.zip.xyz
 -----------------------------------
 Symbolic Z-matrix:
 Charge =  1 Multiplicity = 1
 O                    -0.3115    1.9043   -0.00102 
 O                    -1.06143  -0.24126  -1.20004 
 O                    -2.92686   1.0286   -0.00169 
 O                    -1.06309  -0.23864   1.20159 
 P                    -1.39974   0.82928  -0.00041 
 Ca                    1.09442   0.00765   0.00183 
 Ca                   -2.85575  -1.29076  -0.00027 
 Ca                    4.95628  -0.32006  -0.00078 
 
                          Input orientation:                          
 ---------------------------------------------------------------------
 Center     Atomic     Atomic              Coordinates (Angstroms)
 Number     Number      Type              X           Y           Z
 ---------------------------------------------------------------------
    1          8             0       -0.311500    1.904300   -0.001020
    2          8             0       -1.061430   -0.241260   -1.200040
    3          8             0       -2.926860    1.028600   -0.001690
    4          8             0       -1.063090   -0.238640    1.201590
    5         15             0       -1.399740    0.829280   -0.000410
    6         20             0        1.094420    0.007650    0.001830
    7         20             0       -2.855750   -1.290760   -0.000270
    8         20             0        4.956280   -0.320060   -0.000780
 ---------------------------------------------------------------------
                    Distance matrix (angstroms):
                    1          2          3          4          5
     1  O    0.000000
     2  O    2.569722   0.000000
     3  O    2.758072   2.555077   0.000000
     4  O    2.569698   2.401632   2.554881   0.000000
     5  P    1.529685   1.643053   1.540073   1.642739   0.000000
     6  Ca   2.360911   2.480753   4.148861   2.480914   2.626007
     7  Ca   4.084314   2.400101   2.320450   2.401053   2.571874
     8  Ca   5.718154   6.136552   7.997673   6.138822   6.459100
                    6          7          8
     6  Ca   0.000000
     7  Ca   4.158090   0.000000
     8  Ca   3.875740   7.872107   0.000000
 Stoichiometry    Ca3O4P(1+)
 Framework group  C1[X(Ca3O4P)]
 Deg. of freedom    18
 Full point group                 C1
 Largest Abelian subgroup         C1      NOp   1
 Largest concise Abelian subgroup C1      NOp   1
                         Standard orientation:                         
 ---------------------------------------------------------------------
 Center     Atomic     Atomic              Coordinates (Angstroms)
 Number     Number      Type              X           Y           Z
 ---------------------------------------------------------------------
    1          8             0       -0.311500    1.904302   -0.001022
    2          8             0       -1.061429   -0.241259   -1.200042
    3          8             0       -2.926859    1.028600   -0.001692
    4          8             0       -1.063089   -0.238639    1.201588
    5         15             0       -1.399739    0.829281   -0.000412
    6         20             0        1.094421    0.007653    0.001828
    7         20             0       -2.855748   -1.290760   -0.000272
    8         20             0        4.956282   -0.320055   -0.000782
 ---------------------------------------------------------------------
 Rotational constants (GHZ):      2.3520342      0.3087383      0.2872239
 Standard basis: 6-31+G(d,p) (6D, 7F)
 There are   180 symmetry adapted basis functions of A   symmetry.
 Integral buffers will be    131072 words long.
 Raffenetti 2 integral format.
 Two-electron integral symmetry is turned on.
   180 basis functions,   424 primitive gaussians,   180 cartesian basis functions
    53 alpha electrons       53 beta electrons
       nuclear repulsion energy       823.7375960809 Hartrees.
 NAtoms=    8 NActive=    8 NUniq=    8 SFac= 7.50D-01 NAtFMM=   80 NAOKFM=F Big=F
 One-electron integrals computed using PRISM.
 NBasis=   180 RedAO= T  NBF=   180
 NBsUse=   180 1.00D-06 NBFU=   180
 Harris functional with IExCor=  402 diagonalized for initial guess.
 ExpMin= 7.10D-03 ExpMax= 3.53D+04 ExpMxC= 5.30D+03 IAcc=3 IRadAn=         5 AccDes= 0.00D+00
 HarFok:  IExCor= 402 AccDes= 0.00D+00 IRadAn=         5 IDoV=1
 ScaDFX=  1.000000  1.000000  1.000000  1.000000
 Initial guess orbital symmetries:
       Occupied  (A) (A) (A) (A) (A) (A) (A) (A) (A) (A) (A) (A)
                 (A) (A) (A) (A) (A) (A) (A) (A) (A) (A) (A) (A)
                 (A) (A) (A) (A) (A) (A) (A) (A) (A) (A) (A) (A)
                 (A) (A) (A) (A) (A) (A) (A) (A) (A) (A) (A) (A)
                 (A) (A) (A) (A) (A)
       Virtual   (A) (A) (A) (A) (A) (A) (A) (A) (A) (A) (A) (A)
                 (A) (A) (A) (A) (A) (A) (A) (A) (A) (A) (A) (A)
                 (A) (A) (A) (A) (A) (A) (A) (A) (A) (A) (A) (A)
                 (A) (A) (A) (A) (A) (A) (A) (A) (A) (A) (A) (A)
                 (A) (A) (A) (A) (A) (A) (A) (A) (A) (A) (A) (A)
                 (A) (A) (A) (A) (A) (A) (A) (A) (A) (A) (A) (A)
                 (A) (A) (A) (A) (A) (A) (A) (A) (A) (A) (A) (A)
                 (A) (A) (A) (A) (A) (A) (A) (A) (A) (A) (A) (A)
                 (A) (A) (A) (A) (A) (A) (A) (A) (A) (A) (A) (A)
                 (A) (A) (A) (A) (A) (A) (A) (A) (A) (A) (A) (A)
                 (A) (A) (A) (A) (A) (A) (A)
 The electronic state of the initial guess is 1-A.
 Requested convergence on RMS density matrix=1.00D-04 within 128 cycles.
 Requested convergence on MAX density matrix=1.00D-02.
 Requested convergence on             energy=1.00D-02.
 No special actions if energy rises.
 SCF Done:  E(RB+HF-LYP) =  -2674.96209685     A.U. after    7 cycles
             Convg  =    0.5070D-04             -V/T =  2.0027
             S**2   =   0.0000

 **********************************************************************

            Population analysis using the SCF density.

 **********************************************************************

 Orbital symmetries:
       Occupied  (A) (A) (A) (A) (A) (A) (A) (A) (A) (A) (A) (A)
                 (A) (A) (A) (A) (A) (A) (A) (A) (A) (A) (A) (A)
                 (A) (A) (A) (A) (A) (A) (A) (A) (A) (A) (A) (A)
                 (A) (A) (A) (A) (A) (A) (A) (A) (A) (A) (A) (A)
                 (A) (A) (A) (A) (A)
       Virtual   (A) (A) (A) (A) (A) (A) (A) (A) (A) (A) (A) (A)
                 (A) (A) (A) (A) (A) (A) (A) (A) (A) (A) (A) (A)
                 (A) (A) (A) (A) (A) (A) (A) (A) (A) (A) (A) (A)
                 (A) (A) (A) (A) (A) (A) (A) (A) (A) (A) (A) (A)
                 (A) (A) (A) (A) (A) (A) (A) (A) (A) (A) (A) (A)
                 (A) (A) (A) (A) (A) (A) (A) (A) (A) (A) (A) (A)
                 (A) (A) (A) (A) (A) (A) (A) (A) (A) (A) (A) (A)
                 (A) (A) (A) (A) (A) (A) (A) (A) (A) (A) (A) (A)
                 (A) (A) (A) (A) (A) (A) (A) (A) (A) (A) (A) (A)
                 (A) (A) (A) (A) (A) (A) (A) (A) (A) (A) (A) (A)
                 (A) (A) (A) (A) (A) (A) (A)
 The electronic state is 1-A.
 Alpha  occ. eigenvalues -- -145.55361-145.54624-145.50958 -77.28054 -19.19431
 Alpha  occ. eigenvalues --  -19.19271 -19.19019 -19.19019 -15.62407 -15.61338
 Alpha  occ. eigenvalues --  -15.57783 -12.75546 -12.75546 -12.75530 -12.74532
 Alpha  occ. eigenvalues --  -12.74524 -12.74520 -12.70994 -12.70982 -12.70910
 Alpha  occ. eigenvalues --   -6.72759  -4.89107  -4.89100  -4.89027  -1.99443
 Alpha  occ. eigenvalues --   -1.98237  -1.94840  -1.26700  -1.26700  -1.26527
 Alpha  occ. eigenvalues --   -1.26155  -1.25425  -1.25424  -1.22604  -1.22251
 Alpha  occ. eigenvalues --   -1.22219  -1.09650  -1.02145  -1.00368  -0.98481
 Alpha  occ. eigenvalues --   -0.59140  -0.49972  -0.49851  -0.49234  -0.42351
 Alpha  occ. eigenvalues --   -0.42284  -0.41915  -0.39251  -0.37310  -0.35964
 Alpha  occ. eigenvalues --   -0.34714  -0.32726  -0.31131
 Alpha virt. eigenvalues --   -0.21173  -0.20245  -0.16670  -0.16592  -0.12895
 Alpha virt. eigenvalues --   -0.11307  -0.11114  -0.09785  -0.09601  -0.08867
 Alpha virt. eigenvalues --   -0.07836  -0.06458  -0.06082  -0.05449  -0.05220
 Alpha virt. eigenvalues --   -0.04541  -0.04146  -0.03714  -0.03517  -0.03345
 Alpha virt. eigenvalues --   -0.03271  -0.02535  -0.01991  -0.00392  -0.00101
 Alpha virt. eigenvalues --    0.00779   0.00869   0.01427   0.02087   0.02837
 Alpha virt. eigenvalues --    0.02922   0.03331   0.03443   0.03749   0.03851
 Alpha virt. eigenvalues --    0.04366   0.04483   0.04950   0.05046   0.05364
 Alpha virt. eigenvalues --    0.05913   0.06274   0.06768   0.07152   0.07849
 Alpha virt. eigenvalues --    0.08126   0.09320   0.10930   0.11020   0.11504
 Alpha virt. eigenvalues --    0.12631   0.14336   0.15378   0.16200   0.16918
 Alpha virt. eigenvalues --    0.18422   0.18800   0.20128   0.20368   0.20583
 Alpha virt. eigenvalues --    0.21609   0.23122   0.24341   0.24892   0.27111
 Alpha virt. eigenvalues --    0.30215   0.31181   0.32606   0.33244   0.35007
 Alpha virt. eigenvalues --    0.35205   0.38462   0.39500   0.43231   0.45938
 Alpha virt. eigenvalues --    0.47691   0.53716   0.57705   0.59796   0.60746
 Alpha virt. eigenvalues --    0.70184   0.75174   0.90224   0.93570   1.01450
 Alpha virt. eigenvalues --    1.02134   1.13475   1.15372   1.17225   1.19055
 Alpha virt. eigenvalues --    1.19356   1.22372   1.23587   1.28053   1.28379
 Alpha virt. eigenvalues --    1.29126   1.30533   1.32685   1.47873   1.51622
 Alpha virt. eigenvalues --    1.57460   1.71483   1.73862   1.75779   1.76347
 Alpha virt. eigenvalues --    1.79319   1.81762   1.81888   1.83683   1.85494
 Alpha virt. eigenvalues --    1.85748   1.87642   1.98095   1.99195   2.02598
 Alpha virt. eigenvalues --    2.17488   2.18730   2.28060   2.57155   2.63717
 Alpha virt. eigenvalues --    2.77514   2.85400   3.50688   4.03259   4.06549
 Alpha virt. eigenvalues --    4.16494   4.37982
          Condensed to atoms (all electrons):
              1          2          3          4          5          6
     1  O    8.819896  -0.059359  -0.174570  -0.059411   0.289140  -0.016256
     2  O   -0.059359   8.935864  -0.041794   0.029454  -0.018686   0.078326
     3  O   -0.174570  -0.041794   8.863717  -0.041828   0.142405   0.034281
     4  O   -0.059411   0.029454  -0.041828   8.935797  -0.018692   0.078360
     5  P    0.289140  -0.018686   0.142405  -0.018692  12.914862   0.021376
     6  Ca  -0.016256   0.078326   0.034281   0.078360   0.021376  18.621015
     7  Ca   0.033697   0.085089   0.054828   0.085005   0.073845  -0.058842
     8  Ca  -0.006174   0.003115  -0.000143   0.003045   0.012852   0.285868
              7          8
     1  O    0.033697  -0.006174
     2  O    0.085089   0.003115
     3  O    0.054828  -0.000143
     4  O    0.085005   0.003045
     5  P    0.073845   0.012852
     6  Ca  -0.058842   0.285868
     7  Ca  18.288700  -0.036845
     8  Ca  -0.036845  19.063978
 Mulliken atomic charges:
              1
     1  O   -0.826962
     2  O   -1.012009
     3  O   -0.836898
     4  O   -1.011729
     5  P    1.582899
     6  Ca   0.955872
     7  Ca   1.474523
     8  Ca   0.674303
 Sum of Mulliken charges=   1.00000
 Atomic charges with hydrogens summed into heavy atoms:
              1
     1  O   -0.826962
     2  O   -1.012009
     3  O   -0.836898
     4  O   -1.011729
     5  P    1.582899
     6  Ca   0.955872
     7  Ca   1.474523
     8  Ca   0.674303
 Sum of Mulliken charges=   1.00000
 Electronic spatial extent (au):  <R**2>=  3311.5750
 Charge=     1.0000 electrons
 Dipole moment (field-independent basis, Debye):
    X=     9.0049    Y=   -13.0507    Z=     0.0056  Tot=    15.8559
 Quadrupole moment (field-independent basis, Debye-Ang):
   XX=    39.6646   YY=   -72.6856   ZZ=   -87.4134
   XY=    30.1799   XZ=    -0.0095   YZ=     0.0029
 Traceless Quadrupole moment (field-independent basis, Debye-Ang):
   XX=    79.8094   YY=   -32.5408   ZZ=   -47.2686
   XY=    30.1799   XZ=    -0.0095   YZ=     0.0029
 Octapole moment (field-independent basis, Debye-Ang**2):
  XXX=   268.7397  YYY=   -58.0310  ZZZ=    -0.0180  XYY=   -56.7661
  XXY=  -133.1486  XXZ=    -0.1143  XZZ=   -10.3473  YZZ=    -2.1547
  YYZ=     0.0215  XYZ=    -0.0045
 Hexadecapole moment (field-independent basis, Debye-Ang**3):
 XXXX=  -856.0439 YYYY=  -451.5119 ZZZZ=  -256.8378 XXXY=   291.8046
 XXXZ=    -0.6820 YYYX=   149.0991 YYYZ=     0.0344 ZZZX=     0.0395
 ZZZY=    -0.0094 XXYY=  -569.7551 XXZZ=  -654.1402 YYZZ=  -112.0948
 XXYZ=     0.1089 YYXZ=    -0.0174 ZZXY=    25.1034
 N-N= 8.237375960809D+02 E-N=-7.969458242981D+03  KE= 2.667678775697D+03
 Merz-Kollman atomic radii used.
 Read replacement radii for each type of atom:
 Rad(20) =   1.188000000000D+00
 Atom Element Radius
    1     8    1.40
    2     8    1.40
    3     8    1.40
    4     8    1.40
    5    15    1.80
    6    20    1.19
    7    20    1.19
    8    20    1.19

 **********************************************************************

            Electrostatic Properties Using The SCF Density

 **********************************************************************

       Atomic Center    1 is at  -0.311500  1.904302 -0.001022
       Atomic Center    2 is at  -1.061429 -0.241259 -1.200042
       Atomic Center    3 is at  -2.926859  1.028600 -0.001692
       Atomic Center    4 is at  -1.063089 -0.238639  1.201588
       Atomic Center    5 is at  -1.399739  0.829281 -0.000412
       Atomic Center    6 is at   1.094421  0.007653  0.001828
       Atomic Center    7 is at  -2.855748 -1.290760 -0.000272
       Atomic Center    8 is at   4.956282 -0.320055 -0.000782
     762 points will be used for fitting atomic charges
 Fitting point charges to eletrostatic potential
 Charges from ESP fit, RMS=   0.02179 RRMS=   0.13297:
 Charge=   1.00000 Dipole=    10.7443   -13.8425     0.0085 Tot=    17.5230
              1
     1  O   -0.778099
     2  O   -1.015539
     3  O   -0.957798
     4  O   -1.014821
     5  P    1.648776
     6  Ca   0.903850
     7  Ca   1.615238
     8  Ca   0.598392
 -----------------------------------------------------------------

              Electrostatic Properties (Atomic Units)

 -----------------------------------------------------------------
    Center     Electric         -------- Electric Field --------
               Potential          X             Y             Z
 -----------------------------------------------------------------
    1 Atom    -22.271179
    2 Atom    -22.272939
    3 Atom    -22.271223
    4 Atom    -22.272951
    5 Atom    -53.925181
    6 Atom    -80.032638
    7 Atom    -79.994039
    8 Atom    -79.993272
 -----------------------------------------------------------------
 1\1\GINC-N034\SP\RB3LYP\6-31+G(d,p)\Ca3O4P1(1+)\TIMN\12-Jun-2015\0\\# 
 b3lyp/6-31+G(d,p) int=ultrafine pop=(ReadRadii,MK)\\Ca3PO4_10.mol2_plu
 sQ.z51110.zip.xyz\\1,1\O,0,-0.3115,1.9043,-0.00102\O,0,-1.06143,-0.241
 26,-1.20004\O,0,-2.92686,1.0286,-0.00169\O,0,-1.06309,-0.23864,1.20159
 \P,0,-1.39974,0.82928,-0.00041\Ca,0,1.09442,0.00765,0.00183\Ca,0,-2.85
 575,-1.29076,-0.00027\Ca,0,4.95628,-0.32006,-0.00078\\Version=EM64T-G0
 3RevE.01\State=1-A\HF=-2674.9620969\RMSD=5.070e-05\Thermal=0.\Dipole=3
 .5428168,-5.1345498,0.0021859\PG=C01 [X(Ca3O4P1)]\\@


      THE ONE-EYED VIEW OF OUR UNIVERSE SAYS YOU MUST NOT LOOK
      FAR AFIELD FOR PROBLEMS.  SUCH PROBLEMS MAY NEVER ARRIVE. 
      INSTEAD, TEND TO THE WOLF WITHIN YOUR FENCES.
      THE PACKS RANGING OUTSIDE MAY NOT EVEN EXIST.

                              -- THE AZHAR BOOK SHAMRA I:4
                                 CHILDREN OF DUNE, BY FRANK HERBERT
 Job cpu time:  0 days  0 hours  1 minutes 20.0 seconds.
 File lengths (MBytes):  RWF=     32 Int=      0 D2E=      0 Chk=     11 Scr=      1
 Normal termination of Gaussian 03 at Fri Jun 12 17:35:44 2015.
