 Entering Gaussian System, Link 0=/home/timn/tmp/g03.e01/g03
 Input=Ca3PO4_74.mol2c_plusQ.z51490.zip.xyz.gjf
 Output=Ca3PO4_74.mol2c_plusQ.z51490.zip.xyz.out
 Initial command:
 /home/timn/tmp/g03.e01/l1.exe /home/timn/tmp/g03.e01/Gau-14062.inp -scrdir=/home/timn/tmp/g03.e01/
 Default is to use a total of   2 processors:
                                2 via shared-memory
                                1 via Linda
 Entering Link 1 = /home/timn/tmp/g03.e01/l1.exe PID=     14063.
  
 Copyright (c) 1988,1990,1992,1993,1995,1998,2003,2004,2007, Gaussian, Inc.
                  All Rights Reserved.
  
 This is the Gaussian(R) 03 program.  It is based on the
 the Gaussian(R) 98 system (copyright 1998, Gaussian, Inc.),
 the Gaussian(R) 94 system (copyright 1995, Gaussian, Inc.),
 the Gaussian 92(TM) system (copyright 1992, Gaussian, Inc.),
 the Gaussian 90(TM) system (copyright 1990, Gaussian, Inc.),
 the Gaussian 88(TM) system (copyright 1988, Gaussian, Inc.),
 the Gaussian 86(TM) system (copyright 1986, Carnegie Mellon
 University), and the Gaussian 82(TM) system (copyright 1983,
 Carnegie Mellon University). Gaussian is a federally registered
 trademark of Gaussian, Inc.
  
 This software contains proprietary and confidential information,
 including trade secrets, belonging to Gaussian, Inc.
  
 This software is provided under written license and may be
 used, copied, transmitted, or stored only in accord with that
 written license.
  
 The following legend is applicable only to US Government
 contracts under FAR:
  
                    RESTRICTED RIGHTS LEGEND
  
 Use, reproduction and disclosure by the US Government is
 subject to restrictions as set forth in subparagraphs (a)
 and (c) of the Commercial Computer Software - Restricted
 Rights clause in FAR 52.227-19.
  
 Gaussian, Inc.
 340 Quinnipiac St., Bldg. 40, Wallingford CT 06492
  
  
 ---------------------------------------------------------------
 Warning -- This program may not be used in any manner that
 competes with the business of Gaussian, Inc. or will provide
 assistance to any competitor of Gaussian, Inc.  The licensee
 of this program is prohibited from giving any competitor of
 Gaussian, Inc. access to this program.  By using this program,
 the user acknowledges that Gaussian, Inc. is engaged in the
 business of creating and licensing software in the field of
 computational chemistry and represents and warrants to the
 licensee that it is not a competitor of Gaussian, Inc. and that
 it will not use this program in any manner prohibited above.
 ---------------------------------------------------------------
  

 Cite this work as:
 Gaussian 03, Revision E.01,
 M. J. Frisch, G. W. Trucks, H. B. Schlegel, G. E. Scuseria, 
 M. A. Robb, J. R. Cheeseman, J. A. Montgomery, Jr., T. Vreven, 
 K. N. Kudin, J. C. Burant, J. M. Millam, S. S. Iyengar, J. Tomasi, 
 V. Barone, B. Mennucci, M. Cossi, G. Scalmani, N. Rega, 
 G. A. Petersson, H. Nakatsuji, M. Hada, M. Ehara, K. Toyota, 
 R. Fukuda, J. Hasegawa, M. Ishida, T. Nakajima, Y. Honda, O. Kitao, 
 H. Nakai, M. Klene, X. Li, J. E. Knox, H. P. Hratchian, J. B. Cross, 
 V. Bakken, C. Adamo, J. Jaramillo, R. Gomperts, R. E. Stratmann, 
 O. Yazyev, A. J. Austin, R. Cammi, C. Pomelli, J. W. Ochterski, 
 P. Y. Ayala, K. Morokuma, G. A. Voth, P. Salvador, J. J. Dannenberg, 
 V. G. Zakrzewski, S. Dapprich, A. D. Daniels, M. C. Strain, 
 O. Farkas, D. K. Malick, A. D. Rabuck, K. Raghavachari, 
 J. B. Foresman, J. V. Ortiz, Q. Cui, A. G. Baboul, S. Clifford, 
 J. Cioslowski, B. B. Stefanov, G. Liu, A. Liashenko, P. Piskorz, 
 I. Komaromi, R. L. Martin, D. J. Fox, T. Keith, M. A. Al-Laham, 
 C. Y. Peng, A. Nanayakkara, M. Challacombe, P. M. W. Gill, 
 B. Johnson, W. Chen, M. W. Wong, C. Gonzalez, and J. A. Pople, 
 Gaussian, Inc., Wallingford CT, 2004.
 
 ******************************************
 Gaussian 03:  EM64T-G03RevE.01 11-Sep-2007
                12-Jun-2015 
 ******************************************
 %nproc=2
 Will use up to    2 processors via shared memory.
 Default route:  MP2=Direct MaxDisk=2000MB
 ----------------------------------------------------
 # b3lyp/6-31+G(d,p) int=ultrafine pop=(ReadRadii,MK)
 ----------------------------------------------------

 Warning!  SCF SP cutoffs with diffuse functions may be unreliable.
 Consider SCF=Tight

 1/38=1/1;
 2/17=6,18=5,40=1/2;
 3/5=1,6=6,7=111,11=2,16=1,25=1,30=1,74=-5,75=5/1,2,3;
 4//1;
 5/5=2,32=1,38=5/2;
 6/7=2,8=2,9=2,10=2,15=8,20=101,28=1/1,2;
 99/5=1,9=1/99;
 ------------------------------------
 Ca3PO4_74.mol2c_plusQ.z51490.zip.xyz
 ------------------------------------
 Symbolic Z-matrix:
 Charge =  1 Multiplicity = 1
 O                    -2.0876   -0.0071   -0.51526 
 O                    -1.07249  -0.31803  -1.54991 
 O                     1.30017   1.24446  -0.12304 
 O                    -0.23017  -1.42662  -1.06538 
 P                     1.06948   0.65825   1.57569 
 Ca                    1.97972  -0.77605  -0.69168 
 Ca                   -1.14339  -1.39851   1.09327 
 Ca                   -0.80242   1.88379  -0.28192 
 
                          Input orientation:                          
 ---------------------------------------------------------------------
 Center     Atomic     Atomic              Coordinates (Angstroms)
 Number     Number      Type              X           Y           Z
 ---------------------------------------------------------------------
    1          8             0       -2.087600   -0.007100   -0.515260
    2          8             0       -1.072490   -0.318030   -1.549910
    3          8             0        1.300170    1.244460   -0.123040
    4          8             0       -0.230170   -1.426620   -1.065380
    5         15             0        1.069480    0.658250    1.575690
    6         20             0        1.979720   -0.776050   -0.691680
    7         20             0       -1.143390   -1.398510    1.093270
    8         20             0       -0.802420    1.883790   -0.281920
 ---------------------------------------------------------------------
                    Distance matrix (angstroms):
                    1          2          3          4          5
     1  O    0.000000
     2  O    1.482439   0.000000
     3  O    3.632798   3.179127   0.000000
     4  O    2.401607   1.474193   3.219412   0.000000
     5  P    3.844726   3.912868   1.811779   3.607080   0.000000
     6  Ca   4.143127   3.203487   2.206264   2.333775   2.833147
     7  Ca   2.326999   2.856373   3.799432   2.344042   3.059376
     8  Ca   2.298173   2.555141   2.203377   3.449651   2.908036
                    6          7          8
     6  Ca   0.000000
     7  Ca   3.650660   0.000000
     8  Ca   3.870782   3.575039   0.000000
 Stoichiometry    Ca3O4P(1+)
 Framework group  C1[X(Ca3O4P)]
 Deg. of freedom    18
 Full point group                 C1
 Largest Abelian subgroup         C1      NOp   1
 Largest concise Abelian subgroup C1      NOp   1
                         Standard orientation:                         
 ---------------------------------------------------------------------
 Center     Atomic     Atomic              Coordinates (Angstroms)
 Number     Number      Type              X           Y           Z
 ---------------------------------------------------------------------
    1          8             0       -2.087597   -0.007111   -0.515260
    2          8             0       -1.072485   -0.318036   -1.549910
    3          8             0        1.300167    1.244466   -0.123040
    4          8             0       -0.230160   -1.426621   -1.065380
    5         15             0        1.069480    0.658255    1.575690
    6         20             0        1.979727   -0.776040   -0.691680
    7         20             0       -1.143380   -1.398516    1.093270
    8         20             0       -0.802427    1.883786   -0.281920
 ---------------------------------------------------------------------
 Rotational constants (GHZ):      0.9637345      0.8507652      0.7194584
 Standard basis: 6-31+G(d,p) (6D, 7F)
 There are   180 symmetry adapted basis functions of A   symmetry.
 Integral buffers will be    131072 words long.
 Raffenetti 2 integral format.
 Two-electron integral symmetry is turned on.
   180 basis functions,   424 primitive gaussians,   180 cartesian basis functions
    53 alpha electrons       53 beta electrons
       nuclear repulsion energy       889.1083094965 Hartrees.
 NAtoms=    8 NActive=    8 NUniq=    8 SFac= 7.50D-01 NAtFMM=   80 NAOKFM=F Big=F
 One-electron integrals computed using PRISM.
 NBasis=   180 RedAO= T  NBF=   180
 NBsUse=   180 1.00D-06 NBFU=   180
 Harris functional with IExCor=  402 diagonalized for initial guess.
 ExpMin= 7.10D-03 ExpMax= 3.53D+04 ExpMxC= 5.30D+03 IAcc=3 IRadAn=         5 AccDes= 0.00D+00
 HarFok:  IExCor= 402 AccDes= 0.00D+00 IRadAn=         5 IDoV=1
 ScaDFX=  1.000000  1.000000  1.000000  1.000000
 Initial guess orbital symmetries:
       Occupied  (A) (A) (A) (A) (A) (A) (A) (A) (A) (A) (A) (A)
                 (A) (A) (A) (A) (A) (A) (A) (A) (A) (A) (A) (A)
                 (A) (A) (A) (A) (A) (A) (A) (A) (A) (A) (A) (A)
                 (A) (A) (A) (A) (A) (A) (A) (A) (A) (A) (A) (A)
                 (A) (A) (A) (A) (A)
       Virtual   (A) (A) (A) (A) (A) (A) (A) (A) (A) (A) (A) (A)
                 (A) (A) (A) (A) (A) (A) (A) (A) (A) (A) (A) (A)
                 (A) (A) (A) (A) (A) (A) (A) (A) (A) (A) (A) (A)
                 (A) (A) (A) (A) (A) (A) (A) (A) (A) (A) (A) (A)
                 (A) (A) (A) (A) (A) (A) (A) (A) (A) (A) (A) (A)
                 (A) (A) (A) (A) (A) (A) (A) (A) (A) (A) (A) (A)
                 (A) (A) (A) (A) (A) (A) (A) (A) (A) (A) (A) (A)
                 (A) (A) (A) (A) (A) (A) (A) (A) (A) (A) (A) (A)
                 (A) (A) (A) (A) (A) (A) (A) (A) (A) (A) (A) (A)
                 (A) (A) (A) (A) (A) (A) (A) (A) (A) (A) (A) (A)
                 (A) (A) (A) (A) (A) (A) (A)
 The electronic state of the initial guess is 1-A.
 Requested convergence on RMS density matrix=1.00D-04 within 128 cycles.
 Requested convergence on MAX density matrix=1.00D-02.
 Requested convergence on             energy=1.00D-02.
 No special actions if energy rises.
 EnCoef did     4 forward-backward iterations
 EnCoef did     4 forward-backward iterations
 SCF Done:  E(RB+HF-LYP) =  -2674.74522810     A.U. after    9 cycles
             Convg  =    0.5248D-04             -V/T =  2.0027
             S**2   =   0.0000

 **********************************************************************

            Population analysis using the SCF density.

 **********************************************************************

 Orbital symmetries:
       Occupied  (A) (A) (A) (A) (A) (A) (A) (A) (A) (A) (A) (A)
                 (A) (A) (A) (A) (A) (A) (A) (A) (A) (A) (A) (A)
                 (A) (A) (A) (A) (A) (A) (A) (A) (A) (A) (A) (A)
                 (A) (A) (A) (A) (A) (A) (A) (A) (A) (A) (A) (A)
                 (A) (A) (A) (A) (A)
       Virtual   (A) (A) (A) (A) (A) (A) (A) (A) (A) (A) (A) (A)
                 (A) (A) (A) (A) (A) (A) (A) (A) (A) (A) (A) (A)
                 (A) (A) (A) (A) (A) (A) (A) (A) (A) (A) (A) (A)
                 (A) (A) (A) (A) (A) (A) (A) (A) (A) (A) (A) (A)
                 (A) (A) (A) (A) (A) (A) (A) (A) (A) (A) (A) (A)
                 (A) (A) (A) (A) (A) (A) (A) (A) (A) (A) (A) (A)
                 (A) (A) (A) (A) (A) (A) (A) (A) (A) (A) (A) (A)
                 (A) (A) (A) (A) (A) (A) (A) (A) (A) (A) (A) (A)
                 (A) (A) (A) (A) (A) (A) (A) (A) (A) (A) (A) (A)
                 (A) (A) (A) (A) (A) (A) (A) (A) (A) (A) (A) (A)
                 (A) (A) (A) (A) (A) (A) (A)
 The electronic state is 1-A.
 Alpha  occ. eigenvalues -- -145.52280-145.51807-145.50793 -77.15434 -19.36554
 Alpha  occ. eigenvalues --  -19.27758 -19.27498 -19.20708 -15.59130 -15.58637
 Alpha  occ. eigenvalues --  -15.57707 -12.72347 -12.72297 -12.72265 -12.71864
 Alpha  occ. eigenvalues --  -12.71842 -12.71736 -12.70897 -12.70888 -12.70818
 Alpha  occ. eigenvalues --   -6.61989  -4.78480  -4.77917  -4.77798  -1.96272
 Alpha  occ. eigenvalues --   -1.95781  -1.94934  -1.25200  -1.23852  -1.23811
 Alpha  occ. eigenvalues --   -1.23572  -1.23374  -1.23049  -1.22598  -1.22442
 Alpha  occ. eigenvalues --   -1.22112  -1.19855  -1.03839  -0.99571  -0.87967
 Alpha  occ. eigenvalues --   -0.61283  -0.58800  -0.56124  -0.54159  -0.43915
 Alpha  occ. eigenvalues --   -0.43140  -0.42280  -0.41885  -0.41156  -0.40589
 Alpha  occ. eigenvalues --   -0.34722  -0.28066  -0.26904
 Alpha virt. eigenvalues --   -0.20681  -0.18998  -0.18781  -0.14953  -0.13865
 Alpha virt. eigenvalues --   -0.12271  -0.11097  -0.10286  -0.09812  -0.09300
 Alpha virt. eigenvalues --   -0.09014  -0.07346  -0.07014  -0.06661  -0.05933
 Alpha virt. eigenvalues --   -0.05800  -0.04912  -0.04751  -0.04502  -0.04200
 Alpha virt. eigenvalues --   -0.04123  -0.03946  -0.03924  -0.03444  -0.03317
 Alpha virt. eigenvalues --   -0.03274  -0.03005  -0.01280   0.00629   0.00866
 Alpha virt. eigenvalues --    0.01257   0.01472   0.02203   0.03007   0.03926
 Alpha virt. eigenvalues --    0.04171   0.04805   0.05096   0.05278   0.05966
 Alpha virt. eigenvalues --    0.06069   0.06585   0.06995   0.07044   0.07633
 Alpha virt. eigenvalues --    0.08534   0.09165   0.09478   0.09953   0.10881
 Alpha virt. eigenvalues --    0.11574   0.12577   0.14226   0.15593   0.16210
 Alpha virt. eigenvalues --    0.19197   0.19948   0.20535   0.22677   0.23189
 Alpha virt. eigenvalues --    0.24415   0.25046   0.26018   0.27342   0.27762
 Alpha virt. eigenvalues --    0.29718   0.30946   0.33313   0.35305   0.36853
 Alpha virt. eigenvalues --    0.38963   0.41245   0.42169   0.42938   0.45142
 Alpha virt. eigenvalues --    0.50941   0.52327   0.57532   0.63545   0.68393
 Alpha virt. eigenvalues --    0.69459   0.71627   0.81222   0.82387   0.89111
 Alpha virt. eigenvalues --    0.97915   1.05240   1.06429   1.10601   1.12975
 Alpha virt. eigenvalues --    1.15212   1.16646   1.18563   1.19843   1.20313
 Alpha virt. eigenvalues --    1.21900   1.24907   1.25894   1.40048   1.45126
 Alpha virt. eigenvalues --    1.50952   1.55190   1.59197   1.65617   1.69187
 Alpha virt. eigenvalues --    1.73887   1.76488   1.79214   1.81231   1.81500
 Alpha virt. eigenvalues --    1.83731   1.86080   1.87973   1.90474   1.90887
 Alpha virt. eigenvalues --    1.94316   2.23347   2.24219   2.25189   2.47213
 Alpha virt. eigenvalues --    3.05844   3.06897   3.44808   3.94587   4.13002
 Alpha virt. eigenvalues --    4.16205   4.37775
          Condensed to atoms (all electrons):
              1          2          3          4          5          6
     1  O    8.570487  -0.038184   0.034088   0.052382  -0.062998  -0.028742
     2  O   -0.038184   8.095936  -0.041462  -0.133155   0.054340   0.014679
     3  O    0.034088  -0.041462   9.050921   0.073907  -0.371944   0.020464
     4  O    0.052382  -0.133155   0.073907   8.677216  -0.100402   0.062285
     5  P   -0.062998   0.054340  -0.371944  -0.100402  15.490956   0.215078
     6  Ca  -0.028742   0.014679   0.020464   0.062285   0.215078  18.491944
     7  Ca   0.030827  -0.011805  -0.079112   0.029977   0.135396   0.038546
     8  Ca   0.094825   0.028815   0.072192  -0.022093   0.162448  -0.062053
              7          8
     1  O    0.030827   0.094825
     2  O   -0.011805   0.028815
     3  O   -0.079112   0.072192
     4  O    0.029977  -0.022093
     5  P    0.135396   0.162448
     6  Ca   0.038546  -0.062053
     7  Ca  18.866564   0.016798
     8  Ca   0.016798  18.385785
 Mulliken atomic charges:
              1
     1  O   -0.652684
     2  O    0.030836
     3  O   -0.759053
     4  O   -0.640117
     5  P   -0.522872
     6  Ca   1.247800
     7  Ca   0.972810
     8  Ca   1.323281
 Sum of Mulliken charges=   1.00000
 Atomic charges with hydrogens summed into heavy atoms:
              1
     1  O   -0.652684
     2  O    0.030836
     3  O   -0.759053
     4  O   -0.640117
     5  P   -0.522872
     6  Ca   1.247800
     7  Ca   0.972810
     8  Ca   1.323281
 Sum of Mulliken charges=   1.00000
 Electronic spatial extent (au):  <R**2>=  1754.6843
 Charge=     1.0000 electrons
 Dipole moment (field-independent basis, Debye):
    X=     0.2132    Y=    -0.9353    Z=    -2.0133  Tot=     2.2301
 Quadrupole moment (field-independent basis, Debye-Ang):
   XX=   -57.1540   YY=   -46.2011   ZZ=   -78.2907
   XY=   -18.3887   XZ=   -25.3127   YZ=   -15.3606
 Traceless Quadrupole moment (field-independent basis, Debye-Ang):
   XX=     3.3946   YY=    14.3475   ZZ=   -17.7421
   XY=   -18.3887   XZ=   -25.3127   YZ=   -15.3606
 Octapole moment (field-independent basis, Debye-Ang**2):
  XXX=    45.3046  YYY=    37.4484  ZZZ=   -38.4998  XYY=   -43.8439
  XXY=   -34.5727  XXZ=   -27.1316  XZZ=    -8.1185  YZZ=   -11.6171
  YYZ=    -9.2762  XYZ=    27.3729
 Hexadecapole moment (field-independent basis, Debye-Ang**3):
 XXXX=  -797.0223 YYYY=  -563.2660 ZZZZ=  -618.8595 XXXY=   -86.2449
 XXXZ=  -148.6817 YYYX=   -82.7411 YYYZ=   -77.4283 ZZZX=   -85.5076
 ZZZY=   -58.0068 XXYY=  -210.7360 XXZZ=  -236.0656 YYZZ=  -216.0591
 XXYZ=    -5.9418 YYXZ=   -36.6041 ZZXY=   -10.9082
 N-N= 8.891083094965D+02 E-N=-8.100534641075D+03  KE= 2.667605168900D+03
 Merz-Kollman atomic radii used.
 Read replacement radii for each type of atom:
 Rad(20) =   1.188000000000D+00
 Atom Element Radius
    1     8    1.40
    2     8    1.40
    3     8    1.40
    4     8    1.40
    5    15    1.80
    6    20    1.19
    7    20    1.19
    8    20    1.19

 **********************************************************************

            Electrostatic Properties Using The SCF Density

 **********************************************************************

       Atomic Center    1 is at  -2.087597 -0.007111 -0.515260
       Atomic Center    2 is at  -1.072485 -0.318036 -1.549910
       Atomic Center    3 is at   1.300167  1.244466 -0.123040
       Atomic Center    4 is at  -0.230160 -1.426621 -1.065380
       Atomic Center    5 is at   1.069480  0.658255  1.575690
       Atomic Center    6 is at   1.979727 -0.776040 -0.691680
       Atomic Center    7 is at  -1.143380 -1.398516  1.093270
       Atomic Center    8 is at  -0.802427  1.883786 -0.281920
     743 points will be used for fitting atomic charges
 Fitting point charges to eletrostatic potential
 Charges from ESP fit, RMS=   0.01444 RRMS=   0.09085:
 Charge=   1.00000 Dipole=    -0.1070    -1.7915    -1.8633 Tot=     2.5870
              1
     1  O   -0.675997
     2  O   -0.050664
     3  O   -0.632204
     4  O   -0.734607
     5  P   -1.009456
     6  Ca   1.418650
     7  Ca   1.202308
     8  Ca   1.481970
 -----------------------------------------------------------------

              Electrostatic Properties (Atomic Units)

 -----------------------------------------------------------------
    Center     Electric         -------- Electric Field --------
               Potential          X             Y             Z
 -----------------------------------------------------------------
    1 Atom    -22.195654
    2 Atom    -22.105972
    3 Atom    -22.249599
    4 Atom    -22.190587
    5 Atom    -54.058955
    6 Atom    -80.017835
    7 Atom    -80.035148
    8 Atom    -80.021976
 -----------------------------------------------------------------
 1\1\GINC-N030\SP\RB3LYP\6-31+G(d,p)\Ca3O4P1(1+)\TIMN\12-Jun-2015\0\\# 
 b3lyp/6-31+G(d,p) int=ultrafine pop=(ReadRadii,MK)\\Ca3PO4_74.mol2c_pl
 usQ.z51490.zip.xyz\\1,1\O,0,-2.0876,-0.0071,-0.51526\O,0,-1.07249,-0.3
 1803,-1.54991\O,0,1.30017,1.24446,-0.12304\O,0,-0.23017,-1.42662,-1.06
 538\P,0,1.06948,0.65825,1.57569\Ca,0,1.97972,-0.77605,-0.69168\Ca,0,-1
 .14339,-1.39851,1.09327\Ca,0,-0.80242,1.88379,-0.28192\\Version=EM64T-
 G03RevE.01\State=1-A\HF=-2674.7452281\RMSD=5.248e-05\Thermal=0.\Dipole
 =0.0838772,-0.3679635,-0.7920863\PG=C01 [X(Ca3O4P1)]\\@


 TIME GOES, YOU SAY?  AH NO!
 ALAS, TIME STAYS, WE GO.
    -- A. DOBSON (1840-1921)
 Job cpu time:  0 days  0 hours  1 minutes 48.5 seconds.
 File lengths (MBytes):  RWF=     32 Int=      0 D2E=      0 Chk=     11 Scr=      1
 Normal termination of Gaussian 03 at Fri Jun 12 17:45:30 2015.
