 Entering Gaussian System, Link 0=/home/timn/tmp/g03.e01/g03
 Input=Ca3PO4_206.mol2c_plusQ.z51416.zip.xyz.gjf
 Output=Ca3PO4_206.mol2c_plusQ.z51416.zip.xyz.out
 Initial command:
 /home/timn/tmp/g03.e01/l1.exe /home/timn/tmp/g03.e01/Gau-13592.inp -scrdir=/home/timn/tmp/g03.e01/
 Default is to use a total of   2 processors:
                                2 via shared-memory
                                1 via Linda
 Entering Link 1 = /home/timn/tmp/g03.e01/l1.exe PID=     13593.
  
 Copyright (c) 1988,1990,1992,1993,1995,1998,2003,2004,2007, Gaussian, Inc.
                  All Rights Reserved.
  
 This is the Gaussian(R) 03 program.  It is based on the
 the Gaussian(R) 98 system (copyright 1998, Gaussian, Inc.),
 the Gaussian(R) 94 system (copyright 1995, Gaussian, Inc.),
 the Gaussian 92(TM) system (copyright 1992, Gaussian, Inc.),
 the Gaussian 90(TM) system (copyright 1990, Gaussian, Inc.),
 the Gaussian 88(TM) system (copyright 1988, Gaussian, Inc.),
 the Gaussian 86(TM) system (copyright 1986, Carnegie Mellon
 University), and the Gaussian 82(TM) system (copyright 1983,
 Carnegie Mellon University). Gaussian is a federally registered
 trademark of Gaussian, Inc.
  
 This software contains proprietary and confidential information,
 including trade secrets, belonging to Gaussian, Inc.
  
 This software is provided under written license and may be
 used, copied, transmitted, or stored only in accord with that
 written license.
  
 The following legend is applicable only to US Government
 contracts under FAR:
  
                    RESTRICTED RIGHTS LEGEND
  
 Use, reproduction and disclosure by the US Government is
 subject to restrictions as set forth in subparagraphs (a)
 and (c) of the Commercial Computer Software - Restricted
 Rights clause in FAR 52.227-19.
  
 Gaussian, Inc.
 340 Quinnipiac St., Bldg. 40, Wallingford CT 06492
  
  
 ---------------------------------------------------------------
 Warning -- This program may not be used in any manner that
 competes with the business of Gaussian, Inc. or will provide
 assistance to any competitor of Gaussian, Inc.  The licensee
 of this program is prohibited from giving any competitor of
 Gaussian, Inc. access to this program.  By using this program,
 the user acknowledges that Gaussian, Inc. is engaged in the
 business of creating and licensing software in the field of
 computational chemistry and represents and warrants to the
 licensee that it is not a competitor of Gaussian, Inc. and that
 it will not use this program in any manner prohibited above.
 ---------------------------------------------------------------
  

 Cite this work as:
 Gaussian 03, Revision E.01,
 M. J. Frisch, G. W. Trucks, H. B. Schlegel, G. E. Scuseria, 
 M. A. Robb, J. R. Cheeseman, J. A. Montgomery, Jr., T. Vreven, 
 K. N. Kudin, J. C. Burant, J. M. Millam, S. S. Iyengar, J. Tomasi, 
 V. Barone, B. Mennucci, M. Cossi, G. Scalmani, N. Rega, 
 G. A. Petersson, H. Nakatsuji, M. Hada, M. Ehara, K. Toyota, 
 R. Fukuda, J. Hasegawa, M. Ishida, T. Nakajima, Y. Honda, O. Kitao, 
 H. Nakai, M. Klene, X. Li, J. E. Knox, H. P. Hratchian, J. B. Cross, 
 V. Bakken, C. Adamo, J. Jaramillo, R. Gomperts, R. E. Stratmann, 
 O. Yazyev, A. J. Austin, R. Cammi, C. Pomelli, J. W. Ochterski, 
 P. Y. Ayala, K. Morokuma, G. A. Voth, P. Salvador, J. J. Dannenberg, 
 V. G. Zakrzewski, S. Dapprich, A. D. Daniels, M. C. Strain, 
 O. Farkas, D. K. Malick, A. D. Rabuck, K. Raghavachari, 
 J. B. Foresman, J. V. Ortiz, Q. Cui, A. G. Baboul, S. Clifford, 
 J. Cioslowski, B. B. Stefanov, G. Liu, A. Liashenko, P. Piskorz, 
 I. Komaromi, R. L. Martin, D. J. Fox, T. Keith, M. A. Al-Laham, 
 C. Y. Peng, A. Nanayakkara, M. Challacombe, P. M. W. Gill, 
 B. Johnson, W. Chen, M. W. Wong, C. Gonzalez, and J. A. Pople, 
 Gaussian, Inc., Wallingford CT, 2004.
 
 ******************************************
 Gaussian 03:  EM64T-G03RevE.01 11-Sep-2007
                12-Jun-2015 
 ******************************************
 %nproc=2
 Will use up to    2 processors via shared memory.
 Default route:  MP2=Direct MaxDisk=2000MB
 ----------------------------------------------------
 # b3lyp/6-31+G(d,p) int=ultrafine pop=(ReadRadii,MK)
 ----------------------------------------------------

 Warning!  SCF SP cutoffs with diffuse functions may be unreliable.
 Consider SCF=Tight

 1/38=1/1;
 2/17=6,18=5,40=1/2;
 3/5=1,6=6,7=111,11=2,16=1,25=1,30=1,74=-5,75=5/1,2,3;
 4//1;
 5/5=2,32=1,38=5/2;
 6/7=2,8=2,9=2,10=2,15=8,20=101,28=1/1,2;
 99/5=1,9=1/99;
 -------------------------------------
 Ca3PO4_206.mol2c_plusQ.z51416.zip.xyz
 -------------------------------------
 Symbolic Z-matrix:
 Charge =  1 Multiplicity = 1
 O                    -2.57774   1.46768  -0.00128 
 O                    -0.59684  -0.88734   0.77814 
 O                     1.87226   0.8666    0.00198 
 O                    -0.59581  -0.88839  -0.77653 
 P                     3.4418    0.56962  -0.00426 
 Ca                   -2.83976  -0.63704  -0.00243 
 Ca                    1.44407  -1.5207    0.00214 
 Ca                   -0.42641   1.5071    0.00255 
 
                          Input orientation:                          
 ---------------------------------------------------------------------
 Center     Atomic     Atomic              Coordinates (Angstroms)
 Number     Number      Type              X           Y           Z
 ---------------------------------------------------------------------
    1          8             0       -2.577740    1.467680   -0.001280
    2          8             0       -0.596840   -0.887340    0.778140
    3          8             0        1.872260    0.866600    0.001980
    4          8             0       -0.595810   -0.888390   -0.776530
    5         15             0        3.441800    0.569620   -0.004260
    6         20             0       -2.839760   -0.637040   -0.002430
    7         20             0        1.444070   -1.520700    0.002140
    8         20             0       -0.426410    1.507100    0.002550
 ---------------------------------------------------------------------
                    Distance matrix (angstroms):
                    1          2          3          4          5
     1  O    0.000000
     2  O    3.174520   0.000000
     3  O    4.490413   3.126529   0.000000
     4  O    3.174921   1.554671   3.126889   0.000000
     5  P    6.086163   4.364114   1.597402   4.361707   0.000000
     6  Ca   2.120967   2.388018   4.946118   2.386990   6.396407
     7  Ca   5.010527   2.273463   2.425396   2.273159   2.891436
     8  Ca   2.151695   2.522683   2.386236   2.524685   3.980196
                    6          7          8
     6  Ca   0.000000
     7  Ca   4.374023   0.000000
     8  Ca   3.228253   3.558970   0.000000
 Stoichiometry    Ca3O4P(1+)
 Framework group  C1[X(Ca3O4P)]
 Deg. of freedom    18
 Full point group                 C1
 Largest Abelian subgroup         C1      NOp   1
 Largest concise Abelian subgroup C1      NOp   1
                         Standard orientation:                         
 ---------------------------------------------------------------------
 Center     Atomic     Atomic              Coordinates (Angstroms)
 Number     Number      Type              X           Y           Z
 ---------------------------------------------------------------------
    1          8             0       -2.577736    1.467686   -0.001278
    2          8             0       -0.596842   -0.887338    0.778142
    3          8             0        1.872262    0.866597    0.001982
    4          8             0       -0.595812   -0.888388   -0.776528
    5         15             0        3.441802    0.569614   -0.004258
    6         20             0       -2.839761   -0.637033   -0.002428
    7         20             0        1.444067   -1.520702    0.002142
    8         20             0       -0.426406    1.507102    0.002552
 ---------------------------------------------------------------------
 Rotational constants (GHZ):      1.6820203      0.5195139      0.4093499
 Standard basis: 6-31+G(d,p) (6D, 7F)
 There are   180 symmetry adapted basis functions of A   symmetry.
 Integral buffers will be    131072 words long.
 Raffenetti 2 integral format.
 Two-electron integral symmetry is turned on.
   180 basis functions,   424 primitive gaussians,   180 cartesian basis functions
    53 alpha electrons       53 beta electrons
       nuclear repulsion energy       840.8580699866 Hartrees.
 NAtoms=    8 NActive=    8 NUniq=    8 SFac= 7.50D-01 NAtFMM=   80 NAOKFM=F Big=F
 One-electron integrals computed using PRISM.
 NBasis=   180 RedAO= T  NBF=   180
 NBsUse=   180 1.00D-06 NBFU=   180
 Harris functional with IExCor=  402 diagonalized for initial guess.
 ExpMin= 7.10D-03 ExpMax= 3.53D+04 ExpMxC= 5.30D+03 IAcc=3 IRadAn=         5 AccDes= 0.00D+00
 HarFok:  IExCor= 402 AccDes= 0.00D+00 IRadAn=         5 IDoV=1
 ScaDFX=  1.000000  1.000000  1.000000  1.000000
 Initial guess orbital symmetries:
       Occupied  (A) (A) (A) (A) (A) (A) (A) (A) (A) (A) (A) (A)
                 (A) (A) (A) (A) (A) (A) (A) (A) (A) (A) (A) (A)
                 (A) (A) (A) (A) (A) (A) (A) (A) (A) (A) (A) (A)
                 (A) (A) (A) (A) (A) (A) (A) (A) (A) (A) (A) (A)
                 (A) (A) (A) (A) (A)
       Virtual   (A) (A) (A) (A) (A) (A) (A) (A) (A) (A) (A) (A)
                 (A) (A) (A) (A) (A) (A) (A) (A) (A) (A) (A) (A)
                 (A) (A) (A) (A) (A) (A) (A) (A) (A) (A) (A) (A)
                 (A) (A) (A) (A) (A) (A) (A) (A) (A) (A) (A) (A)
                 (A) (A) (A) (A) (A) (A) (A) (A) (A) (A) (A) (A)
                 (A) (A) (A) (A) (A) (A) (A) (A) (A) (A) (A) (A)
                 (A) (A) (A) (A) (A) (A) (A) (A) (A) (A) (A) (A)
                 (A) (A) (A) (A) (A) (A) (A) (A) (A) (A) (A) (A)
                 (A) (A) (A) (A) (A) (A) (A) (A) (A) (A) (A) (A)
                 (A) (A) (A) (A) (A) (A) (A) (A) (A) (A) (A) (A)
                 (A) (A) (A) (A) (A) (A) (A)
 The electronic state of the initial guess is 1-A.
 Requested convergence on RMS density matrix=1.00D-04 within 128 cycles.
 Requested convergence on MAX density matrix=1.00D-02.
 Requested convergence on             energy=1.00D-02.
 No special actions if energy rises.
 EnCoef did     4 forward-backward iterations
 EnCoef did     4 forward-backward iterations
 EnCoef did     5 forward-backward iterations
 EnCoef did     7 forward-backward iterations
 EnCoef did     8 forward-backward iterations
 EnCoef did     4 forward-backward iterations
 EnCoef did     1 forward-backward iterations
 SCF Done:  E(RB+HF-LYP) =  -2674.84098451     A.U. after   13 cycles
             Convg  =    0.8877D-04             -V/T =  2.0027
             S**2   =   0.0000

 **********************************************************************

            Population analysis using the SCF density.

 **********************************************************************

 Orbital symmetries:
       Occupied  (A) (A) (A) (A) (A) (A) (A) (A) (A) (A) (A) (A)
                 (A) (A) (A) (A) (A) (A) (A) (A) (A) (A) (A) (A)
                 (A) (A) (A) (A) (A) (A) (A) (A) (A) (A) (A) (A)
                 (A) (A) (A) (A) (A) (A) (A) (A) (A) (A) (A) (A)
                 (A) (A) (A) (A) (A)
       Virtual   (A) (A) (A) (A) (A) (A) (A) (A) (A) (A) (A) (A)
                 (A) (A) (A) (A) (A) (A) (A) (A) (A) (A) (A) (A)
                 (A) (A) (A) (A) (A) (A) (A) (A) (A) (A) (A) (A)
                 (A) (A) (A) (A) (A) (A) (A) (A) (A) (A) (A) (A)
                 (A) (A) (A) (A) (A) (A) (A) (A) (A) (A) (A) (A)
                 (A) (A) (A) (A) (A) (A) (A) (A) (A) (A) (A) (A)
                 (A) (A) (A) (A) (A) (A) (A) (A) (A) (A) (A) (A)
                 (A) (A) (A) (A) (A) (A) (A) (A) (A) (A) (A) (A)
                 (A) (A) (A) (A) (A) (A) (A) (A) (A) (A) (A) (A)
                 (A) (A) (A) (A) (A) (A) (A) (A) (A) (A) (A) (A)
                 (A) (A) (A) (A) (A) (A) (A)
 The electronic state is 1-A.
 Alpha  occ. eigenvalues -- -145.53237-145.47983-145.46461 -77.26640 -19.30919
 Alpha  occ. eigenvalues --  -19.27902 -19.27469 -19.10310 -15.60128 -15.54828
 Alpha  occ. eigenvalues --  -15.53326 -12.73355 -12.73339 -12.73208 -12.68046
 Alpha  occ. eigenvalues --  -12.68011 -12.67931 -12.66580 -12.66541 -12.66375
 Alpha  occ. eigenvalues --   -6.72923  -4.89650  -4.89133  -4.88246  -1.97325
 Alpha  occ. eigenvalues --   -1.92042  -1.90635  -1.25313  -1.24971  -1.24870
 Alpha  occ. eigenvalues --   -1.20281  -1.19697  -1.19140  -1.18497  -1.18383
 Alpha  occ. eigenvalues --   -1.17683  -1.12149  -1.10819  -0.91218  -0.84469
 Alpha  occ. eigenvalues --   -0.68992  -0.52790  -0.51432  -0.51304  -0.51145
 Alpha  occ. eigenvalues --   -0.50086  -0.49073  -0.38788  -0.36624  -0.31458
 Alpha  occ. eigenvalues --   -0.30091  -0.28480  -0.28439
 Alpha virt. eigenvalues --   -0.25555  -0.20360  -0.17988  -0.15267  -0.15143
 Alpha virt. eigenvalues --   -0.11426  -0.11134  -0.11074  -0.09236  -0.09092
 Alpha virt. eigenvalues --   -0.08662  -0.08337  -0.07025  -0.06911  -0.06030
 Alpha virt. eigenvalues --   -0.05461  -0.05385  -0.04710  -0.04323  -0.04210
 Alpha virt. eigenvalues --   -0.04051  -0.03764  -0.03745  -0.03250  -0.02918
 Alpha virt. eigenvalues --   -0.02715  -0.02467  -0.02071  -0.01096   0.00125
 Alpha virt. eigenvalues --    0.00957   0.02698   0.03163   0.03256   0.03675
 Alpha virt. eigenvalues --    0.05032   0.05153   0.05714   0.06029   0.06153
 Alpha virt. eigenvalues --    0.06737   0.07243   0.08157   0.08447   0.09546
 Alpha virt. eigenvalues --    0.09978   0.10048   0.10784   0.11491   0.12985
 Alpha virt. eigenvalues --    0.13778   0.15406   0.15802   0.16514   0.17637
 Alpha virt. eigenvalues --    0.18206   0.20441   0.20923   0.22301   0.22395
 Alpha virt. eigenvalues --    0.23763   0.24478   0.27833   0.29755   0.30319
 Alpha virt. eigenvalues --    0.32310   0.33830   0.34890   0.36309   0.37077
 Alpha virt. eigenvalues --    0.37735   0.39786   0.41287   0.46700   0.47488
 Alpha virt. eigenvalues --    0.48342   0.51386   0.54992   0.57949   0.58571
 Alpha virt. eigenvalues --    0.60994   0.69082   0.86572   0.89487   0.97340
 Alpha virt. eigenvalues --    1.04893   1.09561   1.10052   1.10660   1.13850
 Alpha virt. eigenvalues --    1.13987   1.16081   1.19848   1.20511   1.23964
 Alpha virt. eigenvalues --    1.28564   1.33539   1.35008   1.46434   1.47144
 Alpha virt. eigenvalues --    1.47378   1.52295   1.58672   1.66907   1.67282
 Alpha virt. eigenvalues --    1.72414   1.75125   1.76170   1.78597   1.79308
 Alpha virt. eigenvalues --    1.83941   1.86430   1.87231   1.89439   1.90900
 Alpha virt. eigenvalues --    1.96324   2.01064   2.16392   2.16663   2.17945
 Alpha virt. eigenvalues --    2.48560   3.00635   3.37007   3.86698   4.00179
 Alpha virt. eigenvalues --    4.08572   4.08680
          Condensed to atoms (all electrons):
              1          2          3          4          5          6
     1  O    8.679711   0.001071  -0.005486   0.000772  -0.001717   0.223269
     2  O    0.001071   8.582943   0.003740  -0.045716  -0.005516   0.051756
     3  O   -0.005486   0.003740   9.042139   0.003426  -0.444755  -0.000435
     4  O    0.000772  -0.045716   0.003426   8.572943  -0.005381   0.052367
     5  P   -0.001717  -0.005516  -0.444755  -0.005381  15.173943  -0.007487
     6  Ca   0.223269   0.051756  -0.000435   0.052367  -0.007487  18.363931
     7  Ca   0.002741   0.086119  -0.045906   0.087073   0.235809  -0.015222
     8  Ca   0.221377   0.028611   0.023225   0.028697   0.008294  -0.030540
              7          8
     1  O    0.002741   0.221377
     2  O    0.086119   0.028611
     3  O   -0.045906   0.023225
     4  O    0.087073   0.028697
     5  P    0.235809   0.008294
     6  Ca  -0.015222  -0.030540
     7  Ca  18.324114  -0.005732
     8  Ca  -0.005732  18.371374
 Mulliken atomic charges:
              1
     1  O   -1.121737
     2  O   -0.703007
     3  O   -0.575947
     4  O   -0.694180
     5  P    0.046810
     6  Ca   1.362361
     7  Ca   1.331006
     8  Ca   1.354695
 Sum of Mulliken charges=   1.00000
 Atomic charges with hydrogens summed into heavy atoms:
              1
     1  O   -1.121737
     2  O   -0.703007
     3  O   -0.575947
     4  O   -0.694180
     5  P    0.046810
     6  Ca   1.362361
     7  Ca   1.331006
     8  Ca   1.354695
 Sum of Mulliken charges=   1.00000
 Electronic spatial extent (au):  <R**2>=  2354.1830
 Charge=     1.0000 electrons
 Dipole moment (field-independent basis, Debye):
    X=     1.8887    Y=    -8.9774    Z=    -0.0216  Tot=     9.1740
 Quadrupole moment (field-independent basis, Debye-Ang):
   XX=   -52.9060   YY=   -56.1314   ZZ=   -72.7492
   XY=    14.1475   XZ=     0.0757   YZ=     0.0456
 Traceless Quadrupole moment (field-independent basis, Debye-Ang):
   XX=     7.6896   YY=     4.4641   ZZ=   -12.1537
   XY=    14.1475   XZ=     0.0757   YZ=     0.0456
 Octapole moment (field-independent basis, Debye-Ang**2):
  XXX=   -92.3262  YYY=   -39.4907  ZZZ=     0.0130  XYY=    25.6283
  XXY=  -125.3999  XXZ=    -0.0386  XZZ=     0.2696  YZZ=    -1.8225
  YYZ=     0.1245  XYZ=    -0.1397
 Hexadecapole moment (field-independent basis, Debye-Ang**3):
 XXXX= -1934.8337 YYYY=  -543.7874 ZZZZ=  -129.0017 XXXY=   268.1875
 XXXZ=     0.8248 YYYX=    -4.8770 YYYZ=     0.0596 ZZZX=     0.1906
 ZZZY=     0.0718 XXYY=  -538.7677 XXZZ=  -358.6276 YYZZ=  -124.9657
 XXYZ=     0.1647 YYXZ=     0.1712 ZZXY=     8.8830
 N-N= 8.408580699866D+02 E-N=-8.005152875483D+03  KE= 2.667605436769D+03
 Merz-Kollman atomic radii used.
 Read replacement radii for each type of atom:
 Rad(20) =   1.188000000000D+00
 Atom Element Radius
    1     8    1.40
    2     8    1.40
    3     8    1.40
    4     8    1.40
    5    15    1.80
    6    20    1.19
    7    20    1.19
    8    20    1.19

 **********************************************************************

            Electrostatic Properties Using The SCF Density

 **********************************************************************

       Atomic Center    1 is at  -2.577736  1.467686 -0.001278
       Atomic Center    2 is at  -0.596842 -0.887338  0.778142
       Atomic Center    3 is at   1.872262  0.866597  0.001982
       Atomic Center    4 is at  -0.595812 -0.888388 -0.776528
       Atomic Center    5 is at   3.441802  0.569614 -0.004258
       Atomic Center    6 is at  -2.839761 -0.637033 -0.002428
       Atomic Center    7 is at   1.444067 -1.520702  0.002142
       Atomic Center    8 is at  -0.426406  1.507102  0.002552
     860 points will be used for fitting atomic charges
 Fitting point charges to eletrostatic potential
 Charges from ESP fit, RMS=   0.00953 RRMS=   0.06310:
 Charge=   1.00000 Dipole=     1.5794    -9.5693    -0.0203 Tot=     9.6988
              1
     1  O   -1.453697
     2  O   -0.795404
     3  O   -0.492115
     4  O   -0.785814
     5  P   -0.086519
     6  Ca   1.593508
     7  Ca   1.427850
     8  Ca   1.592192
 -----------------------------------------------------------------

              Electrostatic Properties (Atomic Units)

 -----------------------------------------------------------------
    Center     Electric         -------- Electric Field --------
               Potential          X             Y             Z
 -----------------------------------------------------------------
    1 Atom    -22.359370
    2 Atom    -22.198731
    3 Atom    -22.156863
    4 Atom    -22.186163
    5 Atom    -53.954784
    6 Atom    -80.061021
    7 Atom    -80.008655
    8 Atom    -80.075619
 -----------------------------------------------------------------
 1\1\GINC-N029\SP\RB3LYP\6-31+G(d,p)\Ca3O4P1(1+)\TIMN\12-Jun-2015\0\\# 
 b3lyp/6-31+G(d,p) int=ultrafine pop=(ReadRadii,MK)\\Ca3PO4_206.mol2c_p
 lusQ.z51416.zip.xyz\\1,1\O,0,-2.57774,1.46768,-0.00128\O,0,-0.59684,-0
 .88734,0.77814\O,0,1.87226,0.8666,0.00198\O,0,-0.59581,-0.88839,-0.776
 53\P,0,3.4418,0.56962,-0.00426\Ca,0,-2.83976,-0.63704,-0.00243\Ca,0,1.
 44407,-1.5207,0.00214\Ca,0,-0.42641,1.5071,0.00255\\Version=EM64T-G03R
 evE.01\State=1-A\HF=-2674.8409845\RMSD=8.877e-05\Thermal=0.\Dipole=0.7
 430751,-3.5319947,-0.0085063\PG=C01 [X(Ca3O4P1)]\\@


 OPTIMIST - A PESSIMIST WHO LACKS EXPERIENCE
 Job cpu time:  0 days  0 hours  2 minutes 24.6 seconds.
 File lengths (MBytes):  RWF=     32 Int=      0 D2E=      0 Chk=     11 Scr=      1
 Normal termination of Gaussian 03 at Fri Jun 12 17:42:16 2015.
