 Entering Gaussian System, Link 0=/home/timn/tmp/g03.e01/g03
 Input=Ca3PO4_120.mol2_plusQ.z51122.zip.xyz.gjf
 Output=Ca3PO4_120.mol2_plusQ.z51122.zip.xyz.out
 Initial command:
 /home/timn/tmp/g03.e01/l1.exe /home/timn/tmp/g03.e01/Gau-18753.inp -scrdir=/home/timn/tmp/g03.e01/
 Default is to use a total of   2 processors:
                                2 via shared-memory
                                1 via Linda
 Entering Link 1 = /home/timn/tmp/g03.e01/l1.exe PID=     18754.
  
 Copyright (c) 1988,1990,1992,1993,1995,1998,2003,2004,2007, Gaussian, Inc.
                  All Rights Reserved.
  
 This is the Gaussian(R) 03 program.  It is based on the
 the Gaussian(R) 98 system (copyright 1998, Gaussian, Inc.),
 the Gaussian(R) 94 system (copyright 1995, Gaussian, Inc.),
 the Gaussian 92(TM) system (copyright 1992, Gaussian, Inc.),
 the Gaussian 90(TM) system (copyright 1990, Gaussian, Inc.),
 the Gaussian 88(TM) system (copyright 1988, Gaussian, Inc.),
 the Gaussian 86(TM) system (copyright 1986, Carnegie Mellon
 University), and the Gaussian 82(TM) system (copyright 1983,
 Carnegie Mellon University). Gaussian is a federally registered
 trademark of Gaussian, Inc.
  
 This software contains proprietary and confidential information,
 including trade secrets, belonging to Gaussian, Inc.
  
 This software is provided under written license and may be
 used, copied, transmitted, or stored only in accord with that
 written license.
  
 The following legend is applicable only to US Government
 contracts under FAR:
  
                    RESTRICTED RIGHTS LEGEND
  
 Use, reproduction and disclosure by the US Government is
 subject to restrictions as set forth in subparagraphs (a)
 and (c) of the Commercial Computer Software - Restricted
 Rights clause in FAR 52.227-19.
  
 Gaussian, Inc.
 340 Quinnipiac St., Bldg. 40, Wallingford CT 06492
  
  
 ---------------------------------------------------------------
 Warning -- This program may not be used in any manner that
 competes with the business of Gaussian, Inc. or will provide
 assistance to any competitor of Gaussian, Inc.  The licensee
 of this program is prohibited from giving any competitor of
 Gaussian, Inc. access to this program.  By using this program,
 the user acknowledges that Gaussian, Inc. is engaged in the
 business of creating and licensing software in the field of
 computational chemistry and represents and warrants to the
 licensee that it is not a competitor of Gaussian, Inc. and that
 it will not use this program in any manner prohibited above.
 ---------------------------------------------------------------
  

 Cite this work as:
 Gaussian 03, Revision E.01,
 M. J. Frisch, G. W. Trucks, H. B. Schlegel, G. E. Scuseria, 
 M. A. Robb, J. R. Cheeseman, J. A. Montgomery, Jr., T. Vreven, 
 K. N. Kudin, J. C. Burant, J. M. Millam, S. S. Iyengar, J. Tomasi, 
 V. Barone, B. Mennucci, M. Cossi, G. Scalmani, N. Rega, 
 G. A. Petersson, H. Nakatsuji, M. Hada, M. Ehara, K. Toyota, 
 R. Fukuda, J. Hasegawa, M. Ishida, T. Nakajima, Y. Honda, O. Kitao, 
 H. Nakai, M. Klene, X. Li, J. E. Knox, H. P. Hratchian, J. B. Cross, 
 V. Bakken, C. Adamo, J. Jaramillo, R. Gomperts, R. E. Stratmann, 
 O. Yazyev, A. J. Austin, R. Cammi, C. Pomelli, J. W. Ochterski, 
 P. Y. Ayala, K. Morokuma, G. A. Voth, P. Salvador, J. J. Dannenberg, 
 V. G. Zakrzewski, S. Dapprich, A. D. Daniels, M. C. Strain, 
 O. Farkas, D. K. Malick, A. D. Rabuck, K. Raghavachari, 
 J. B. Foresman, J. V. Ortiz, Q. Cui, A. G. Baboul, S. Clifford, 
 J. Cioslowski, B. B. Stefanov, G. Liu, A. Liashenko, P. Piskorz, 
 I. Komaromi, R. L. Martin, D. J. Fox, T. Keith, M. A. Al-Laham, 
 C. Y. Peng, A. Nanayakkara, M. Challacombe, P. M. W. Gill, 
 B. Johnson, W. Chen, M. W. Wong, C. Gonzalez, and J. A. Pople, 
 Gaussian, Inc., Wallingford CT, 2004.
 
 ******************************************
 Gaussian 03:  EM64T-G03RevE.01 11-Sep-2007
                12-Jun-2015 
 ******************************************
 %nproc=2
 Will use up to    2 processors via shared memory.
 Default route:  MP2=Direct MaxDisk=2000MB
 ----------------------------------------------------
 # b3lyp/6-31+G(d,p) int=ultrafine pop=(ReadRadii,MK)
 ----------------------------------------------------

 Warning!  SCF SP cutoffs with diffuse functions may be unreliable.
 Consider SCF=Tight

 1/38=1/1;
 2/17=6,18=5,40=1/2;
 3/5=1,6=6,7=111,11=2,16=1,25=1,30=1,74=-5,75=5/1,2,3;
 4//1;
 5/5=2,32=1,38=5/2;
 6/7=2,8=2,9=2,10=2,15=8,20=101,28=1/1,2;
 99/5=1,9=1/99;
 ------------------------------------
 Ca3PO4_120.mol2_plusQ.z51122.zip.xyz
 ------------------------------------
 Symbolic Z-matrix:
 Charge =  1 Multiplicity = 1
 O                     0.74979  -0.00022   1.32187 
 O                     2.1672    0.00123   0.76066 
 O                    -1.2064   -1.30552  -0.45563 
 O                    -1.20804   1.30446  -0.45538 
 P                    -1.09289  -0.00042  -1.56137 
 Ca                   -1.49959  -0.00072   1.3755 
 Ca                    1.06006  -1.69134  -0.33662 
 Ca                    1.05818   1.69239  -0.33646 
 
                          Input orientation:                          
 ---------------------------------------------------------------------
 Center     Atomic     Atomic              Coordinates (Angstroms)
 Number     Number      Type              X           Y           Z
 ---------------------------------------------------------------------
    1          8             0        0.749790   -0.000220    1.321870
    2          8             0        2.167200    0.001230    0.760660
    3          8             0       -1.206400   -1.305520   -0.455630
    4          8             0       -1.208040    1.304460   -0.455380
    5         15             0       -1.092890   -0.000420   -1.561370
    6         20             0       -1.499590   -0.000720    1.375500
    7         20             0        1.060060   -1.691340   -0.336620
    8         20             0        1.058180    1.692390   -0.336460
 ---------------------------------------------------------------------
                    Distance matrix (angstroms):
                    1          2          3          4          5
     1  O    0.000000
     2  O    1.524470   0.000000
     3  O    2.947880   3.816822   0.000000
     4  O    2.948543   3.816989   2.609981   0.000000
     5  P    3.421775   4.002501   1.714302   1.714405   0.000000
     6  Ca   2.250019   3.717981   2.267488   2.267293   2.964896
     7  Ca   2.388879   2.300994   2.302143   3.759415   2.999069
     8  Ca   2.389580   2.300787   3.758988   2.302256   2.998852
                    6          7          8
     6  Ca   0.000000
     7  Ca   3.513027   0.000000
     8  Ca   3.512779   3.383731   0.000000
 Stoichiometry    Ca3O4P(1+)
 Framework group  C1[X(Ca3O4P)]
 Deg. of freedom    18
 Full point group                 C1
 Largest Abelian subgroup         C1      NOp   1
 Largest concise Abelian subgroup C1      NOp   1
                         Standard orientation:                         
 ---------------------------------------------------------------------
 Center     Atomic     Atomic              Coordinates (Angstroms)
 Number     Number      Type              X           Y           Z
 ---------------------------------------------------------------------
    1          8             0        0.749790   -0.000225    1.321870
    2          8             0        2.167200    0.001215    0.760660
    3          8             0       -1.206410   -1.305510   -0.455630
    4          8             0       -1.208031    1.304470   -0.455380
    5         15             0       -1.092890   -0.000411   -1.561370
    6         20             0       -1.499590   -0.000708    1.375500
    7         20             0        1.060047   -1.691347   -0.336620
    8         20             0        1.058192    1.692383   -0.336460
 ---------------------------------------------------------------------
 Rotational constants (GHZ):      1.0372341      0.9167869      0.8015180
 Standard basis: 6-31+G(d,p) (6D, 7F)
 There are   180 symmetry adapted basis functions of A   symmetry.
 Integral buffers will be    131072 words long.
 Raffenetti 2 integral format.
 Two-electron integral symmetry is turned on.
   180 basis functions,   424 primitive gaussians,   180 cartesian basis functions
    53 alpha electrons       53 beta electrons
       nuclear repulsion energy       925.0580242695 Hartrees.
 NAtoms=    8 NActive=    8 NUniq=    8 SFac= 7.50D-01 NAtFMM=   80 NAOKFM=F Big=F
 One-electron integrals computed using PRISM.
 NBasis=   180 RedAO= T  NBF=   180
 NBsUse=   180 1.00D-06 NBFU=   180
 Harris functional with IExCor=  402 diagonalized for initial guess.
 ExpMin= 7.10D-03 ExpMax= 3.53D+04 ExpMxC= 5.30D+03 IAcc=3 IRadAn=         5 AccDes= 0.00D+00
 HarFok:  IExCor= 402 AccDes= 0.00D+00 IRadAn=         5 IDoV=1
 ScaDFX=  1.000000  1.000000  1.000000  1.000000
 Initial guess orbital symmetries:
       Occupied  (A) (A) (A) (A) (A) (A) (A) (A) (A) (A) (A) (A)
                 (A) (A) (A) (A) (A) (A) (A) (A) (A) (A) (A) (A)
                 (A) (A) (A) (A) (A) (A) (A) (A) (A) (A) (A) (A)
                 (A) (A) (A) (A) (A) (A) (A) (A) (A) (A) (A) (A)
                 (A) (A) (A) (A) (A)
       Virtual   (A) (A) (A) (A) (A) (A) (A) (A) (A) (A) (A) (A)
                 (A) (A) (A) (A) (A) (A) (A) (A) (A) (A) (A) (A)
                 (A) (A) (A) (A) (A) (A) (A) (A) (A) (A) (A) (A)
                 (A) (A) (A) (A) (A) (A) (A) (A) (A) (A) (A) (A)
                 (A) (A) (A) (A) (A) (A) (A) (A) (A) (A) (A) (A)
                 (A) (A) (A) (A) (A) (A) (A) (A) (A) (A) (A) (A)
                 (A) (A) (A) (A) (A) (A) (A) (A) (A) (A) (A) (A)
                 (A) (A) (A) (A) (A) (A) (A) (A) (A) (A) (A) (A)
                 (A) (A) (A) (A) (A) (A) (A) (A) (A) (A) (A) (A)
                 (A) (A) (A) (A) (A) (A) (A) (A) (A) (A) (A) (A)
                 (A) (A) (A) (A) (A) (A) (A)
 The electronic state of the initial guess is 1-A.
 Requested convergence on RMS density matrix=1.00D-04 within 128 cycles.
 Requested convergence on MAX density matrix=1.00D-02.
 Requested convergence on             energy=1.00D-02.
 No special actions if energy rises.
 SCF Done:  E(RB+HF-LYP) =  -2674.89010768     A.U. after    7 cycles
             Convg  =    0.6223D-04             -V/T =  2.0027
             S**2   =   0.0000

 **********************************************************************

            Population analysis using the SCF density.

 **********************************************************************

 Orbital symmetries:
       Occupied  (A) (A) (A) (A) (A) (A) (A) (A) (A) (A) (A) (A)
                 (A) (A) (A) (A) (A) (A) (A) (A) (A) (A) (A) (A)
                 (A) (A) (A) (A) (A) (A) (A) (A) (A) (A) (A) (A)
                 (A) (A) (A) (A) (A) (A) (A) (A) (A) (A) (A) (A)
                 (A) (A) (A) (A) (A)
       Virtual   (A) (A) (A) (A) (A) (A) (A) (A) (A) (A) (A) (A)
                 (A) (A) (A) (A) (A) (A) (A) (A) (A) (A) (A) (A)
                 (A) (A) (A) (A) (A) (A) (A) (A) (A) (A) (A) (A)
                 (A) (A) (A) (A) (A) (A) (A) (A) (A) (A) (A) (A)
                 (A) (A) (A) (A) (A) (A) (A) (A) (A) (A) (A) (A)
                 (A) (A) (A) (A) (A) (A) (A) (A) (A) (A) (A) (A)
                 (A) (A) (A) (A) (A) (A) (A) (A) (A) (A) (A) (A)
                 (A) (A) (A) (A) (A) (A) (A) (A) (A) (A) (A) (A)
                 (A) (A) (A) (A) (A) (A) (A) (A) (A) (A) (A) (A)
                 (A) (A) (A) (A) (A) (A) (A) (A) (A) (A) (A) (A)
                 (A) (A) (A) (A) (A) (A) (A)
 The electronic state is 1-A.
 Alpha  occ. eigenvalues -- -145.52819-145.50761-145.50760 -77.21496 -19.26310
 Alpha  occ. eigenvalues --  -19.25931 -19.22263 -19.22262 -15.59591 -15.57612
 Alpha  occ. eigenvalues --  -15.57611 -12.72775 -12.72774 -12.72752 -12.70847
 Alpha  occ. eigenvalues --  -12.70846 -12.70796 -12.70794 -12.70715 -12.70714
 Alpha  occ. eigenvalues --   -6.67303  -4.83739  -4.83468  -4.83043  -1.96768
 Alpha  occ. eigenvalues --   -1.94808  -1.94753  -1.24744  -1.24312  -1.24224
 Alpha  occ. eigenvalues --   -1.23218  -1.22465  -1.22312  -1.22185  -1.22120
 Alpha  occ. eigenvalues --   -1.21777  -1.10231  -1.04691  -1.00694  -0.89614
 Alpha  occ. eigenvalues --   -0.63134  -0.51643  -0.49763  -0.48644  -0.48469
 Alpha  occ. eigenvalues --   -0.47606  -0.44973  -0.41616  -0.39259  -0.37723
 Alpha  occ. eigenvalues --   -0.35796  -0.34541  -0.25349
 Alpha virt. eigenvalues --   -0.20587  -0.19189  -0.18823  -0.13460  -0.13072
 Alpha virt. eigenvalues --   -0.11283  -0.11002  -0.10667  -0.09122  -0.08672
 Alpha virt. eigenvalues --   -0.08244  -0.07168  -0.06823  -0.06449  -0.05779
 Alpha virt. eigenvalues --   -0.05351  -0.04891  -0.04820  -0.04651  -0.04332
 Alpha virt. eigenvalues --   -0.04125  -0.04023  -0.03576  -0.03314  -0.03199
 Alpha virt. eigenvalues --   -0.03010  -0.02737  -0.01256   0.01110   0.01401
 Alpha virt. eigenvalues --    0.01978   0.02552   0.03600   0.04247   0.04736
 Alpha virt. eigenvalues --    0.04769   0.05099   0.05297   0.05684   0.06415
 Alpha virt. eigenvalues --    0.06635   0.06721   0.07190   0.07305   0.07649
 Alpha virt. eigenvalues --    0.08591   0.09614   0.10479   0.11217   0.11621
 Alpha virt. eigenvalues --    0.13794   0.14462   0.15818   0.16591   0.17848
 Alpha virt. eigenvalues --    0.20340   0.20372   0.22068   0.23493   0.23759
 Alpha virt. eigenvalues --    0.25244   0.25284   0.26932   0.28525   0.30602
 Alpha virt. eigenvalues --    0.32942   0.33524   0.34294   0.36809   0.38662
 Alpha virt. eigenvalues --    0.39008   0.40359   0.41804   0.44946   0.49010
 Alpha virt. eigenvalues --    0.52330   0.55257   0.62328   0.64372   0.66445
 Alpha virt. eigenvalues --    0.69754   0.77270   0.81290   0.90580   0.90709
 Alpha virt. eigenvalues --    1.09422   1.11893   1.12029   1.15301   1.16029
 Alpha virt. eigenvalues --    1.18149   1.19590   1.20287   1.22091   1.23269
 Alpha virt. eigenvalues --    1.27724   1.29900   1.36844   1.45700   1.47984
 Alpha virt. eigenvalues --    1.53665   1.57236   1.60104   1.65722   1.72426
 Alpha virt. eigenvalues --    1.74205   1.76415   1.79559   1.80807   1.81935
 Alpha virt. eigenvalues --    1.84620   1.87886   1.89418   1.90271   1.91645
 Alpha virt. eigenvalues --    1.91935   2.00842   2.20623   2.23501   2.32113
 Alpha virt. eigenvalues --    2.47012   3.05995   3.49309   3.99341   4.09161
 Alpha virt. eigenvalues --    4.13115   4.19323
          Condensed to atoms (all electrons):
              1          2          3          4          5          6
     1  O    8.677360  -0.077042   0.119944   0.119886  -0.247670   0.102223
     2  O   -0.077042   8.599447   0.000646   0.000671  -0.055861  -0.032273
     3  O    0.119944   0.000646   9.166455   0.175252  -0.688174   0.094682
     4  O    0.119886   0.000671   0.175252   9.166591  -0.688258   0.094699
     5  P   -0.247670  -0.055861  -0.688174  -0.688258  16.368744  -0.027369
     6  Ca   0.102223  -0.032273   0.094682   0.094699  -0.027369  18.310541
     7  Ca  -0.010622   0.086398  -0.031175  -0.061240   0.282351  -0.041225
     8  Ca  -0.010702   0.086374  -0.061349  -0.031238   0.282652  -0.041232
              7          8
     1  O   -0.010622  -0.010702
     2  O    0.086398   0.086374
     3  O   -0.031175  -0.061349
     4  O   -0.061240  -0.031238
     5  P    0.282351   0.282652
     6  Ca  -0.041225  -0.041232
     7  Ca  18.475304   0.039673
     8  Ca   0.039673  18.475518
 Mulliken atomic charges:
              1
     1  O   -0.673376
     2  O   -0.608359
     3  O   -0.776282
     4  O   -0.776363
     5  P   -0.226414
     6  Ca   1.539954
     7  Ca   1.260536
     8  Ca   1.260305
 Sum of Mulliken charges=   1.00000
 Atomic charges with hydrogens summed into heavy atoms:
              1
     1  O   -0.673376
     2  O   -0.608359
     3  O   -0.776282
     4  O   -0.776363
     5  P   -0.226414
     6  Ca   1.539954
     7  Ca   1.260536
     8  Ca   1.260305
 Sum of Mulliken charges=   1.00000
 Electronic spatial extent (au):  <R**2>=  1620.1889
 Charge=     1.0000 electrons
 Dipole moment (field-independent basis, Debye):
    X=     0.9979    Y=    -0.0003    Z=     5.3929  Tot=     5.4844
 Quadrupole moment (field-independent basis, Debye-Ang):
   XX=   -67.1763   YY=   -43.8630   ZZ=   -71.1864
   XY=    -0.0124   XZ=   -29.6534   YZ=    -0.0095
 Traceless Quadrupole moment (field-independent basis, Debye-Ang):
   XX=    -6.4344   YY=    16.8789   ZZ=   -10.4445
   XY=    -0.0124   XZ=   -29.6534   YZ=    -0.0095
 Octapole moment (field-independent basis, Debye-Ang**2):
  XXX=   -26.8279  YYY=     0.0826  ZZZ=    56.4257  XYY=    65.6988
  XXY=    -0.0938  XXZ=    28.6490  XZZ=   -30.7996  YZZ=    -0.0157
  YYZ=     2.5072  XYZ=     0.0184
 Hexadecapole moment (field-independent basis, Debye-Ang**3):
 XXXX=  -813.5339 YYYY=  -464.2739 ZZZZ=  -561.3372 XXXY=    -0.0769
 XXXZ=  -138.5239 YYYX=    -0.0543 YYYZ=    -0.0385 ZZZX=  -104.0023
 ZZZY=    -0.0274 XXYY=  -203.1876 XXZZ=  -210.5870 YYZZ=  -182.0307
 XXYZ=    -0.0245 YYXZ=   -37.6322 ZZXY=    -0.0080
 N-N= 9.250580242695D+02 E-N=-8.172907619553D+03  KE= 2.667634759361D+03
 Merz-Kollman atomic radii used.
 Read replacement radii for each type of atom:
 Rad(20) =   1.188000000000D+00
 Atom Element Radius
    1     8    1.40
    2     8    1.40
    3     8    1.40
    4     8    1.40
    5    15    1.80
    6    20    1.19
    7    20    1.19
    8    20    1.19

 **********************************************************************

            Electrostatic Properties Using The SCF Density

 **********************************************************************

       Atomic Center    1 is at   0.749790 -0.000225  1.321870
       Atomic Center    2 is at   2.167200  0.001215  0.760660
       Atomic Center    3 is at  -1.206410 -1.305510 -0.455630
       Atomic Center    4 is at  -1.208031  1.304470 -0.455380
       Atomic Center    5 is at  -1.092890 -0.000411 -1.561370
       Atomic Center    6 is at  -1.499590 -0.000708  1.375500
       Atomic Center    7 is at   1.060047 -1.691347 -0.336620
       Atomic Center    8 is at   1.058192  1.692383 -0.336460
     706 points will be used for fitting atomic charges
 Fitting point charges to eletrostatic potential
 Charges from ESP fit, RMS=   0.01646 RRMS=   0.10218:
 Charge=   1.00000 Dipole=     1.6023    -0.0001     5.0588 Tot=     5.3065
              1
     1  O   -0.734311
     2  O   -0.695104
     3  O   -0.601549
     4  O   -0.601790
     5  P   -0.480428
     6  Ca   1.541211
     7  Ca   1.286010
     8  Ca   1.285961
 -----------------------------------------------------------------

              Electrostatic Properties (Atomic Units)

 -----------------------------------------------------------------
    Center     Electric         -------- Electric Field --------
               Potential          X             Y             Z
 -----------------------------------------------------------------
    1 Atom    -22.201788
    2 Atom    -22.211206
    3 Atom    -22.242244
    4 Atom    -22.242251
    5 Atom    -54.003440
    6 Atom    -80.011634
    7 Atom    -80.033187
    8 Atom    -80.033181
 -----------------------------------------------------------------
 1\1\GINC-N022\SP\RB3LYP\6-31+G(d,p)\Ca3O4P1(1+)\TIMN\12-Jun-2015\0\\# 
 b3lyp/6-31+G(d,p) int=ultrafine pop=(ReadRadii,MK)\\Ca3PO4_120.mol2_pl
 usQ.z51122.zip.xyz\\1,1\O,0,0.74979,-0.00022,1.32187\O,0,2.1672,0.0012
 3,0.76066\O,0,-1.2064,-1.30552,-0.45563\O,0,-1.20804,1.30446,-0.45538\
 P,0,-1.09289,-0.00042,-1.56137\Ca,0,-1.49959,-0.00072,1.3755\Ca,0,1.06
 006,-1.69134,-0.33662\Ca,0,1.05818,1.69239,-0.33646\\Version=EM64T-G03
 RevE.01\State=1-A\HF=-2674.8901077\RMSD=6.223e-05\Thermal=0.\Dipole=0.
 3926174,-0.0001179,2.1217268\PG=C01 [X(Ca3O4P1)]\\@


 LAWS OF PROGRAMMING DEFINITION:  A WORKING PROGRAM
                                  IS ONE THAT HAS
                                  ONLY UNOBSERVED
                                  BUGS.
 Job cpu time:  0 days  0 hours  1 minutes 29.0 seconds.
 File lengths (MBytes):  RWF=     32 Int=      0 D2E=      0 Chk=     11 Scr=      1
 Normal termination of Gaussian 03 at Fri Jun 12 17:36:21 2015.
