 Entering Gaussian System, Link 0=/home/timn/tmp/g03.e01/g03
 Input=Ca3PO4_3.mol2_plusQ.z51452.zip.xyz.gjf
 Output=Ca3PO4_3.mol2_plusQ.z51452.zip.xyz.out
 Initial command:
 /home/timn/tmp/g03.e01/l1.exe /home/timn/tmp/g03.e01/Gau-13582.inp -scrdir=/home/timn/tmp/g03.e01/
 Default is to use a total of   2 processors:
                                2 via shared-memory
                                1 via Linda
 Entering Link 1 = /home/timn/tmp/g03.e01/l1.exe PID=     13583.
  
 Copyright (c) 1988,1990,1992,1993,1995,1998,2003,2004,2007, Gaussian, Inc.
                  All Rights Reserved.
  
 This is the Gaussian(R) 03 program.  It is based on the
 the Gaussian(R) 98 system (copyright 1998, Gaussian, Inc.),
 the Gaussian(R) 94 system (copyright 1995, Gaussian, Inc.),
 the Gaussian 92(TM) system (copyright 1992, Gaussian, Inc.),
 the Gaussian 90(TM) system (copyright 1990, Gaussian, Inc.),
 the Gaussian 88(TM) system (copyright 1988, Gaussian, Inc.),
 the Gaussian 86(TM) system (copyright 1986, Carnegie Mellon
 University), and the Gaussian 82(TM) system (copyright 1983,
 Carnegie Mellon University). Gaussian is a federally registered
 trademark of Gaussian, Inc.
  
 This software contains proprietary and confidential information,
 including trade secrets, belonging to Gaussian, Inc.
  
 This software is provided under written license and may be
 used, copied, transmitted, or stored only in accord with that
 written license.
  
 The following legend is applicable only to US Government
 contracts under FAR:
  
                    RESTRICTED RIGHTS LEGEND
  
 Use, reproduction and disclosure by the US Government is
 subject to restrictions as set forth in subparagraphs (a)
 and (c) of the Commercial Computer Software - Restricted
 Rights clause in FAR 52.227-19.
  
 Gaussian, Inc.
 340 Quinnipiac St., Bldg. 40, Wallingford CT 06492
  
  
 ---------------------------------------------------------------
 Warning -- This program may not be used in any manner that
 competes with the business of Gaussian, Inc. or will provide
 assistance to any competitor of Gaussian, Inc.  The licensee
 of this program is prohibited from giving any competitor of
 Gaussian, Inc. access to this program.  By using this program,
 the user acknowledges that Gaussian, Inc. is engaged in the
 business of creating and licensing software in the field of
 computational chemistry and represents and warrants to the
 licensee that it is not a competitor of Gaussian, Inc. and that
 it will not use this program in any manner prohibited above.
 ---------------------------------------------------------------
  

 Cite this work as:
 Gaussian 03, Revision E.01,
 M. J. Frisch, G. W. Trucks, H. B. Schlegel, G. E. Scuseria, 
 M. A. Robb, J. R. Cheeseman, J. A. Montgomery, Jr., T. Vreven, 
 K. N. Kudin, J. C. Burant, J. M. Millam, S. S. Iyengar, J. Tomasi, 
 V. Barone, B. Mennucci, M. Cossi, G. Scalmani, N. Rega, 
 G. A. Petersson, H. Nakatsuji, M. Hada, M. Ehara, K. Toyota, 
 R. Fukuda, J. Hasegawa, M. Ishida, T. Nakajima, Y. Honda, O. Kitao, 
 H. Nakai, M. Klene, X. Li, J. E. Knox, H. P. Hratchian, J. B. Cross, 
 V. Bakken, C. Adamo, J. Jaramillo, R. Gomperts, R. E. Stratmann, 
 O. Yazyev, A. J. Austin, R. Cammi, C. Pomelli, J. W. Ochterski, 
 P. Y. Ayala, K. Morokuma, G. A. Voth, P. Salvador, J. J. Dannenberg, 
 V. G. Zakrzewski, S. Dapprich, A. D. Daniels, M. C. Strain, 
 O. Farkas, D. K. Malick, A. D. Rabuck, K. Raghavachari, 
 J. B. Foresman, J. V. Ortiz, Q. Cui, A. G. Baboul, S. Clifford, 
 J. Cioslowski, B. B. Stefanov, G. Liu, A. Liashenko, P. Piskorz, 
 I. Komaromi, R. L. Martin, D. J. Fox, T. Keith, M. A. Al-Laham, 
 C. Y. Peng, A. Nanayakkara, M. Challacombe, P. M. W. Gill, 
 B. Johnson, W. Chen, M. W. Wong, C. Gonzalez, and J. A. Pople, 
 Gaussian, Inc., Wallingford CT, 2004.
 
 ******************************************
 Gaussian 03:  EM64T-G03RevE.01 11-Sep-2007
                12-Jun-2015 
 ******************************************
 %nproc=2
 Will use up to    2 processors via shared memory.
 Default route:  MP2=Direct MaxDisk=2000MB
 ----------------------------------------------------
 # b3lyp/6-31+G(d,p) int=ultrafine pop=(ReadRadii,MK)
 ----------------------------------------------------

 Warning!  SCF SP cutoffs with diffuse functions may be unreliable.
 Consider SCF=Tight

 1/38=1/1;
 2/17=6,18=5,40=1/2;
 3/5=1,6=6,7=111,11=2,16=1,25=1,30=1,74=-5,75=5/1,2,3;
 4//1;
 5/5=2,32=1,38=5/2;
 6/7=2,8=2,9=2,10=2,15=8,20=101,28=1/1,2;
 99/5=1,9=1/99;
 ----------------------------------
 Ca3PO4_3.mol2_plusQ.z51452.zip.xyz
 ----------------------------------
 Symbolic Z-matrix:
 Charge =  1 Multiplicity = 1
 O                    -2.23967  -0.00074   1.33084 
 O                    -0.58876   1.25363  -0.10967 
 O                    -0.58544  -1.25373  -0.1075 
 O                     2.69194   0.00131  -0.33282 
 P                    -0.69211   0.00092   1.03506 
 Ca                   -2.4392   -0.00177  -0.9364 
 Ca                    1.6251   -1.81788  -0.07594 
 Ca                    1.62195   1.81877  -0.0763 
 
                          Input orientation:                          
 ---------------------------------------------------------------------
 Center     Atomic     Atomic              Coordinates (Angstroms)
 Number     Number      Type              X           Y           Z
 ---------------------------------------------------------------------
    1          8             0       -2.239670   -0.000740    1.330840
    2          8             0       -0.588760    1.253630   -0.109670
    3          8             0       -0.585440   -1.253730   -0.107500
    4          8             0        2.691940    0.001310   -0.332820
    5         15             0       -0.692110    0.000920    1.035060
    6         20             0       -2.439200   -0.001770   -0.936400
    7         20             0        1.625100   -1.817880   -0.075940
    8         20             0        1.621950    1.818770   -0.076300
 ---------------------------------------------------------------------
                    Distance matrix (angstroms):
                    1          2          3          4          5
     1  O    0.000000
     2  O    2.524682   0.000000
     3  O    2.524932   2.507363   0.000000
     4  O    5.204666   3.518678   3.516691   0.000000
     5  P    1.575573   1.700109   1.700285   3.650053   0.000000
     6  Ca   2.276003   2.384039   2.385562   5.166519   2.634195
     7  Ca   4.496385   3.786355   2.281611   2.124520   3.148304
     8  Ca   4.494749   2.282046   3.783358   2.124580   3.145564
                    6          7          8
     6  Ca   0.000000
     7  Ca   4.534003   0.000000
     8  Ca   4.532888   3.636651   0.000000
 Stoichiometry    Ca3O4P(1+)
 Framework group  C1[X(Ca3O4P)]
 Deg. of freedom    18
 Full point group                 C1
 Largest Abelian subgroup         C1      NOp   1
 Largest concise Abelian subgroup C1      NOp   1
                         Standard orientation:                         
 ---------------------------------------------------------------------
 Center     Atomic     Atomic              Coordinates (Angstroms)
 Number     Number      Type              X           Y           Z
 ---------------------------------------------------------------------
    1          8             0       -2.239669   -0.000742    1.330841
    2          8             0       -0.588761    1.253630   -0.109669
    3          8             0       -0.585438   -1.253730   -0.107499
    4          8             0        2.691941    0.001314   -0.332819
    5         15             0       -0.692109    0.000920    1.035061
    6         20             0       -2.439199   -0.001773   -0.936399
    7         20             0        1.625103   -1.817878   -0.075939
    8         20             0        1.621949    1.818772   -0.076299
 ---------------------------------------------------------------------
 Rotational constants (GHZ):      1.2216192      0.6566798      0.5130889
 Standard basis: 6-31+G(d,p) (6D, 7F)
 There are   180 symmetry adapted basis functions of A   symmetry.
 Integral buffers will be    131072 words long.
 Raffenetti 2 integral format.
 Two-electron integral symmetry is turned on.
   180 basis functions,   424 primitive gaussians,   180 cartesian basis functions
    53 alpha electrons       53 beta electrons
       nuclear repulsion energy       872.1628269432 Hartrees.
 NAtoms=    8 NActive=    8 NUniq=    8 SFac= 7.50D-01 NAtFMM=   80 NAOKFM=F Big=F
 One-electron integrals computed using PRISM.
 NBasis=   180 RedAO= T  NBF=   180
 NBsUse=   180 1.00D-06 NBFU=   180
 Harris functional with IExCor=  402 diagonalized for initial guess.
 ExpMin= 7.10D-03 ExpMax= 3.53D+04 ExpMxC= 5.30D+03 IAcc=3 IRadAn=         5 AccDes= 0.00D+00
 HarFok:  IExCor= 402 AccDes= 0.00D+00 IRadAn=         5 IDoV=1
 ScaDFX=  1.000000  1.000000  1.000000  1.000000
 Initial guess orbital symmetries:
       Occupied  (A) (A) (A) (A) (A) (A) (A) (A) (A) (A) (A) (A)
                 (A) (A) (A) (A) (A) (A) (A) (A) (A) (A) (A) (A)
                 (A) (A) (A) (A) (A) (A) (A) (A) (A) (A) (A) (A)
                 (A) (A) (A) (A) (A) (A) (A) (A) (A) (A) (A) (A)
                 (A) (A) (A) (A) (A)
       Virtual   (A) (A) (A) (A) (A) (A) (A) (A) (A) (A) (A) (A)
                 (A) (A) (A) (A) (A) (A) (A) (A) (A) (A) (A) (A)
                 (A) (A) (A) (A) (A) (A) (A) (A) (A) (A) (A) (A)
                 (A) (A) (A) (A) (A) (A) (A) (A) (A) (A) (A) (A)
                 (A) (A) (A) (A) (A) (A) (A) (A) (A) (A) (A) (A)
                 (A) (A) (A) (A) (A) (A) (A) (A) (A) (A) (A) (A)
                 (A) (A) (A) (A) (A) (A) (A) (A) (A) (A) (A) (A)
                 (A) (A) (A) (A) (A) (A) (A) (A) (A) (A) (A) (A)
                 (A) (A) (A) (A) (A) (A) (A) (A) (A) (A) (A) (A)
                 (A) (A) (A) (A) (A) (A) (A) (A) (A) (A) (A) (A)
                 (A) (A) (A) (A) (A) (A) (A)
 The electronic state of the initial guess is 1-A.
 Requested convergence on RMS density matrix=1.00D-04 within 128 cycles.
 Requested convergence on MAX density matrix=1.00D-02.
 Requested convergence on             energy=1.00D-02.
 No special actions if energy rises.
 SCF Done:  E(RB+HF-LYP) =  -2674.99967799     A.U. after    8 cycles
             Convg  =    0.9139D-04             -V/T =  2.0027
             S**2   =   0.0000

 **********************************************************************

            Population analysis using the SCF density.

 **********************************************************************

 Orbital symmetries:
       Occupied  (A) (A) (A) (A) (A) (A) (A) (A) (A) (A) (A) (A)
                 (A) (A) (A) (A) (A) (A) (A) (A) (A) (A) (A) (A)
                 (A) (A) (A) (A) (A) (A) (A) (A) (A) (A) (A) (A)
                 (A) (A) (A) (A) (A) (A) (A) (A) (A) (A) (A) (A)
                 (A) (A) (A) (A) (A)
       Virtual   (A) (A) (A) (A) (A) (A) (A) (A) (A) (A) (A) (A)
                 (A) (A) (A) (A) (A) (A) (A) (A) (A) (A) (A) (A)
                 (A) (A) (A) (A) (A) (A) (A) (A) (A) (A) (A) (A)
                 (A) (A) (A) (A) (A) (A) (A) (A) (A) (A) (A) (A)
                 (A) (A) (A) (A) (A) (A) (A) (A) (A) (A) (A) (A)
                 (A) (A) (A) (A) (A) (A) (A) (A) (A) (A) (A) (A)
                 (A) (A) (A) (A) (A) (A) (A) (A) (A) (A) (A) (A)
                 (A) (A) (A) (A) (A) (A) (A) (A) (A) (A) (A) (A)
                 (A) (A) (A) (A) (A) (A) (A) (A) (A) (A) (A) (A)
                 (A) (A) (A) (A) (A) (A) (A) (A) (A) (A) (A) (A)
                 (A) (A) (A) (A) (A) (A) (A)
 The electronic state is 1-A.
 Alpha  occ. eigenvalues -- -145.52892-145.48523-145.48522 -77.24507 -19.21560
 Alpha  occ. eigenvalues --  -19.21556 -19.18909 -19.12195 -15.59689 -15.55426
 Alpha  occ. eigenvalues --  -15.55425 -12.72871 -12.72867 -12.72855 -12.68678
 Alpha  occ. eigenvalues --  -12.68677 -12.68610 -12.68608 -12.68485 -12.68483
 Alpha  occ. eigenvalues --   -6.69823  -4.86203  -4.86126  -4.85705  -1.96733
 Alpha  occ. eigenvalues --   -1.92692  -1.92666  -1.24711  -1.23995  -1.23959
 Alpha  occ. eigenvalues --   -1.20601  -1.20530  -1.20415  -1.20158  -1.19801
 Alpha  occ. eigenvalues --   -1.19308  -1.06949  -0.99973  -0.99927  -0.86580
 Alpha  occ. eigenvalues --   -0.61880  -0.49711  -0.49544  -0.48418  -0.42891
 Alpha  occ. eigenvalues --   -0.42357  -0.38147  -0.37915  -0.34575  -0.32844
 Alpha  occ. eigenvalues --   -0.32550  -0.30672  -0.30269
 Alpha virt. eigenvalues --   -0.20424  -0.18311  -0.17402  -0.12508  -0.11991
 Alpha virt. eigenvalues --   -0.10386  -0.10052  -0.08963  -0.08370  -0.08013
 Alpha virt. eigenvalues --   -0.07399  -0.06926  -0.06470  -0.05553  -0.05313
 Alpha virt. eigenvalues --   -0.05095  -0.04607  -0.04478  -0.04078  -0.03981
 Alpha virt. eigenvalues --   -0.03807  -0.03344  -0.03204  -0.03013  -0.02989
 Alpha virt. eigenvalues --   -0.02112  -0.00741   0.00381   0.00950   0.02179
 Alpha virt. eigenvalues --    0.02498   0.03695   0.04457   0.04597   0.05065
 Alpha virt. eigenvalues --    0.05153   0.05658   0.06259   0.06269   0.07335
 Alpha virt. eigenvalues --    0.07875   0.08137   0.08734   0.09152   0.09677
 Alpha virt. eigenvalues --    0.10492   0.10816   0.11180   0.11893   0.13945
 Alpha virt. eigenvalues --    0.15104   0.15327   0.15876   0.18526   0.20326
 Alpha virt. eigenvalues --    0.21766   0.22075   0.22898   0.23321   0.24876
 Alpha virt. eigenvalues --    0.25873   0.25889   0.27083   0.28292   0.28716
 Alpha virt. eigenvalues --    0.29952   0.33033   0.34505   0.37733   0.38560
 Alpha virt. eigenvalues --    0.39647   0.40749   0.44929   0.46915   0.48899
 Alpha virt. eigenvalues --    0.54417   0.59553   0.59742   0.64621   0.68999
 Alpha virt. eigenvalues --    0.69436   0.74886   0.88727   0.89361   0.91481
 Alpha virt. eigenvalues --    1.00697   1.12886   1.14373   1.16960   1.17774
 Alpha virt. eigenvalues --    1.18877   1.21566   1.22873   1.24353   1.25177
 Alpha virt. eigenvalues --    1.28333   1.28777   1.31242   1.46744   1.51247
 Alpha virt. eigenvalues --    1.55720   1.70962   1.73517   1.77162   1.77837
 Alpha virt. eigenvalues --    1.79148   1.80254   1.80578   1.84699   1.84844
 Alpha virt. eigenvalues --    1.85621   1.86061   1.88380   1.91418   1.95592
 Alpha virt. eigenvalues --    1.96186   2.00818   2.03128   2.10231   2.40159
 Alpha virt. eigenvalues --    2.50611   2.70521   3.51435   3.96522   4.03538
 Alpha virt. eigenvalues --    4.09012   4.17560
          Condensed to atoms (all electrons):
              1          2          3          4          5          6
     1  O    8.727330   0.011715   0.011605   0.004235  -0.020599   0.119861
     2  O    0.011715   9.126735   0.110590   0.012015  -0.461595   0.027099
     3  O    0.011605   0.110590   9.126846   0.012015  -0.461071   0.026958
     4  O    0.004235   0.012015   0.012015   8.774014  -0.063798  -0.000818
     5  P   -0.020599  -0.461595  -0.461071  -0.063798  15.186095   0.169916
     6  Ca   0.119861   0.027099   0.026958  -0.000818   0.169916  18.314169
     7  Ca   0.012978   0.024003   0.106735   0.223020  -0.049468  -0.018728
     8  Ca   0.013044   0.106893   0.024070   0.223019  -0.049516  -0.018763
              7          8
     1  O    0.012978   0.013044
     2  O    0.024003   0.106893
     3  O    0.106735   0.024070
     4  O    0.223020   0.223019
     5  P   -0.049468  -0.049516
     6  Ca  -0.018728  -0.018763
     7  Ca  18.289434  -0.012441
     8  Ca  -0.012441  18.289427
 Mulliken atomic charges:
              1
     1  O   -0.880168
     2  O   -0.957456
     3  O   -0.957748
     4  O   -1.183703
     5  P    0.750036
     6  Ca   1.380306
     7  Ca   1.424467
     8  Ca   1.424267
 Sum of Mulliken charges=   1.00000
 Atomic charges with hydrogens summed into heavy atoms:
              1
     1  O   -0.880168
     2  O   -0.957456
     3  O   -0.957748
     4  O   -1.183703
     5  P    0.750036
     6  Ca   1.380306
     7  Ca   1.424467
     8  Ca   1.424267
 Sum of Mulliken charges=   1.00000
 Electronic spatial extent (au):  <R**2>=  2050.1060
 Charge=     1.0000 electrons
 Dipole moment (field-independent basis, Debye):
    X=    -1.4956    Y=    -0.0123    Z=    -7.5064  Tot=     7.6540
 Quadrupole moment (field-independent basis, Debye-Ang):
   XX=   -53.1686   YY=   -32.2876   ZZ=   -70.0553
   XY=    -0.0162   XZ=    28.1177   YZ=     0.0211
 Traceless Quadrupole moment (field-independent basis, Debye-Ang):
   XX=    -1.3314   YY=    19.5496   ZZ=   -18.2182
   XY=    -0.0162   XZ=    28.1177   YZ=     0.0211
 Octapole moment (field-independent basis, Debye-Ang**2):
  XXX=  -138.0535  YYY=     0.0657  ZZZ=   -33.9300  XYY=    98.7533
  XXY=    -0.2924  XXZ=   -59.5303  XZZ=    -9.7185  YZZ=    -0.0327
  YYZ=    -7.9408  XYZ=    -0.0551
 Hexadecapole moment (field-independent basis, Debye-Ang**3):
 XXXX= -1416.9477 YYYY=  -414.5417 ZZZZ=  -306.5355 XXXY=    -0.3586
 XXXZ=   249.7311 YYYX=    -0.0264 YYYZ=     0.0232 ZZZX=    75.7351
 ZZZY=     0.0133 XXYY=  -179.5695 XXZZ=  -268.6361 YYZZ=  -140.0053
 XXYZ=     0.1294 YYXZ=     7.4808 ZZXY=    -0.0017
 N-N= 8.721628269432D+02 E-N=-8.069627046001D+03  KE= 2.667722401681D+03
 Merz-Kollman atomic radii used.
 Read replacement radii for each type of atom:
 Rad(20) =   1.188000000000D+00
 Atom Element Radius
    1     8    1.40
    2     8    1.40
    3     8    1.40
    4     8    1.40
    5    15    1.80
    6    20    1.19
    7    20    1.19
    8    20    1.19

 **********************************************************************

            Electrostatic Properties Using The SCF Density

 **********************************************************************

       Atomic Center    1 is at  -2.239669 -0.000742  1.330841
       Atomic Center    2 is at  -0.588761  1.253630 -0.109669
       Atomic Center    3 is at  -0.585438 -1.253730 -0.107499
       Atomic Center    4 is at   2.691941  0.001314 -0.332819
       Atomic Center    5 is at  -0.692109  0.000920  1.035061
       Atomic Center    6 is at  -2.439199 -0.001773 -0.936399
       Atomic Center    7 is at   1.625103 -1.817878 -0.075939
       Atomic Center    8 is at   1.621949  1.818772 -0.076299
     721 points will be used for fitting atomic charges
 Fitting point charges to eletrostatic potential
 Charges from ESP fit, RMS=   0.00731 RRMS=   0.04604:
 Charge=   1.00000 Dipole=    -1.6478    -0.0133    -7.7123 Tot=     7.8864
              1
     1  O   -0.572799
     2  O   -1.023301
     3  O   -1.023463
     4  O   -1.564138
     5  P    0.185829
     6  Ca   1.625161
     7  Ca   1.686424
     8  Ca   1.686286
 -----------------------------------------------------------------

              Electrostatic Properties (Atomic Units)

 -----------------------------------------------------------------
    Center     Electric         -------- Electric Field --------
               Potential          X             Y             Z
 -----------------------------------------------------------------
    1 Atom    -22.271993
    2 Atom    -22.260124
    3 Atom    -22.260099
    4 Atom    -22.349902
    5 Atom    -53.969464
    6 Atom    -80.011262
    7 Atom    -80.059924
    8 Atom    -80.059936
 -----------------------------------------------------------------
 1\1\GINC-N032\SP\RB3LYP\6-31+G(d,p)\Ca3O4P1(1+)\TIMN\12-Jun-2015\0\\# 
 b3lyp/6-31+G(d,p) int=ultrafine pop=(ReadRadii,MK)\\Ca3PO4_3.mol2_plus
 Q.z51452.zip.xyz\\1,1\O,0,-2.23967,-0.00074,1.33084\O,0,-0.58876,1.253
 63,-0.10967\O,0,-0.58544,-1.25373,-0.1075\O,0,2.69194,0.00131,-0.33282
 \P,0,-0.69211,0.00092,1.03506\Ca,0,-2.4392,-0.00177,-0.9364\Ca,0,1.625
 1,-1.81788,-0.07594\Ca,0,1.62195,1.81877,-0.0763\\Version=EM64T-G03Rev
 E.01\State=1-A\HF=-2674.999678\RMSD=9.139e-05\Thermal=0.\Dipole=-0.588
 4174,-0.0048294,-2.9532493\PG=C01 [X(Ca3O4P1)]\\@


 NO HUMAN INVESTIGATION CAN BECOME REAL SCIENCE
 WITHOUT GOING THROUGH MATHEMATICAL PEOPLE.
 -- LEONARDO DA VINCI, IN "PENSIERI" CA. 1492
 Job cpu time:  0 days  0 hours  1 minutes 35.5 seconds.
 File lengths (MBytes):  RWF=     32 Int=      0 D2E=      0 Chk=     11 Scr=      1
 Normal termination of Gaussian 03 at Fri Jun 12 17:43:09 2015.
