 Entering Gaussian System, Link 0=/home/timn/tmp/g03.e01/g03
 Input=Ca3PO4_60.mol2c_plusQ.z51475.zip.xyz.gjf
 Output=Ca3PO4_60.mol2c_plusQ.z51475.zip.xyz.out
 Initial command:
 /home/timn/tmp/g03.e01/l1.exe /home/timn/tmp/g03.e01/Gau-17494.inp -scrdir=/home/timn/tmp/g03.e01/
 Default is to use a total of   2 processors:
                                2 via shared-memory
                                1 via Linda
 Entering Link 1 = /home/timn/tmp/g03.e01/l1.exe PID=     17495.
  
 Copyright (c) 1988,1990,1992,1993,1995,1998,2003,2004,2007, Gaussian, Inc.
                  All Rights Reserved.
  
 This is the Gaussian(R) 03 program.  It is based on the
 the Gaussian(R) 98 system (copyright 1998, Gaussian, Inc.),
 the Gaussian(R) 94 system (copyright 1995, Gaussian, Inc.),
 the Gaussian 92(TM) system (copyright 1992, Gaussian, Inc.),
 the Gaussian 90(TM) system (copyright 1990, Gaussian, Inc.),
 the Gaussian 88(TM) system (copyright 1988, Gaussian, Inc.),
 the Gaussian 86(TM) system (copyright 1986, Carnegie Mellon
 University), and the Gaussian 82(TM) system (copyright 1983,
 Carnegie Mellon University). Gaussian is a federally registered
 trademark of Gaussian, Inc.
  
 This software contains proprietary and confidential information,
 including trade secrets, belonging to Gaussian, Inc.
  
 This software is provided under written license and may be
 used, copied, transmitted, or stored only in accord with that
 written license.
  
 The following legend is applicable only to US Government
 contracts under FAR:
  
                    RESTRICTED RIGHTS LEGEND
  
 Use, reproduction and disclosure by the US Government is
 subject to restrictions as set forth in subparagraphs (a)
 and (c) of the Commercial Computer Software - Restricted
 Rights clause in FAR 52.227-19.
  
 Gaussian, Inc.
 340 Quinnipiac St., Bldg. 40, Wallingford CT 06492
  
  
 ---------------------------------------------------------------
 Warning -- This program may not be used in any manner that
 competes with the business of Gaussian, Inc. or will provide
 assistance to any competitor of Gaussian, Inc.  The licensee
 of this program is prohibited from giving any competitor of
 Gaussian, Inc. access to this program.  By using this program,
 the user acknowledges that Gaussian, Inc. is engaged in the
 business of creating and licensing software in the field of
 computational chemistry and represents and warrants to the
 licensee that it is not a competitor of Gaussian, Inc. and that
 it will not use this program in any manner prohibited above.
 ---------------------------------------------------------------
  

 Cite this work as:
 Gaussian 03, Revision E.01,
 M. J. Frisch, G. W. Trucks, H. B. Schlegel, G. E. Scuseria, 
 M. A. Robb, J. R. Cheeseman, J. A. Montgomery, Jr., T. Vreven, 
 K. N. Kudin, J. C. Burant, J. M. Millam, S. S. Iyengar, J. Tomasi, 
 V. Barone, B. Mennucci, M. Cossi, G. Scalmani, N. Rega, 
 G. A. Petersson, H. Nakatsuji, M. Hada, M. Ehara, K. Toyota, 
 R. Fukuda, J. Hasegawa, M. Ishida, T. Nakajima, Y. Honda, O. Kitao, 
 H. Nakai, M. Klene, X. Li, J. E. Knox, H. P. Hratchian, J. B. Cross, 
 V. Bakken, C. Adamo, J. Jaramillo, R. Gomperts, R. E. Stratmann, 
 O. Yazyev, A. J. Austin, R. Cammi, C. Pomelli, J. W. Ochterski, 
 P. Y. Ayala, K. Morokuma, G. A. Voth, P. Salvador, J. J. Dannenberg, 
 V. G. Zakrzewski, S. Dapprich, A. D. Daniels, M. C. Strain, 
 O. Farkas, D. K. Malick, A. D. Rabuck, K. Raghavachari, 
 J. B. Foresman, J. V. Ortiz, Q. Cui, A. G. Baboul, S. Clifford, 
 J. Cioslowski, B. B. Stefanov, G. Liu, A. Liashenko, P. Piskorz, 
 I. Komaromi, R. L. Martin, D. J. Fox, T. Keith, M. A. Al-Laham, 
 C. Y. Peng, A. Nanayakkara, M. Challacombe, P. M. W. Gill, 
 B. Johnson, W. Chen, M. W. Wong, C. Gonzalez, and J. A. Pople, 
 Gaussian, Inc., Wallingford CT, 2004.
 
 ******************************************
 Gaussian 03:  EM64T-G03RevE.01 11-Sep-2007
                12-Jun-2015 
 ******************************************
 %nproc=2
 Will use up to    2 processors via shared memory.
 Default route:  MP2=Direct MaxDisk=2000MB
 ----------------------------------------------------
 # b3lyp/6-31+G(d,p) int=ultrafine pop=(ReadRadii,MK)
 ----------------------------------------------------

 Warning!  SCF SP cutoffs with diffuse functions may be unreliable.
 Consider SCF=Tight

 1/38=1/1;
 2/17=6,18=5,40=1/2;
 3/5=1,6=6,7=111,11=2,16=1,25=1,30=1,74=-5,75=5/1,2,3;
 4//1;
 5/5=2,32=1,38=5/2;
 6/7=2,8=2,9=2,10=2,15=8,20=101,28=1/1,2;
 99/5=1,9=1/99;
 ------------------------------------
 Ca3PO4_60.mol2c_plusQ.z51475.zip.xyz
 ------------------------------------
 Symbolic Z-matrix:
 Charge =  1 Multiplicity = 1
 O                    -2.94121  -1.06529  -0.00042 
 O                     1.43817  -1.36406  -0.7836 
 O                    -1.42846   0.89938   0.00006 
 O                     1.43798  -1.36251   0.7843 
 P                    -2.94305   0.46662  -0.00048 
 Ca                    3.07174  -0.02897  -0.00053 
 Ca                    0.37469   2.44432   0.00026 
 Ca                   -0.64172  -1.60833   0.00049 
 
                          Input orientation:                          
 ---------------------------------------------------------------------
 Center     Atomic     Atomic              Coordinates (Angstroms)
 Number     Number      Type              X           Y           Z
 ---------------------------------------------------------------------
    1          8             0       -2.941210   -1.065290   -0.000420
    2          8             0        1.438170   -1.364060   -0.783600
    3          8             0       -1.428460    0.899380    0.000060
    4          8             0        1.437980   -1.362510    0.784300
    5         15             0       -2.943050    0.466620   -0.000480
    6         20             0        3.071740   -0.028970   -0.000530
    7         20             0        0.374690    2.444320    0.000260
    8         20             0       -0.641720   -1.608330    0.000490
 ---------------------------------------------------------------------
                    Distance matrix (angstroms):
                    1          2          3          4          5
     1  O    0.000000
     2  O    4.458879   0.000000
     3  O    2.479585   3.735619   0.000000
     4  O    4.458860   1.567901   3.734656   0.000000
     5  P    1.531911   4.812458   1.575203   4.811966   0.000000
     6  Ca   6.101600   2.250381   4.594957   2.250213   6.035173
     7  Ca   4.828308   4.031028   2.374487   4.029548   3.862473
     8  Ca   2.362742   2.236159   2.628226   2.236054   3.098635
                    6          7          8
     6  Ca   0.000000
     7  Ca   3.659405   0.000000
     8  Ca   4.035364   4.178165   0.000000
 Stoichiometry    Ca3O4P(1+)
 Framework group  C1[X(Ca3O4P)]
 Deg. of freedom    18
 Full point group                 C1
 Largest Abelian subgroup         C1      NOp   1
 Largest concise Abelian subgroup C1      NOp   1
                         Standard orientation:                         
 ---------------------------------------------------------------------
 Center     Atomic     Atomic              Coordinates (Angstroms)
 Number     Number      Type              X           Y           Z
 ---------------------------------------------------------------------
    1          8             0       -2.941213   -1.065287   -0.000419
    2          8             0        1.438166   -1.364060   -0.783599
    3          8             0       -1.428462    0.899382    0.000061
    4          8             0        1.437976   -1.362510    0.784301
    5         15             0       -2.943052    0.466623   -0.000479
    6         20             0        3.071737   -0.028971   -0.000529
    7         20             0        0.374689    2.444321    0.000261
    8         20             0       -0.641724   -1.608328    0.000491
 ---------------------------------------------------------------------
 Rotational constants (GHZ):      1.1007704      0.5468264      0.3760268
 Standard basis: 6-31+G(d,p) (6D, 7F)
 There are   180 symmetry adapted basis functions of A   symmetry.
 Integral buffers will be    131072 words long.
 Raffenetti 2 integral format.
 Two-electron integral symmetry is turned on.
   180 basis functions,   424 primitive gaussians,   180 cartesian basis functions
    53 alpha electrons       53 beta electrons
       nuclear repulsion energy       802.8801582913 Hartrees.
 NAtoms=    8 NActive=    8 NUniq=    8 SFac= 7.50D-01 NAtFMM=   80 NAOKFM=F Big=F
 One-electron integrals computed using PRISM.
 NBasis=   180 RedAO= T  NBF=   180
 NBsUse=   180 1.00D-06 NBFU=   180
 Harris functional with IExCor=  402 diagonalized for initial guess.
 ExpMin= 7.10D-03 ExpMax= 3.53D+04 ExpMxC= 5.30D+03 IAcc=3 IRadAn=         5 AccDes= 0.00D+00
 HarFok:  IExCor= 402 AccDes= 0.00D+00 IRadAn=         5 IDoV=1
 ScaDFX=  1.000000  1.000000  1.000000  1.000000
 Initial guess orbital symmetries:
       Occupied  (A) (A) (A) (A) (A) (A) (A) (A) (A) (A) (A) (A)
                 (A) (A) (A) (A) (A) (A) (A) (A) (A) (A) (A) (A)
                 (A) (A) (A) (A) (A) (A) (A) (A) (A) (A) (A) (A)
                 (A) (A) (A) (A) (A) (A) (A) (A) (A) (A) (A) (A)
                 (A) (A) (A) (A) (A)
       Virtual   (A) (A) (A) (A) (A) (A) (A) (A) (A) (A) (A) (A)
                 (A) (A) (A) (A) (A) (A) (A) (A) (A) (A) (A) (A)
                 (A) (A) (A) (A) (A) (A) (A) (A) (A) (A) (A) (A)
                 (A) (A) (A) (A) (A) (A) (A) (A) (A) (A) (A) (A)
                 (A) (A) (A) (A) (A) (A) (A) (A) (A) (A) (A) (A)
                 (A) (A) (A) (A) (A) (A) (A) (A) (A) (A) (A) (A)
                 (A) (A) (A) (A) (A) (A) (A) (A) (A) (A) (A) (A)
                 (A) (A) (A) (A) (A) (A) (A) (A) (A) (A) (A) (A)
                 (A) (A) (A) (A) (A) (A) (A) (A) (A) (A) (A) (A)
                 (A) (A) (A) (A) (A) (A) (A) (A) (A) (A) (A) (A)
                 (A) (A) (A) (A) (A) (A) (A)
 The electronic state of the initial guess is 1-A.
 Requested convergence on RMS density matrix=1.00D-04 within 128 cycles.
 Requested convergence on MAX density matrix=1.00D-02.
 Requested convergence on             energy=1.00D-02.
 No special actions if energy rises.
 EnCoef did    14 forward-backward iterations
 EnCoef did    11 forward-backward iterations
 EnCoef did   100 forward-backward iterations
 EnCoef did     6 forward-backward iterations
 SCF Done:  E(RB+HF-LYP) =  -2674.89970111     A.U. after   10 cycles
             Convg  =    0.9215D-04             -V/T =  2.0027
             S**2   =   0.0000

 **********************************************************************

            Population analysis using the SCF density.

 **********************************************************************

 Orbital symmetries:
       Occupied  (A) (A) (A) (A) (A) (A) (A) (A) (A) (A) (A) (A)
                 (A) (A) (A) (A) (A) (A) (A) (A) (A) (A) (A) (A)
                 (A) (A) (A) (A) (A) (A) (A) (A) (A) (A) (A) (A)
                 (A) (A) (A) (A) (A) (A) (A) (A) (A) (A) (A) (A)
                 (A) (A) (A) (A) (A)
       Virtual   (A) (A) (A) (A) (A) (A) (A) (A) (A) (A) (A) (A)
                 (A) (A) (A) (A) (A) (A) (A) (A) (A) (A) (A) (A)
                 (A) (A) (A) (A) (A) (A) (A) (A) (A) (A) (A) (A)
                 (A) (A) (A) (A) (A) (A) (A) (A) (A) (A) (A) (A)
                 (A) (A) (A) (A) (A) (A) (A) (A) (A) (A) (A) (A)
                 (A) (A) (A) (A) (A) (A) (A) (A) (A) (A) (A) (A)
                 (A) (A) (A) (A) (A) (A) (A) (A) (A) (A) (A) (A)
                 (A) (A) (A) (A) (A) (A) (A) (A) (A) (A) (A) (A)
                 (A) (A) (A) (A) (A) (A) (A) (A) (A) (A) (A) (A)
                 (A) (A) (A) (A) (A) (A) (A) (A) (A) (A) (A) (A)
                 (A) (A) (A) (A) (A) (A) (A)
 The electronic state is 1-A.
 Alpha  occ. eigenvalues -- -145.52338-145.50718-145.50191 -77.31388 -19.29851
 Alpha  occ. eigenvalues --  -19.28750 -19.24338 -19.24318 -15.59311 -15.57657
 Alpha  occ. eigenvalues --  -15.57066 -12.72496 -12.72489 -12.72392 -12.70871
 Alpha  occ. eigenvalues --  -12.70842 -12.70744 -12.70313 -12.70296 -12.70119
 Alpha  occ. eigenvalues --   -6.77008  -4.93440  -4.93214  -4.92790  -1.96407
 Alpha  occ. eigenvalues --   -1.94811  -1.94310  -1.23853  -1.23848  -1.23554
 Alpha  occ. eigenvalues --   -1.23060  -1.22277  -1.22254  -1.22213  -1.22011
 Alpha  occ. eigenvalues --   -1.21706  -1.15403  -1.09685  -1.06938  -0.88057
 Alpha  occ. eigenvalues --   -0.68618  -0.57516  -0.55017  -0.54096  -0.47730
 Alpha  occ. eigenvalues --   -0.46976  -0.46595  -0.45451  -0.45061  -0.42324
 Alpha  occ. eigenvalues --   -0.36133  -0.32533  -0.27710
 Alpha virt. eigenvalues --   -0.21333  -0.19758  -0.16291  -0.15441  -0.14264
 Alpha virt. eigenvalues --   -0.12625  -0.11989  -0.10583  -0.10037  -0.09316
 Alpha virt. eigenvalues --   -0.08135  -0.07650  -0.07576  -0.06736  -0.06004
 Alpha virt. eigenvalues --   -0.05565  -0.05484  -0.05248  -0.05154  -0.04534
 Alpha virt. eigenvalues --   -0.04490  -0.04201  -0.04101  -0.03539  -0.03270
 Alpha virt. eigenvalues --   -0.03112  -0.02985  -0.02733  -0.02597  -0.01777
 Alpha virt. eigenvalues --    0.00460   0.00671   0.01858   0.02552   0.03477
 Alpha virt. eigenvalues --    0.03807   0.04010   0.04392   0.04467   0.05548
 Alpha virt. eigenvalues --    0.05997   0.06448   0.07076   0.07617   0.07719
 Alpha virt. eigenvalues --    0.07901   0.08898   0.08956   0.09700   0.10449
 Alpha virt. eigenvalues --    0.10593   0.10754   0.11903   0.13338   0.15980
 Alpha virt. eigenvalues --    0.16773   0.17397   0.18450   0.18803   0.20078
 Alpha virt. eigenvalues --    0.20578   0.22014   0.23321   0.24106   0.26525
 Alpha virt. eigenvalues --    0.29905   0.30930   0.31259   0.32532   0.34061
 Alpha virt. eigenvalues --    0.35376   0.36992   0.37856   0.39464   0.40086
 Alpha virt. eigenvalues --    0.44174   0.48038   0.54175   0.56280   0.58712
 Alpha virt. eigenvalues --    0.60554   0.65701   0.79272   0.88885   0.90410
 Alpha virt. eigenvalues --    0.94389   1.03757   1.07472   1.08028   1.10373
 Alpha virt. eigenvalues --    1.12080   1.12243   1.16457   1.18141   1.21848
 Alpha virt. eigenvalues --    1.24159   1.26002   1.28978   1.36844   1.45345
 Alpha virt. eigenvalues --    1.49250   1.50737   1.57553   1.60728   1.64033
 Alpha virt. eigenvalues --    1.67358   1.71144   1.72860   1.73579   1.81802
 Alpha virt. eigenvalues --    1.82308   1.82795   1.86626   1.87434   1.89349
 Alpha virt. eigenvalues --    2.00382   2.05639   2.18123   2.18921   2.50440
 Alpha virt. eigenvalues --    2.68209   3.01811   3.38447   3.85494   3.88853
 Alpha virt. eigenvalues --    3.98148   4.08231
          Condensed to atoms (all electrons):
              1          2          3          4          5          6
     1  O    8.496265   0.000004  -0.063725   0.000007   0.130943  -0.006207
     2  O    0.000004   8.588936   0.004139  -0.089359  -0.002974   0.048087
     3  O   -0.063725   0.004139   8.980000   0.004139  -0.107012  -0.018449
     4  O    0.000007  -0.089359   0.004139   8.588641  -0.002987   0.047891
     5  P    0.130943  -0.002974  -0.107012  -0.002987  14.325905   0.014333
     6  Ca  -0.006207   0.048087  -0.018449   0.047891   0.014333  18.684473
     7  Ca   0.005443  -0.031035  -0.069936  -0.031121  -0.035267   0.308964
     8  Ca   0.069679   0.108620   0.008740   0.108593  -0.025319   0.007110
              7          8
     1  O    0.005443   0.069679
     2  O   -0.031035   0.108620
     3  O   -0.069936   0.008740
     4  O   -0.031121   0.108593
     5  P   -0.035267  -0.025319
     6  Ca   0.308964   0.007110
     7  Ca  19.217463   0.040608
     8  Ca   0.040608  18.270499
 Mulliken atomic charges:
              1
     1  O   -0.632410
     2  O   -0.626418
     3  O   -0.737895
     4  O   -0.625804
     5  P    0.702378
     6  Ca   0.913799
     7  Ca   0.594880
     8  Ca   1.411470
 Sum of Mulliken charges=   1.00000
 Atomic charges with hydrogens summed into heavy atoms:
              1
     1  O   -0.632410
     2  O   -0.626418
     3  O   -0.737895
     4  O   -0.625804
     5  P    0.702378
     6  Ca   0.913799
     7  Ca   0.594880
     8  Ca   1.411470
 Sum of Mulliken charges=   1.00000
 Electronic spatial extent (au):  <R**2>=  2560.3501
 Charge=     1.0000 electrons
 Dipole moment (field-independent basis, Debye):
    X=     3.3861    Y=     2.1866    Z=     0.0032  Tot=     4.0308
 Quadrupole moment (field-independent basis, Debye-Ang):
   XX=   -48.5072   YY=   -58.6207   ZZ=   -80.4007
   XY=     0.2306   XZ=    -0.0096   YZ=    -0.0033
 Traceless Quadrupole moment (field-independent basis, Debye-Ang):
   XX=    14.0023   YY=     3.8889   ZZ=   -17.8912
   XY=     0.2306   XZ=    -0.0096   YZ=    -0.0033
 Octapole moment (field-independent basis, Debye-Ang**2):
  XXX=   148.5077  YYY=   -15.7582  ZZZ=     0.0089  XYY=   -39.5205
  XXY=   -11.1243  XXZ=    -0.0174  XZZ=   -14.6390  YZZ=   -12.0649
  YYZ=     0.0390  XYZ=     0.0127
 Hexadecapole moment (field-independent basis, Debye-Ang**3):
 XXXX= -1604.2195 YYYY=  -954.2886 ZZZZ=  -178.0359 XXXY=  -168.7329
 XXXZ=    -0.1152 YYYX=   -18.1913 YYYZ=    -0.0062 ZZZX=    -0.0164
 ZZZY=     0.0140 XXYY=  -634.2700 XXZZ=  -374.4665 YYZZ=  -226.5181
 XXYZ=    -0.0012 YYXZ=     0.0032 ZZXY=    -7.5803
 N-N= 8.028801582913D+02 E-N=-7.926624973612D+03  KE= 2.667672755097D+03
 Merz-Kollman atomic radii used.
 Read replacement radii for each type of atom:
 Rad(20) =   1.188000000000D+00
 Atom Element Radius
    1     8    1.40
    2     8    1.40
    3     8    1.40
    4     8    1.40
    5    15    1.80
    6    20    1.19
    7    20    1.19
    8    20    1.19

 **********************************************************************

            Electrostatic Properties Using The SCF Density

 **********************************************************************

       Atomic Center    1 is at  -2.941213 -1.065287 -0.000419
       Atomic Center    2 is at   1.438166 -1.364060 -0.783599
       Atomic Center    3 is at  -1.428462  0.899382  0.000061
       Atomic Center    4 is at   1.437976 -1.362510  0.784301
       Atomic Center    5 is at  -2.943052  0.466623 -0.000479
       Atomic Center    6 is at   3.071737 -0.028971 -0.000529
       Atomic Center    7 is at   0.374689  2.444321  0.000261
       Atomic Center    8 is at  -0.641724 -1.608328  0.000491
     826 points will be used for fitting atomic charges
 Fitting point charges to eletrostatic potential
 Charges from ESP fit, RMS=   0.02595 RRMS=   0.17091:
 Charge=   1.00000 Dipole=     5.0211     5.0732     0.0008 Tot=     7.1379
              1
     1  O   -0.597333
     2  O   -0.692095
     3  O   -0.375668
     4  O   -0.691793
     5  P    0.425793
     6  Ca   0.912383
     7  Ca   0.480088
     8  Ca   1.538626
 -----------------------------------------------------------------

              Electrostatic Properties (Atomic Units)

 -----------------------------------------------------------------
    Center     Electric         -------- Electric Field --------
               Potential          X             Y             Z
 -----------------------------------------------------------------
    1 Atom    -22.178753
    2 Atom    -22.229230
    3 Atom    -22.164764
    4 Atom    -22.228657
    5 Atom    -53.903134
    6 Atom    -80.037396
    7 Atom    -80.019027
    8 Atom    -80.038896
 -----------------------------------------------------------------
 1\1\GINC-N021\SP\RB3LYP\6-31+G(d,p)\Ca3O4P1(1+)\TIMN\12-Jun-2015\0\\# 
 b3lyp/6-31+G(d,p) int=ultrafine pop=(ReadRadii,MK)\\Ca3PO4_60.mol2c_pl
 usQ.z51475.zip.xyz\\1,1\O,0,-2.94121,-1.06529,-0.00042\O,0,1.43817,-1.
 36406,-0.7836\O,0,-1.42846,0.89938,0.00006\O,0,1.43798,-1.36251,0.7843
 \P,0,-2.94305,0.46662,-0.00048\Ca,0,3.07174,-0.02897,-0.00053\Ca,0,0.3
 7469,2.44432,0.00026\Ca,0,-0.64172,-1.60833,0.00049\\Version=EM64T-G03
 RevE.01\State=1-A\HF=-2674.8997011\RMSD=9.215e-05\Thermal=0.\Dipole=1.
 3322046,0.8602791,0.0012648\PG=C01 [X(Ca3O4P1)]\\@


 MODELS ARE TO BE USED, NOT BELIEVED.

    -- PARAPHRASED BY H. THIEL IN "PRINCIPLES OF ECONOMETRICS"
 Job cpu time:  0 days  0 hours  1 minutes 48.7 seconds.
 File lengths (MBytes):  RWF=     32 Int=      0 D2E=      0 Chk=     11 Scr=      1
 Normal termination of Gaussian 03 at Fri Jun 12 17:44:30 2015.
