 Entering Gaussian System, Link 0=/home/timn/tmp/g03.e01/g03
 Input=mol_17.24.50.pdbccc_plusQ.z58303.zip.xyz.gjf
 Output=mol_17.24.50.pdbccc_plusQ.z58303.zip.xyz.out
 Initial command:
 /home/timn/tmp/g03.e01/l1.exe /home/timn/tmp/g03.e01/Gau-12983.inp -scrdir=/home/timn/tmp/g03.e01/
 Default is to use a total of   2 processors:
                                2 via shared-memory
                                1 via Linda
 Entering Link 1 = /home/timn/tmp/g03.e01/l1.exe PID=     12984.
  
 Copyright (c) 1988,1990,1992,1993,1995,1998,2003,2004,2007, Gaussian, Inc.
                  All Rights Reserved.
  
 This is the Gaussian(R) 03 program.  It is based on the
 the Gaussian(R) 98 system (copyright 1998, Gaussian, Inc.),
 the Gaussian(R) 94 system (copyright 1995, Gaussian, Inc.),
 the Gaussian 92(TM) system (copyright 1992, Gaussian, Inc.),
 the Gaussian 90(TM) system (copyright 1990, Gaussian, Inc.),
 the Gaussian 88(TM) system (copyright 1988, Gaussian, Inc.),
 the Gaussian 86(TM) system (copyright 1986, Carnegie Mellon
 University), and the Gaussian 82(TM) system (copyright 1983,
 Carnegie Mellon University). Gaussian is a federally registered
 trademark of Gaussian, Inc.
  
 This software contains proprietary and confidential information,
 including trade secrets, belonging to Gaussian, Inc.
  
 This software is provided under written license and may be
 used, copied, transmitted, or stored only in accord with that
 written license.
  
 The following legend is applicable only to US Government
 contracts under FAR:
  
                    RESTRICTED RIGHTS LEGEND
  
 Use, reproduction and disclosure by the US Government is
 subject to restrictions as set forth in subparagraphs (a)
 and (c) of the Commercial Computer Software - Restricted
 Rights clause in FAR 52.227-19.
  
 Gaussian, Inc.
 340 Quinnipiac St., Bldg. 40, Wallingford CT 06492
  
  
 ---------------------------------------------------------------
 Warning -- This program may not be used in any manner that
 competes with the business of Gaussian, Inc. or will provide
 assistance to any competitor of Gaussian, Inc.  The licensee
 of this program is prohibited from giving any competitor of
 Gaussian, Inc. access to this program.  By using this program,
 the user acknowledges that Gaussian, Inc. is engaged in the
 business of creating and licensing software in the field of
 computational chemistry and represents and warrants to the
 licensee that it is not a competitor of Gaussian, Inc. and that
 it will not use this program in any manner prohibited above.
 ---------------------------------------------------------------
  

 Cite this work as:
 Gaussian 03, Revision E.01,
 M. J. Frisch, G. W. Trucks, H. B. Schlegel, G. E. Scuseria, 
 M. A. Robb, J. R. Cheeseman, J. A. Montgomery, Jr., T. Vreven, 
 K. N. Kudin, J. C. Burant, J. M. Millam, S. S. Iyengar, J. Tomasi, 
 V. Barone, B. Mennucci, M. Cossi, G. Scalmani, N. Rega, 
 G. A. Petersson, H. Nakatsuji, M. Hada, M. Ehara, K. Toyota, 
 R. Fukuda, J. Hasegawa, M. Ishida, T. Nakajima, Y. Honda, O. Kitao, 
 H. Nakai, M. Klene, X. Li, J. E. Knox, H. P. Hratchian, J. B. Cross, 
 V. Bakken, C. Adamo, J. Jaramillo, R. Gomperts, R. E. Stratmann, 
 O. Yazyev, A. J. Austin, R. Cammi, C. Pomelli, J. W. Ochterski, 
 P. Y. Ayala, K. Morokuma, G. A. Voth, P. Salvador, J. J. Dannenberg, 
 V. G. Zakrzewski, S. Dapprich, A. D. Daniels, M. C. Strain, 
 O. Farkas, D. K. Malick, A. D. Rabuck, K. Raghavachari, 
 J. B. Foresman, J. V. Ortiz, Q. Cui, A. G. Baboul, S. Clifford, 
 J. Cioslowski, B. B. Stefanov, G. Liu, A. Liashenko, P. Piskorz, 
 I. Komaromi, R. L. Martin, D. J. Fox, T. Keith, M. A. Al-Laham, 
 C. Y. Peng, A. Nanayakkara, M. Challacombe, P. M. W. Gill, 
 B. Johnson, W. Chen, M. W. Wong, C. Gonzalez, and J. A. Pople, 
 Gaussian, Inc., Wallingford CT, 2004.
 
 ******************************************
 Gaussian 03:  EM64T-G03RevE.01 11-Sep-2007
                12-Jun-2015 
 ******************************************
 %nproc=2
 Will use up to    2 processors via shared memory.
 Default route:  MP2=Direct MaxDisk=2000MB
 ----------------------------------------------------
 # b3lyp/6-31+G(d,p) int=ultrafine pop=(ReadRadii,MK)
 ----------------------------------------------------

 Warning!  SCF SP cutoffs with diffuse functions may be unreliable.
 Consider SCF=Tight

 1/38=1/1;
 2/17=6,18=5,40=1/2;
 3/5=1,6=6,7=111,11=2,16=1,25=1,30=1,74=-5,75=5/1,2,3;
 4//1;
 5/5=2,32=1,38=5/2;
 6/7=2,8=2,9=2,10=2,15=8,20=101,28=1/1,2;
 99/5=1,9=1/99;
 ----------------------------------------
 mol_17.24.50.pdbccc_plusQ.z58303.zip.xyz
 ----------------------------------------
 Symbolic Z-matrix:
 Charge =  1 Multiplicity = 1
 O                    -2.06764  -0.00078   1.10452 
 O                    -0.60732   0.00046   1.52159 
 Ca                   -1.05357   1.67207  -0.13724 
 P                     1.06404   0.00021  -1.53144 
 O                     1.2372    1.28486  -0.44163 
 O                    -0.59133   0.0006   -1.65619 
 Ca                   -1.05445  -1.67142  -0.13818 
 O                     1.23698  -1.28525  -0.44208 
 Ca                    1.62683  -0.00077   1.38953 
 
                          Input orientation:                          
 ---------------------------------------------------------------------
 Center     Atomic     Atomic              Coordinates (Angstroms)
 Number     Number      Type              X           Y           Z
 ---------------------------------------------------------------------
    1          8             0       -2.067640   -0.000780    1.104520
    2          8             0       -0.607320    0.000460    1.521590
    3         20             0       -1.053570    1.672070   -0.137240
    4         15             0        1.064040    0.000210   -1.531440
    5          8             0        1.237200    1.284860   -0.441630
    6          8             0       -0.591330    0.000600   -1.656190
    7         20             0       -1.054450   -1.671420   -0.138180
    8          8             0        1.236980   -1.285250   -0.442080
    9         20             0        1.626830   -0.000770    1.389530
 ---------------------------------------------------------------------
                    Distance matrix (angstroms):
                    1          2          3          4          5
     1  O    0.000000
     2  O    1.518711   0.000000
     3  Ca   2.317053   2.396901   0.000000
     4  P    4.093373   3.480580   3.036969   0.000000
     5  O    3.868516   2.984321   2.343120   1.693516   0.000000
     6  O    3.130657   3.177820   2.305360   1.660064   2.543227
     7  Ca   2.315577   2.397904   3.343490   3.037025   3.752777
     8  O    3.868119   2.985045   3.753037   1.693818   2.570110
     9  Ca   3.705447   2.238050   3.509126   2.974693   2.271080
                    6          7          8          9
     6  O    0.000000
     7  Ca   2.305317   0.000000
     8  O    2.543657   2.343530   0.000000
     9  Ca   3.767844   3.509164   2.270830   0.000000
 Stoichiometry    Ca3O5P(1+)
 Framework group  C1[X(Ca3O5P)]
 Deg. of freedom    21
 Full point group                 C1
 Largest Abelian subgroup         C1      NOp   1
 Largest concise Abelian subgroup C1      NOp   1
                         Standard orientation:                         
 ---------------------------------------------------------------------
 Center     Atomic     Atomic              Coordinates (Angstroms)
 Number     Number      Type              X           Y           Z
 ---------------------------------------------------------------------
    1          8             0       -2.067639   -0.000766    1.104518
    2          8             0       -0.607319    0.000465    1.521588
    3         20             0       -1.053559    1.672078   -0.137242
    4         15             0        1.064041    0.000205   -1.531442
    5          8             0        1.237209    1.284854   -0.441632
    6          8             0       -0.591329    0.000605   -1.656192
    7         20             0       -1.054460   -1.671412   -0.138182
    8          8             0        1.236973   -1.285256   -0.442082
    9         20             0        1.626831   -0.000779    1.389528
 ---------------------------------------------------------------------
 Rotational constants (GHZ):      0.9461521      0.8198599      0.7962830
 Standard basis: 6-31+G(d,p) (6D, 7F)
 There are   199 symmetry adapted basis functions of A   symmetry.
 Integral buffers will be    131072 words long.
 Raffenetti 2 integral format.
 Two-electron integral symmetry is turned on.
   199 basis functions,   456 primitive gaussians,   199 cartesian basis functions
    57 alpha electrons       57 beta electrons
       nuclear repulsion energy      1104.9439676142 Hartrees.
 NAtoms=    9 NActive=    9 NUniq=    9 SFac= 7.50D-01 NAtFMM=   80 NAOKFM=F Big=F
 One-electron integrals computed using PRISM.
 NBasis=   199 RedAO= T  NBF=   199
 NBsUse=   199 1.00D-06 NBFU=   199
 Harris functional with IExCor=  402 diagonalized for initial guess.
 ExpMin= 7.10D-03 ExpMax= 3.53D+04 ExpMxC= 5.30D+03 IAcc=3 IRadAn=         5 AccDes= 0.00D+00
 HarFok:  IExCor= 402 AccDes= 0.00D+00 IRadAn=         5 IDoV=1
 ScaDFX=  1.000000  1.000000  1.000000  1.000000
 Initial guess orbital symmetries:
       Occupied  (A) (A) (A) (A) (A) (A) (A) (A) (A) (A) (A) (A)
                 (A) (A) (A) (A) (A) (A) (A) (A) (A) (A) (A) (A)
                 (A) (A) (A) (A) (A) (A) (A) (A) (A) (A) (A) (A)
                 (A) (A) (A) (A) (A) (A) (A) (A) (A) (A) (A) (A)
                 (A) (A) (A) (A) (A) (A) (A) (A) (A)
       Virtual   (A) (A) (A) (A) (A) (A) (A) (A) (A) (A) (A) (A)
                 (A) (A) (A) (A) (A) (A) (A) (A) (A) (A) (A) (A)
                 (A) (A) (A) (A) (A) (A) (A) (A) (A) (A) (A) (A)
                 (A) (A) (A) (A) (A) (A) (A) (A) (A) (A) (A) (A)
                 (A) (A) (A) (A) (A) (A) (A) (A) (A) (A) (A) (A)
                 (A) (A) (A) (A) (A) (A) (A) (A) (A) (A) (A) (A)
                 (A) (A) (A) (A) (A) (A) (A) (A) (A) (A) (A) (A)
                 (A) (A) (A) (A) (A) (A) (A) (A) (A) (A) (A) (A)
                 (A) (A) (A) (A) (A) (A) (A) (A) (A) (A) (A) (A)
                 (A) (A) (A) (A) (A) (A) (A) (A) (A) (A) (A) (A)
                 (A) (A) (A) (A) (A) (A) (A) (A) (A) (A) (A) (A)
                 (A) (A) (A) (A) (A) (A) (A) (A) (A) (A)
 The electronic state of the initial guess is 1-A.
 Requested convergence on RMS density matrix=1.00D-04 within 128 cycles.
 Requested convergence on MAX density matrix=1.00D-02.
 Requested convergence on             energy=1.00D-02.
 No special actions if energy rises.
 SCF Done:  E(RB+HF-LYP) =  -2750.24881766     A.U. after    7 cycles
             Convg  =    0.5388D-04             -V/T =  2.0029
             S**2   =   0.0000

 **********************************************************************

            Population analysis using the SCF density.

 **********************************************************************

 Orbital symmetries:
       Occupied  (A) (A) (A) (A) (A) (A) (A) (A) (A) (A) (A) (A)
                 (A) (A) (A) (A) (A) (A) (A) (A) (A) (A) (A) (A)
                 (A) (A) (A) (A) (A) (A) (A) (A) (A) (A) (A) (A)
                 (A) (A) (A) (A) (A) (A) (A) (A) (A) (A) (A) (A)
                 (A) (A) (A) (A) (A) (A) (A) (A) (A)
       Virtual   (A) (A) (A) (A) (A) (A) (A) (A) (A) (A) (A) (A)
                 (A) (A) (A) (A) (A) (A) (A) (A) (A) (A) (A) (A)
                 (A) (A) (A) (A) (A) (A) (A) (A) (A) (A) (A) (A)
                 (A) (A) (A) (A) (A) (A) (A) (A) (A) (A) (A) (A)
                 (A) (A) (A) (A) (A) (A) (A) (A) (A) (A) (A) (A)
                 (A) (A) (A) (A) (A) (A) (A) (A) (A) (A) (A) (A)
                 (A) (A) (A) (A) (A) (A) (A) (A) (A) (A) (A) (A)
                 (A) (A) (A) (A) (A) (A) (A) (A) (A) (A) (A) (A)
                 (A) (A) (A) (A) (A) (A) (A) (A) (A) (A) (A) (A)
                 (A) (A) (A) (A) (A) (A) (A) (A) (A) (A) (A) (A)
                 (A) (A) (A) (A) (A) (A) (A) (A) (A) (A) (A) (A)
                 (A) (A) (A) (A) (A) (A) (A) (A) (A) (A)
 The electronic state is 1-A.
 Alpha  occ. eigenvalues -- -145.52393-145.50176-145.50169 -77.25153 -19.25915
 Alpha  occ. eigenvalues --  -19.25462 -19.21786 -19.21786 -19.21335 -15.59151
 Alpha  occ. eigenvalues --  -15.56975 -15.56969 -12.72340 -12.72335 -12.72309
 Alpha  occ. eigenvalues --  -12.70183 -12.70178 -12.70174 -12.70170 -12.70095
 Alpha  occ. eigenvalues --  -12.70090  -6.70242  -4.86596  -4.86587  -4.86027
 Alpha  occ. eigenvalues --   -1.96329  -1.94226  -1.94160  -1.24351  -1.23883
 Alpha  occ. eigenvalues --   -1.23787  -1.22781  -1.22074  -1.21714  -1.21639
 Alpha  occ. eigenvalues --   -1.21519  -1.21221  -1.10029  -1.07330  -1.00855
 Alpha  occ. eigenvalues --   -1.00735  -0.89082  -0.63093  -0.51345  -0.51081
 Alpha  occ. eigenvalues --   -0.50979  -0.49235  -0.48450  -0.46045  -0.43794
 Alpha  occ. eigenvalues --   -0.43559  -0.38835  -0.38643  -0.38612  -0.35305
 Alpha  occ. eigenvalues --   -0.33994  -0.31697
 Alpha virt. eigenvalues --   -0.20305  -0.18387  -0.17630  -0.12786  -0.12604
 Alpha virt. eigenvalues --   -0.10905  -0.09919  -0.09096  -0.08253  -0.07952
 Alpha virt. eigenvalues --   -0.07351  -0.06563  -0.06018  -0.05818  -0.04924
 Alpha virt. eigenvalues --   -0.04867  -0.04857  -0.04686  -0.04486  -0.04308
 Alpha virt. eigenvalues --   -0.04013  -0.03910  -0.03218  -0.02973  -0.02947
 Alpha virt. eigenvalues --   -0.02710  -0.01826  -0.00967   0.00846   0.01987
 Alpha virt. eigenvalues --    0.02247   0.03416   0.04334   0.04543   0.04864
 Alpha virt. eigenvalues --    0.05218   0.05241   0.06160   0.06289   0.07053
 Alpha virt. eigenvalues --    0.07072   0.07096   0.07503   0.07555   0.07794
 Alpha virt. eigenvalues --    0.08499   0.09369   0.10327   0.11205   0.11844
 Alpha virt. eigenvalues --    0.12317   0.14922   0.14937   0.16119   0.17402
 Alpha virt. eigenvalues --    0.18783   0.20646   0.21083   0.21099   0.23270
 Alpha virt. eigenvalues --    0.23564   0.23711   0.24625   0.25784   0.27286
 Alpha virt. eigenvalues --    0.27989   0.29797   0.31572   0.33557   0.33937
 Alpha virt. eigenvalues --    0.34434   0.36044   0.36689   0.38777   0.39284
 Alpha virt. eigenvalues --    0.41199   0.45565   0.46022   0.53536   0.54399
 Alpha virt. eigenvalues --    0.55431   0.62690   0.63190   0.63522   0.66211
 Alpha virt. eigenvalues --    0.81582   0.85426   0.90493   0.93114   0.99254
 Alpha virt. eigenvalues --    1.11602   1.11888   1.15490   1.16015   1.17644
 Alpha virt. eigenvalues --    1.18030   1.19912   1.19986   1.20445   1.22318
 Alpha virt. eigenvalues --    1.22906   1.27532   1.31244   1.33947   1.38905
 Alpha virt. eigenvalues --    1.45499   1.46503   1.49243   1.57002   1.58137
 Alpha virt. eigenvalues --    1.60026   1.64347   1.68046   1.71386   1.73205
 Alpha virt. eigenvalues --    1.76849   1.78164   1.78948   1.81295   1.84877
 Alpha virt. eigenvalues --    1.86382   1.87078   1.89503   1.90274   1.91256
 Alpha virt. eigenvalues --    1.92845   1.93663   1.99390   2.00493   2.11326
 Alpha virt. eigenvalues --    2.21643   2.24610   2.36592   2.52362   2.56776
 Alpha virt. eigenvalues --    3.07037   3.54033   4.03184   4.09911   4.14250
 Alpha virt. eigenvalues --    4.19211   4.32878
          Condensed to atoms (all electrons):
              1          2          3          4          5          6
     1  O    8.577500  -0.100891   0.103961   0.003363  -0.006668   0.002039
     2  O   -0.100891   8.604448   0.038222  -0.024682   0.029709   0.022365
     3  Ca   0.103961   0.038222  18.339595   0.017320   0.060511   0.065877
     4  P    0.003363  -0.024682   0.017320  14.404706  -0.178052  -0.171707
     5  O   -0.006668   0.029709   0.060511  -0.178052   8.964927   0.050218
     6  O    0.002039   0.022365   0.065877  -0.171707   0.050218   8.936144
     7  Ca   0.104077   0.038104  -0.047972   0.017271   0.005006   0.065886
     8  O   -0.006650   0.029649   0.004992  -0.177925   0.043461   0.050189
     9  Ca  -0.033224   0.088624  -0.045091   0.026431   0.074658   0.013771
              7          8          9
     1  O    0.104077  -0.006650  -0.033224
     2  O    0.038104   0.029649   0.088624
     3  Ca  -0.047972   0.004992  -0.045091
     4  P    0.017271  -0.177925   0.026431
     5  O    0.005006   0.043461   0.074658
     6  O    0.065886   0.050189   0.013771
     7  Ca  18.339708   0.060545  -0.045095
     8  O    0.060545   8.964869   0.074722
     9  Ca  -0.045095   0.074722  18.362068
 Mulliken atomic charges:
              1
     1  O   -0.643507
     2  O   -0.725549
     3  Ca   1.462584
     4  P    1.083273
     5  O   -1.043771
     6  O   -1.034784
     7  Ca   1.462471
     8  O   -1.043853
     9  Ca   1.483137
 Sum of Mulliken charges=   1.00000
 Atomic charges with hydrogens summed into heavy atoms:
              1
     1  O   -0.643507
     2  O   -0.725549
     3  Ca   1.462584
     4  P    1.083273
     5  O   -1.043771
     6  O   -1.034784
     7  Ca   1.462471
     8  O   -1.043853
     9  Ca   1.483137
 Sum of Mulliken charges=   1.00000
 Electronic spatial extent (au):  <R**2>=  1728.8974
 Charge=     1.0000 electrons
 Dipole moment (field-independent basis, Debye):
    X=    -0.9326    Y=     0.0011    Z=     6.2106  Tot=     6.2802
 Quadrupole moment (field-independent basis, Debye-Ang):
   XX=   -63.7005   YY=   -44.2207   ZZ=   -80.5523
   XY=    -0.0032   XZ=    28.3147   YZ=     0.0029
 Traceless Quadrupole moment (field-independent basis, Debye-Ang):
   XX=    -0.8760   YY=    18.6038   ZZ=   -17.7278
   XY=    -0.0032   XZ=    28.3147   YZ=     0.0029
 Octapole moment (field-independent basis, Debye-Ang**2):
  XXX=    20.2112  YYY=     0.0645  ZZZ=    45.2214  XYY=   -73.7737
  XXY=    -0.0305  XXZ=    28.2102  XZZ=    39.2466  YZZ=    -0.0215
  YYZ=     4.9296  XYZ=    -0.0424
 Hexadecapole moment (field-independent basis, Debye-Ang**3):
 XXXX=  -745.4650 YYYY=  -401.3912 ZZZZ=  -674.3031 XXXY=    -0.0133
 XXXZ=   157.7816 YYYX=    -0.0122 YYYZ=     0.0267 ZZZX=   109.8477
 ZZZY=    -0.0031 XXYY=  -182.3494 XXZZ=  -218.9279 YYZZ=  -189.7382
 XXYZ=     0.0076 YYXZ=    34.9593 ZZXY=    -0.0150
 N-N= 1.104943967614D+03 E-N=-8.710543832954D+03  KE= 2.742231878955D+03
 Merz-Kollman atomic radii used.
 Read replacement radii for each type of atom:
 Rad(20) =   1.188000000000D+00
 Atom Element Radius
    1     8    1.40
    2     8    1.40
    3    20    1.19
    4    15    1.80
    5     8    1.40
    6     8    1.40
    7    20    1.19
    8     8    1.40
    9    20    1.19

 **********************************************************************

            Electrostatic Properties Using The SCF Density

 **********************************************************************

       Atomic Center    1 is at  -2.067639 -0.000766  1.104518
       Atomic Center    2 is at  -0.607319  0.000465  1.521588
       Atomic Center    3 is at  -1.053559  1.672078 -0.137242
       Atomic Center    4 is at   1.064041  0.000205 -1.531442
       Atomic Center    5 is at   1.237209  1.284854 -0.441632
       Atomic Center    6 is at  -0.591329  0.000605 -1.656192
       Atomic Center    7 is at  -1.054460 -1.671412 -0.138182
       Atomic Center    8 is at   1.236973 -1.285256 -0.442082
       Atomic Center    9 is at   1.626831 -0.000779  1.389528
     736 points will be used for fitting atomic charges
 Fitting point charges to eletrostatic potential
 Charges from ESP fit, RMS=   0.00664 RRMS=   0.04144:
 Charge=   1.00000 Dipole=    -0.7843     0.0011     6.0530 Tot=     6.1036
              1
     1  O   -0.690013
     2  O   -0.930711
     3  Ca   1.674925
     4  P    0.545187
     5  O   -0.989985
     6  O   -0.945217
     7  Ca   1.674875
     8  O   -0.990201
     9  Ca   1.651141
 -----------------------------------------------------------------

              Electrostatic Properties (Atomic Units)

 -----------------------------------------------------------------
    Center     Electric         -------- Electric Field --------
               Potential          X             Y             Z
 -----------------------------------------------------------------
    1 Atom    -22.216053
    2 Atom    -22.204627
    3 Atom    -80.039028
    4 Atom    -53.962545
    5 Atom    -22.248477
    6 Atom    -22.248747
    7 Atom    -80.039079
    8 Atom    -22.248545
    9 Atom    -80.016198
 -----------------------------------------------------------------
 1\1\GINC-N034\SP\RB3LYP\6-31+G(d,p)\Ca3O5P1(1+)\TIMN\12-Jun-2015\0\\# 
 b3lyp/6-31+G(d,p) int=ultrafine pop=(ReadRadii,MK)\\mol_17.24.50.pdbcc
 c_plusQ.z58303.zip.xyz\\1,1\O,0,-2.06764,-0.00078,1.10452\O,0,-0.60732
 ,0.00046,1.52159\Ca,0,-1.05357,1.67207,-0.13724\P,0,1.06404,0.00021,-1
 .53144\O,0,1.2372,1.28486,-0.44163\O,0,-0.59133,0.0006,-1.65619\Ca,0,-
 1.05445,-1.67142,-0.13818\O,0,1.23698,-1.28525,-0.44208\Ca,0,1.62683,-
 0.00077,1.38953\\Version=EM64T-G03RevE.01\State=1-A\HF=-2750.2488177\R
 MSD=5.388e-05\Thermal=0.\Dipole=-0.3668976,0.0004272,2.4434323\PG=C01 
 [X(Ca3O5P1)]\\@


 THE MORE ACCURATE THE CALCULATIONS BECOME, THE MORE THE CONCEPTS
 TEND TO VANISH INTO THIN AIR.
     -- R.S. MULLIKEN, J.C.P. 43,S2(1965)
 Job cpu time:  0 days  0 hours  1 minutes 57.9 seconds.
 File lengths (MBytes):  RWF=     36 Int=      0 D2E=      0 Chk=     11 Scr=      1
 Normal termination of Gaussian 03 at Fri Jun 12 17:56:27 2015.
