 Entering Gaussian System, Link 0=/home/timn/tmp/g03.e01/g03
 Input=mol_17.28.21.pdbcccc_plusQ.z58544.zip.xyz.gjf
 Output=mol_17.28.21.pdbcccc_plusQ.z58544.zip.xyz.out
 Initial command:
 /home/timn/tmp/g03.e01/l1.exe /home/timn/tmp/g03.e01/Gau-19718.inp -scrdir=/home/timn/tmp/g03.e01/
 Default is to use a total of   2 processors:
                                2 via shared-memory
                                1 via Linda
 Entering Link 1 = /home/timn/tmp/g03.e01/l1.exe PID=     19719.
  
 Copyright (c) 1988,1990,1992,1993,1995,1998,2003,2004,2007, Gaussian, Inc.
                  All Rights Reserved.
  
 This is the Gaussian(R) 03 program.  It is based on the
 the Gaussian(R) 98 system (copyright 1998, Gaussian, Inc.),
 the Gaussian(R) 94 system (copyright 1995, Gaussian, Inc.),
 the Gaussian 92(TM) system (copyright 1992, Gaussian, Inc.),
 the Gaussian 90(TM) system (copyright 1990, Gaussian, Inc.),
 the Gaussian 88(TM) system (copyright 1988, Gaussian, Inc.),
 the Gaussian 86(TM) system (copyright 1986, Carnegie Mellon
 University), and the Gaussian 82(TM) system (copyright 1983,
 Carnegie Mellon University). Gaussian is a federally registered
 trademark of Gaussian, Inc.
  
 This software contains proprietary and confidential information,
 including trade secrets, belonging to Gaussian, Inc.
  
 This software is provided under written license and may be
 used, copied, transmitted, or stored only in accord with that
 written license.
  
 The following legend is applicable only to US Government
 contracts under FAR:
  
                    RESTRICTED RIGHTS LEGEND
  
 Use, reproduction and disclosure by the US Government is
 subject to restrictions as set forth in subparagraphs (a)
 and (c) of the Commercial Computer Software - Restricted
 Rights clause in FAR 52.227-19.
  
 Gaussian, Inc.
 340 Quinnipiac St., Bldg. 40, Wallingford CT 06492
  
  
 ---------------------------------------------------------------
 Warning -- This program may not be used in any manner that
 competes with the business of Gaussian, Inc. or will provide
 assistance to any competitor of Gaussian, Inc.  The licensee
 of this program is prohibited from giving any competitor of
 Gaussian, Inc. access to this program.  By using this program,
 the user acknowledges that Gaussian, Inc. is engaged in the
 business of creating and licensing software in the field of
 computational chemistry and represents and warrants to the
 licensee that it is not a competitor of Gaussian, Inc. and that
 it will not use this program in any manner prohibited above.
 ---------------------------------------------------------------
  

 Cite this work as:
 Gaussian 03, Revision E.01,
 M. J. Frisch, G. W. Trucks, H. B. Schlegel, G. E. Scuseria, 
 M. A. Robb, J. R. Cheeseman, J. A. Montgomery, Jr., T. Vreven, 
 K. N. Kudin, J. C. Burant, J. M. Millam, S. S. Iyengar, J. Tomasi, 
 V. Barone, B. Mennucci, M. Cossi, G. Scalmani, N. Rega, 
 G. A. Petersson, H. Nakatsuji, M. Hada, M. Ehara, K. Toyota, 
 R. Fukuda, J. Hasegawa, M. Ishida, T. Nakajima, Y. Honda, O. Kitao, 
 H. Nakai, M. Klene, X. Li, J. E. Knox, H. P. Hratchian, J. B. Cross, 
 V. Bakken, C. Adamo, J. Jaramillo, R. Gomperts, R. E. Stratmann, 
 O. Yazyev, A. J. Austin, R. Cammi, C. Pomelli, J. W. Ochterski, 
 P. Y. Ayala, K. Morokuma, G. A. Voth, P. Salvador, J. J. Dannenberg, 
 V. G. Zakrzewski, S. Dapprich, A. D. Daniels, M. C. Strain, 
 O. Farkas, D. K. Malick, A. D. Rabuck, K. Raghavachari, 
 J. B. Foresman, J. V. Ortiz, Q. Cui, A. G. Baboul, S. Clifford, 
 J. Cioslowski, B. B. Stefanov, G. Liu, A. Liashenko, P. Piskorz, 
 I. Komaromi, R. L. Martin, D. J. Fox, T. Keith, M. A. Al-Laham, 
 C. Y. Peng, A. Nanayakkara, M. Challacombe, P. M. W. Gill, 
 B. Johnson, W. Chen, M. W. Wong, C. Gonzalez, and J. A. Pople, 
 Gaussian, Inc., Wallingford CT, 2004.
 
 ******************************************
 Gaussian 03:  EM64T-G03RevE.01 11-Sep-2007
                12-Jun-2015 
 ******************************************
 %nproc=2
 Will use up to    2 processors via shared memory.
 Default route:  MP2=Direct MaxDisk=2000MB
 ----------------------------------------------------
 # b3lyp/6-31+G(d,p) int=ultrafine pop=(ReadRadii,MK)
 ----------------------------------------------------

 Warning!  SCF SP cutoffs with diffuse functions may be unreliable.
 Consider SCF=Tight

 1/38=1/1;
 2/17=6,18=5,40=1/2;
 3/5=1,6=6,7=111,11=2,16=1,25=1,30=1,74=-5,75=5/1,2,3;
 4//1;
 5/5=2,32=1,38=5/2;
 6/7=2,8=2,9=2,10=2,15=8,20=101,28=1/1,2;
 99/5=1,9=1/99;
 -----------------------------------------
 mol_17.28.21.pdbcccc_plusQ.z58544.zip.xyz
 -----------------------------------------
 Symbolic Z-matrix:
 Charge =  1 Multiplicity = 1
 O                     3.41079  -0.65342  -0.01139 
 O                    -0.81986  -0.87934  -0.77597 
 Ca                   -3.07601  -0.69372  -0.00589 
 P                     3.17065   0.8668   -0.00653 
 Ca                    1.22166  -1.49232   0.0068 
 O                     1.61329   1.04047   0.01008 
 O                    -2.87463   1.41625  -0.00335 
 Ca                   -0.72579   1.51855   0.00439 
 O                    -0.82416  -0.88047   0.77961 
 
                          Input orientation:                          
 ---------------------------------------------------------------------
 Center     Atomic     Atomic              Coordinates (Angstroms)
 Number     Number      Type              X           Y           Z
 ---------------------------------------------------------------------
    1          8             0        3.410790   -0.653420   -0.011390
    2          8             0       -0.819860   -0.879340   -0.775970
    3         20             0       -3.076010   -0.693720   -0.005890
    4         15             0        3.170650    0.866800   -0.006530
    5         20             0        1.221660   -1.492320    0.006800
    6          8             0        1.613290    1.040470    0.010080
    7          8             0       -2.874630    1.416250   -0.003350
    8         20             0       -0.725790    1.518550    0.004390
    9          8             0       -0.824160   -0.880470    0.779610
 ---------------------------------------------------------------------
                    Distance matrix (angstroms):
                    1          2          3          4          5
     1  O    0.000000
     2  O    4.305116   0.000000
     3  Ca   6.486928   2.391169   0.000000
     4  P    1.539078   4.423258   6.438632   0.000000
     5  Ca   2.344435   2.270744   4.371257   3.060096   0.000000
     6  O    2.469966   3.197462   4.999720   1.567102   2.562891
     7  O    6.617409   3.176280   2.119560   6.070199   5.023890
     8  Ca   4.672151   2.523428   3.227658   3.950588   3.585792
     9  O    4.314167   1.555586   2.392220   4.430516   2.270897
                    6          7          8          9
     6  O    0.000000
     7  O    4.503645   0.000000
     8  Ca   2.387444   2.151288   0.000000
     9  O    3.197397   3.176850   2.523081   0.000000
 Stoichiometry    Ca3O5P(1+)
 Framework group  C1[X(Ca3O5P)]
 Deg. of freedom    21
 Full point group                 C1
 Largest Abelian subgroup         C1      NOp   1
 Largest concise Abelian subgroup C1      NOp   1
                         Standard orientation:                         
 ---------------------------------------------------------------------
 Center     Atomic     Atomic              Coordinates (Angstroms)
 Number     Number      Type              X           Y           Z
 ---------------------------------------------------------------------
    1          8             0        3.410787   -0.653419   -0.011389
    2          8             0       -0.819863   -0.879341   -0.775969
    3         20             0       -3.076013   -0.693723   -0.005889
    4         15             0        3.170646    0.866801   -0.006529
    5         20             0        1.221657   -1.492320    0.006801
    6          8             0        1.613286    1.040470    0.010081
    7          8             0       -2.874634    1.416248   -0.003349
    8         20             0       -0.725794    1.518549    0.004391
    9          8             0       -0.824163   -0.880471    0.779611
 ---------------------------------------------------------------------
 Rotational constants (GHZ):      1.5598161      0.4315732      0.3470315
 Standard basis: 6-31+G(d,p) (6D, 7F)
 There are   199 symmetry adapted basis functions of A   symmetry.
 Integral buffers will be    131072 words long.
 Raffenetti 2 integral format.
 Two-electron integral symmetry is turned on.
   199 basis functions,   456 primitive gaussians,   199 cartesian basis functions
    57 alpha electrons       57 beta electrons
       nuclear repulsion energy       978.3929862720 Hartrees.
 NAtoms=    9 NActive=    9 NUniq=    9 SFac= 7.50D-01 NAtFMM=   80 NAOKFM=F Big=F
 One-electron integrals computed using PRISM.
 NBasis=   199 RedAO= T  NBF=   199
 NBsUse=   199 1.00D-06 NBFU=   199
 Harris functional with IExCor=  402 diagonalized for initial guess.
 ExpMin= 7.10D-03 ExpMax= 3.53D+04 ExpMxC= 5.30D+03 IAcc=3 IRadAn=         5 AccDes= 0.00D+00
 HarFok:  IExCor= 402 AccDes= 0.00D+00 IRadAn=         5 IDoV=1
 ScaDFX=  1.000000  1.000000  1.000000  1.000000
 Initial guess orbital symmetries:
       Occupied  (A) (A) (A) (A) (A) (A) (A) (A) (A) (A) (A) (A)
                 (A) (A) (A) (A) (A) (A) (A) (A) (A) (A) (A) (A)
                 (A) (A) (A) (A) (A) (A) (A) (A) (A) (A) (A) (A)
                 (A) (A) (A) (A) (A) (A) (A) (A) (A) (A) (A) (A)
                 (A) (A) (A) (A) (A) (A) (A) (A) (A)
       Virtual   (A) (A) (A) (A) (A) (A) (A) (A) (A) (A) (A) (A)
                 (A) (A) (A) (A) (A) (A) (A) (A) (A) (A) (A) (A)
                 (A) (A) (A) (A) (A) (A) (A) (A) (A) (A) (A) (A)
                 (A) (A) (A) (A) (A) (A) (A) (A) (A) (A) (A) (A)
                 (A) (A) (A) (A) (A) (A) (A) (A) (A) (A) (A) (A)
                 (A) (A) (A) (A) (A) (A) (A) (A) (A) (A) (A) (A)
                 (A) (A) (A) (A) (A) (A) (A) (A) (A) (A) (A) (A)
                 (A) (A) (A) (A) (A) (A) (A) (A) (A) (A) (A) (A)
                 (A) (A) (A) (A) (A) (A) (A) (A) (A) (A) (A) (A)
                 (A) (A) (A) (A) (A) (A) (A) (A) (A) (A) (A) (A)
                 (A) (A) (A) (A) (A) (A) (A) (A) (A) (A) (A) (A)
                 (A) (A) (A) (A) (A) (A) (A) (A) (A) (A)
 The electronic state of the initial guess is 1-A.
 Requested convergence on RMS density matrix=1.00D-04 within 128 cycles.
 Requested convergence on MAX density matrix=1.00D-02.
 Requested convergence on             energy=1.00D-02.
 No special actions if energy rises.
 EnCoef did     3 forward-backward iterations
 SCF Done:  E(RB+HF-LYP) =  -2750.19922643     A.U. after    8 cycles
             Convg  =    0.8778D-04             -V/T =  2.0029
             S**2   =   0.0000

 **********************************************************************

            Population analysis using the SCF density.

 **********************************************************************

 Orbital symmetries:
       Occupied  (A) (A) (A) (A) (A) (A) (A) (A) (A) (A) (A) (A)
                 (A) (A) (A) (A) (A) (A) (A) (A) (A) (A) (A) (A)
                 (A) (A) (A) (A) (A) (A) (A) (A) (A) (A) (A) (A)
                 (A) (A) (A) (A) (A) (A) (A) (A) (A) (A) (A) (A)
                 (A) (A) (A) (A) (A) (A) (A) (A) (A)
       Virtual   (A) (A) (A) (A) (A) (A) (A) (A) (A) (A) (A) (A)
                 (A) (A) (A) (A) (A) (A) (A) (A) (A) (A) (A) (A)
                 (A) (A) (A) (A) (A) (A) (A) (A) (A) (A) (A) (A)
                 (A) (A) (A) (A) (A) (A) (A) (A) (A) (A) (A) (A)
                 (A) (A) (A) (A) (A) (A) (A) (A) (A) (A) (A) (A)
                 (A) (A) (A) (A) (A) (A) (A) (A) (A) (A) (A) (A)
                 (A) (A) (A) (A) (A) (A) (A) (A) (A) (A) (A) (A)
                 (A) (A) (A) (A) (A) (A) (A) (A) (A) (A) (A) (A)
                 (A) (A) (A) (A) (A) (A) (A) (A) (A) (A) (A) (A)
                 (A) (A) (A) (A) (A) (A) (A) (A) (A) (A) (A) (A)
                 (A) (A) (A) (A) (A) (A) (A) (A) (A) (A) (A) (A)
                 (A) (A) (A) (A) (A) (A) (A) (A) (A) (A)
 The electronic state is 1-A.
 Alpha  occ. eigenvalues -- -145.53304-145.48100-145.46498 -77.31651 -19.29961
 Alpha  occ. eigenvalues --  -19.29141 -19.27659 -19.27654 -19.10310 -15.60149
 Alpha  occ. eigenvalues --  -15.54937 -15.53357 -12.73386 -12.73381 -12.73216
 Alpha  occ. eigenvalues --  -12.68156 -12.68120 -12.68041 -12.66611 -12.66575
 Alpha  occ. eigenvalues --  -12.66406  -6.77275  -4.93707  -4.93475  -4.93057
 Alpha  occ. eigenvalues --   -1.97334  -1.92135  -1.90667  -1.25317  -1.25147
 Alpha  occ. eigenvalues --   -1.25007  -1.20357  -1.19790  -1.19239  -1.18528
 Alpha  occ. eigenvalues --   -1.18452  -1.17870  -1.15554  -1.10915  -1.09767
 Alpha  occ. eigenvalues --   -0.91293  -0.84519  -0.68934  -0.57901  -0.55274
 Alpha  occ. eigenvalues --   -0.54485  -0.51226  -0.50450  -0.49467  -0.46905
 Alpha  occ. eigenvalues --   -0.45458  -0.42703  -0.38850  -0.36718  -0.30146
 Alpha  occ. eigenvalues --   -0.28561  -0.28508
 Alpha virt. eigenvalues --   -0.21600  -0.19566  -0.17911  -0.15027  -0.15012
 Alpha virt. eigenvalues --   -0.11256  -0.10532  -0.09853  -0.09288  -0.08793
 Alpha virt. eigenvalues --   -0.08675  -0.08136  -0.07318  -0.06845  -0.06404
 Alpha virt. eigenvalues --   -0.05271  -0.05161  -0.04773  -0.04393  -0.04326
 Alpha virt. eigenvalues --   -0.04067  -0.03928  -0.03832  -0.03754  -0.03164
 Alpha virt. eigenvalues --   -0.02886  -0.02820  -0.02756  -0.02036  -0.00677
 Alpha virt. eigenvalues --    0.01190   0.02366   0.03017   0.03128   0.03556
 Alpha virt. eigenvalues --    0.04613   0.04768   0.05244   0.05719   0.05973
 Alpha virt. eigenvalues --    0.06042   0.07070   0.07150   0.08139   0.08649
 Alpha virt. eigenvalues --    0.09107   0.09288   0.10065   0.10526   0.11196
 Alpha virt. eigenvalues --    0.12824   0.12894   0.14775   0.14999   0.16232
 Alpha virt. eigenvalues --    0.16453   0.16531   0.17571   0.18105   0.20915
 Alpha virt. eigenvalues --    0.21382   0.22317   0.22842   0.23448   0.24457
 Alpha virt. eigenvalues --    0.26190   0.28128   0.28794   0.29851   0.31211
 Alpha virt. eigenvalues --    0.31310   0.33451   0.35770   0.37587   0.39305
 Alpha virt. eigenvalues --    0.42542   0.43238   0.45402   0.47292   0.47392
 Alpha virt. eigenvalues --    0.51485   0.53829   0.56494   0.60332   0.61236
 Alpha virt. eigenvalues --    0.63765   0.84706   0.89749   0.94113   0.99237
 Alpha virt. eigenvalues --    1.04393   1.06946   1.08621   1.10105   1.11251
 Alpha virt. eigenvalues --    1.11306   1.14314   1.15319   1.17562   1.19312
 Alpha virt. eigenvalues --    1.19829   1.21088   1.24060   1.29934   1.34428
 Alpha virt. eigenvalues --    1.35825   1.41126   1.46719   1.47082   1.53221
 Alpha virt. eigenvalues --    1.54252   1.60402   1.65369   1.66149   1.66531
 Alpha virt. eigenvalues --    1.69476   1.73049   1.74284   1.76445   1.78980
 Alpha virt. eigenvalues --    1.82226   1.83833   1.84154   1.86186   1.87443
 Alpha virt. eigenvalues --    1.89440   1.92636   1.95947   2.01025   2.04344
 Alpha virt. eigenvalues --    2.16469   2.17819   2.17896   2.50711   2.67344
 Alpha virt. eigenvalues --    3.00523   3.38853   3.87250   3.89008   4.00833
 Alpha virt. eigenvalues --    4.08741   4.08991
          Condensed to atoms (all electrons):
              1          2          3          4          5          6
     1  O    8.529407  -0.001194   0.001062   0.111272   0.079162  -0.074553
     2  O   -0.001194   8.577156   0.050802  -0.004203   0.094569  -0.000443
     3  Ca   0.001062   0.050802  18.361487  -0.012408  -0.016949   0.005506
     4  P    0.111272  -0.004203  -0.012408  14.415371  -0.018403  -0.159654
     5  Ca   0.079162   0.094569  -0.016949  -0.018403  18.244224   0.022376
     6  O   -0.074553  -0.000443   0.005506  -0.159654   0.022376   8.920955
     7  O    0.000000   0.000550   0.224138  -0.001396   0.001293  -0.005211
     8  Ca   0.003470   0.027762  -0.027489  -0.006698  -0.004209   0.034089
     9  O   -0.001311  -0.050418   0.050900  -0.004089   0.094729  -0.000377
              7          8          9
     1  O    0.000000   0.003470  -0.001311
     2  O    0.000550   0.027762  -0.050418
     3  Ca   0.224138  -0.027489   0.050900
     4  P   -0.001396  -0.006698  -0.004089
     5  Ca   0.001293  -0.004209   0.094729
     6  O   -0.005211   0.034089  -0.000377
     7  O    8.679295   0.224542   0.000596
     8  Ca   0.224542  18.364931   0.027496
     9  O    0.000596   0.027496   8.576556
 Mulliken atomic charges:
              1
     1  O   -0.647315
     2  O   -0.694582
     3  Ca   1.362951
     4  P    0.680208
     5  Ca   1.503208
     6  O   -0.742688
     7  O   -1.123808
     8  Ca   1.356105
     9  O   -0.694081
 Sum of Mulliken charges=   1.00000
 Atomic charges with hydrogens summed into heavy atoms:
              1
     1  O   -0.647315
     2  O   -0.694582
     3  Ca   1.362951
     4  P    0.680208
     5  Ca   1.503208
     6  O   -0.742688
     7  O   -1.123808
     8  Ca   1.356105
     9  O   -0.694081
 Sum of Mulliken charges=   1.00000
 Electronic spatial extent (au):  <R**2>=  2764.5162
 Charge=     1.0000 electrons
 Dipole moment (field-independent basis, Debye):
    X=     0.3556    Y=    -7.6423    Z=     0.0367  Tot=     7.6507
 Quadrupole moment (field-independent basis, Debye-Ang):
   XX=   -63.4052   YY=   -57.0798   ZZ=   -77.2561
   XY=    23.1670   XZ=     0.1689   YZ=    -0.0241
 Traceless Quadrupole moment (field-independent basis, Debye-Ang):
   XX=     2.5085   YY=     8.8339   ZZ=   -11.3424
   XY=    23.1670   XZ=     0.1689   YZ=    -0.0241
 Octapole moment (field-independent basis, Debye-Ang**2):
  XXX=  -107.7733  YYY=   -38.0334  ZZZ=     0.0971  XYY=    27.7724
  XXY=  -109.5128  XXZ=     0.0983  XZZ=     2.9068  YZZ=    -3.4991
  YYZ=     0.2503  XYZ=    -0.5068
 Hexadecapole moment (field-independent basis, Debye-Ang**3):
 XXXX= -2334.7768 YYYY=  -569.6899 ZZZZ=  -129.5973 XXXY=   483.7123
 XXXZ=     2.4471 YYYX=     2.9476 YYYZ=     0.0182 ZZZX=     0.3655
 ZZZY=     0.0420 XXYY=  -576.0689 XXZZ=  -421.9451 YYZZ=  -130.0518
 XXYZ=     0.1176 YYXZ=     0.2379 ZZXY=     6.1430
 N-N= 9.783929862720D+02 E-N=-8.456783276449D+03  KE= 2.742195169016D+03
 Merz-Kollman atomic radii used.
 Read replacement radii for each type of atom:
 Rad(20) =   1.188000000000D+00
 Atom Element Radius
    1     8    1.40
    2     8    1.40
    3    20    1.19
    4    15    1.80
    5    20    1.19
    6     8    1.40
    7     8    1.40
    8    20    1.19
    9     8    1.40

 **********************************************************************

            Electrostatic Properties Using The SCF Density

 **********************************************************************

       Atomic Center    1 is at   3.410787 -0.653419 -0.011389
       Atomic Center    2 is at  -0.819863 -0.879341 -0.775969
       Atomic Center    3 is at  -3.076013 -0.693723 -0.005889
       Atomic Center    4 is at   3.170646  0.866801 -0.006529
       Atomic Center    5 is at   1.221657 -1.492320  0.006801
       Atomic Center    6 is at   1.613286  1.040470  0.010081
       Atomic Center    7 is at  -2.874634  1.416248 -0.003349
       Atomic Center    8 is at  -0.725794  1.518549  0.004391
       Atomic Center    9 is at  -0.824163 -0.880471  0.779611
     879 points will be used for fitting atomic charges
 Fitting point charges to eletrostatic potential
 Charges from ESP fit, RMS=   0.00499 RRMS=   0.03336:
 Charge=   1.00000 Dipole=     0.0809    -7.7083     0.0335 Tot=     7.7088
              1
     1  O   -0.647300
     2  O   -0.868035
     3  Ca   1.631019
     4  P    0.595266
     5  Ca   1.731161
     6  O   -0.760990
     7  O   -1.477857
     8  Ca   1.664917
     9  O   -0.868181
 -----------------------------------------------------------------

              Electrostatic Properties (Atomic Units)

 -----------------------------------------------------------------
    Center     Electric         -------- Electric Field --------
               Potential          X             Y             Z
 -----------------------------------------------------------------
    1 Atom    -22.175240
    2 Atom    -22.188353
    3 Atom    -80.060491
    4 Atom    -53.900311
    5 Atom    -80.007411
    6 Atom    -22.165584
    7 Atom    -22.360321
    8 Atom    -80.075596
    9 Atom    -22.188332
 -----------------------------------------------------------------
 1\1\GINC-N027\SP\RB3LYP\6-31+G(d,p)\Ca3O5P1(1+)\TIMN\12-Jun-2015\0\\# 
 b3lyp/6-31+G(d,p) int=ultrafine pop=(ReadRadii,MK)\\mol_17.28.21.pdbcc
 cc_plusQ.z58544.zip.xyz\\1,1\O,0,3.41079,-0.65342,-0.01139\O,0,-0.8198
 6,-0.87934,-0.77597\Ca,0,-3.07601,-0.69372,-0.00589\P,0,3.17065,0.8668
 ,-0.00653\Ca,0,1.22166,-1.49232,0.0068\O,0,1.61329,1.04047,0.01008\O,0
 ,-2.87463,1.41625,-0.00335\Ca,0,-0.72579,1.51855,0.00439\O,0,-0.82416,
 -0.88047,0.77961\\Version=EM64T-G03RevE.01\State=1-A\HF=-2750.1992264\
 RMSD=8.778e-05\Thermal=0.\Dipole=0.1398947,-3.0067197,0.0144386\PG=C01
  [X(Ca3O5P1)]\\@


 TIMES HAVE CHANGED. IN THE BIBLE WHEN AN ASS
 SPOKE IT WAS CONSIDERED A MIRACLE.
 Job cpu time:  0 days  0 hours  1 minutes 56.1 seconds.
 File lengths (MBytes):  RWF=     36 Int=      0 D2E=      0 Chk=     11 Scr=      1
 Normal termination of Gaussian 03 at Fri Jun 12 18:08:34 2015.
