 Entering Gaussian System, Link 0=/home/timn/tmp/g03.e01/g03
 Input=mol_17.22.52.pdbccc_plusQ.z58202.zip.xyz.gjf
 Output=mol_17.22.52.pdbccc_plusQ.z58202.zip.xyz.out
 Initial command:
 /home/timn/tmp/g03.e01/l1.exe /home/timn/tmp/g03.e01/Gau-12655.inp -scrdir=/home/timn/tmp/g03.e01/
 Default is to use a total of   2 processors:
                                2 via shared-memory
                                1 via Linda
 Entering Link 1 = /home/timn/tmp/g03.e01/l1.exe PID=     12656.
  
 Copyright (c) 1988,1990,1992,1993,1995,1998,2003,2004,2007, Gaussian, Inc.
                  All Rights Reserved.
  
 This is the Gaussian(R) 03 program.  It is based on the
 the Gaussian(R) 98 system (copyright 1998, Gaussian, Inc.),
 the Gaussian(R) 94 system (copyright 1995, Gaussian, Inc.),
 the Gaussian 92(TM) system (copyright 1992, Gaussian, Inc.),
 the Gaussian 90(TM) system (copyright 1990, Gaussian, Inc.),
 the Gaussian 88(TM) system (copyright 1988, Gaussian, Inc.),
 the Gaussian 86(TM) system (copyright 1986, Carnegie Mellon
 University), and the Gaussian 82(TM) system (copyright 1983,
 Carnegie Mellon University). Gaussian is a federally registered
 trademark of Gaussian, Inc.
  
 This software contains proprietary and confidential information,
 including trade secrets, belonging to Gaussian, Inc.
  
 This software is provided under written license and may be
 used, copied, transmitted, or stored only in accord with that
 written license.
  
 The following legend is applicable only to US Government
 contracts under FAR:
  
                    RESTRICTED RIGHTS LEGEND
  
 Use, reproduction and disclosure by the US Government is
 subject to restrictions as set forth in subparagraphs (a)
 and (c) of the Commercial Computer Software - Restricted
 Rights clause in FAR 52.227-19.
  
 Gaussian, Inc.
 340 Quinnipiac St., Bldg. 40, Wallingford CT 06492
  
  
 ---------------------------------------------------------------
 Warning -- This program may not be used in any manner that
 competes with the business of Gaussian, Inc. or will provide
 assistance to any competitor of Gaussian, Inc.  The licensee
 of this program is prohibited from giving any competitor of
 Gaussian, Inc. access to this program.  By using this program,
 the user acknowledges that Gaussian, Inc. is engaged in the
 business of creating and licensing software in the field of
 computational chemistry and represents and warrants to the
 licensee that it is not a competitor of Gaussian, Inc. and that
 it will not use this program in any manner prohibited above.
 ---------------------------------------------------------------
  

 Cite this work as:
 Gaussian 03, Revision E.01,
 M. J. Frisch, G. W. Trucks, H. B. Schlegel, G. E. Scuseria, 
 M. A. Robb, J. R. Cheeseman, J. A. Montgomery, Jr., T. Vreven, 
 K. N. Kudin, J. C. Burant, J. M. Millam, S. S. Iyengar, J. Tomasi, 
 V. Barone, B. Mennucci, M. Cossi, G. Scalmani, N. Rega, 
 G. A. Petersson, H. Nakatsuji, M. Hada, M. Ehara, K. Toyota, 
 R. Fukuda, J. Hasegawa, M. Ishida, T. Nakajima, Y. Honda, O. Kitao, 
 H. Nakai, M. Klene, X. Li, J. E. Knox, H. P. Hratchian, J. B. Cross, 
 V. Bakken, C. Adamo, J. Jaramillo, R. Gomperts, R. E. Stratmann, 
 O. Yazyev, A. J. Austin, R. Cammi, C. Pomelli, J. W. Ochterski, 
 P. Y. Ayala, K. Morokuma, G. A. Voth, P. Salvador, J. J. Dannenberg, 
 V. G. Zakrzewski, S. Dapprich, A. D. Daniels, M. C. Strain, 
 O. Farkas, D. K. Malick, A. D. Rabuck, K. Raghavachari, 
 J. B. Foresman, J. V. Ortiz, Q. Cui, A. G. Baboul, S. Clifford, 
 J. Cioslowski, B. B. Stefanov, G. Liu, A. Liashenko, P. Piskorz, 
 I. Komaromi, R. L. Martin, D. J. Fox, T. Keith, M. A. Al-Laham, 
 C. Y. Peng, A. Nanayakkara, M. Challacombe, P. M. W. Gill, 
 B. Johnson, W. Chen, M. W. Wong, C. Gonzalez, and J. A. Pople, 
 Gaussian, Inc., Wallingford CT, 2004.
 
 ******************************************
 Gaussian 03:  EM64T-G03RevE.01 11-Sep-2007
                12-Jun-2015 
 ******************************************
 %nproc=2
 Will use up to    2 processors via shared memory.
 Default route:  MP2=Direct MaxDisk=2000MB
 ----------------------------------------------------
 # b3lyp/6-31+G(d,p) int=ultrafine pop=(ReadRadii,MK)
 ----------------------------------------------------

 Warning!  SCF SP cutoffs with diffuse functions may be unreliable.
 Consider SCF=Tight

 1/38=1/1;
 2/17=6,18=5,40=1/2;
 3/5=1,6=6,7=111,11=2,16=1,25=1,30=1,74=-5,75=5/1,2,3;
 4//1;
 5/5=2,32=1,38=5/2;
 6/7=2,8=2,9=2,10=2,15=8,20=101,28=1/1,2;
 99/5=1,9=1/99;
 ----------------------------------------
 mol_17.22.52.pdbccc_plusQ.z58202.zip.xyz
 ----------------------------------------
 Symbolic Z-matrix:
 Charge =  1 Multiplicity = 1
 O                    -0.6408    0.41905  -1.49967 
 P                    -0.12004  -1.13864  -1.42841 
 Ca                   -2.16296   0.23514   0.31453 
 O                    -0.83778  -1.60597  -0.01456 
 O                     1.55075  -1.01536  -0.87739 
 O                     2.11441   0.14604  -0.06651 
 Ca                    0.82133  -0.89368   1.51125 
 O                    -0.42032   1.04239   1.40601 
 Ca                    0.72515   1.91806  -0.33362 
 
                          Input orientation:                          
 ---------------------------------------------------------------------
 Center     Atomic     Atomic              Coordinates (Angstroms)
 Number     Number      Type              X           Y           Z
 ---------------------------------------------------------------------
    1          8             0       -0.640800    0.419050   -1.499670
    2         15             0       -0.120040   -1.138640   -1.428410
    3         20             0       -2.162960    0.235140    0.314530
    4          8             0       -0.837780   -1.605970   -0.014560
    5          8             0        1.550750   -1.015360   -0.877390
    6          8             0        2.114410    0.146040   -0.066510
    7         20             0        0.821330   -0.893680    1.511250
    8          8             0       -0.420320    1.042390    1.406010
    9         20             0        0.725150    1.918060   -0.333620
 ---------------------------------------------------------------------
                    Distance matrix (angstroms):
                    1          2          3          4          5
     1  O    0.000000
     2  P    1.643979   0.000000
     3  Ca   2.375314   3.016394   0.000000
     4  O    2.518940   1.653034   2.292180   0.000000
     5  O    2.692147   1.763621   4.095860   2.607369   0.000000
     6  O    3.117638   2.915123   4.295233   3.433317   1.524496
     7  Ca   3.595375   3.096415   3.407691   2.363916   2.500492
     8  O    2.979956   3.589011   2.209021   3.034156   3.651488
     9  Ca   2.339342   3.355045   3.404923   3.868247   3.095522
                    6          7          8          9
     6  O    0.000000
     7  Ca   2.289629   0.000000
     8  O    3.065390   2.302420   0.000000
     9  Ca   2.267476   3.364324   2.259472   0.000000
 Stoichiometry    Ca3O5P(1+)
 Framework group  C1[X(Ca3O5P)]
 Deg. of freedom    21
 Full point group                 C1
 Largest Abelian subgroup         C1      NOp   1
 Largest concise Abelian subgroup C1      NOp   1
                         Standard orientation:                         
 ---------------------------------------------------------------------
 Center     Atomic     Atomic              Coordinates (Angstroms)
 Number     Number      Type              X           Y           Z
 ---------------------------------------------------------------------
    1          8             0       -0.640801    0.419046   -1.499671
    2         15             0       -0.120032   -1.138641   -1.428411
    3         20             0       -2.162960    0.235127    0.314529
    4          8             0       -0.837769   -1.605975   -0.014561
    5          8             0        1.550757   -1.015351   -0.877391
    6          8             0        2.114410    0.146053   -0.066511
    7         20             0        0.821336   -0.893675    1.511249
    8          8             0       -0.420325    1.042387    1.406009
    9         20             0        0.725140    1.918064   -0.333621
 ---------------------------------------------------------------------
 Rotational constants (GHZ):      0.9317286      0.8301703      0.7592923
 Standard basis: 6-31+G(d,p) (6D, 7F)
 There are   199 symmetry adapted basis functions of A   symmetry.
 Integral buffers will be    131072 words long.
 Raffenetti 2 integral format.
 Two-electron integral symmetry is turned on.
   199 basis functions,   456 primitive gaussians,   199 cartesian basis functions
    57 alpha electrons       57 beta electrons
       nuclear repulsion energy      1094.2688455304 Hartrees.
 NAtoms=    9 NActive=    9 NUniq=    9 SFac= 7.50D-01 NAtFMM=   80 NAOKFM=F Big=F
 One-electron integrals computed using PRISM.
 NBasis=   199 RedAO= T  NBF=   199
 NBsUse=   199 1.00D-06 NBFU=   199
 Harris functional with IExCor=  402 diagonalized for initial guess.
 ExpMin= 7.10D-03 ExpMax= 3.53D+04 ExpMxC= 5.30D+03 IAcc=3 IRadAn=         5 AccDes= 0.00D+00
 HarFok:  IExCor= 402 AccDes= 0.00D+00 IRadAn=         5 IDoV=1
 ScaDFX=  1.000000  1.000000  1.000000  1.000000
 Initial guess orbital symmetries:
       Occupied  (A) (A) (A) (A) (A) (A) (A) (A) (A) (A) (A) (A)
                 (A) (A) (A) (A) (A) (A) (A) (A) (A) (A) (A) (A)
                 (A) (A) (A) (A) (A) (A) (A) (A) (A) (A) (A) (A)
                 (A) (A) (A) (A) (A) (A) (A) (A) (A) (A) (A) (A)
                 (A) (A) (A) (A) (A) (A) (A) (A) (A)
       Virtual   (A) (A) (A) (A) (A) (A) (A) (A) (A) (A) (A) (A)
                 (A) (A) (A) (A) (A) (A) (A) (A) (A) (A) (A) (A)
                 (A) (A) (A) (A) (A) (A) (A) (A) (A) (A) (A) (A)
                 (A) (A) (A) (A) (A) (A) (A) (A) (A) (A) (A) (A)
                 (A) (A) (A) (A) (A) (A) (A) (A) (A) (A) (A) (A)
                 (A) (A) (A) (A) (A) (A) (A) (A) (A) (A) (A) (A)
                 (A) (A) (A) (A) (A) (A) (A) (A) (A) (A) (A) (A)
                 (A) (A) (A) (A) (A) (A) (A) (A) (A) (A) (A) (A)
                 (A) (A) (A) (A) (A) (A) (A) (A) (A) (A) (A) (A)
                 (A) (A) (A) (A) (A) (A) (A) (A) (A) (A) (A) (A)
                 (A) (A) (A) (A) (A) (A) (A) (A) (A) (A) (A) (A)
                 (A) (A) (A) (A) (A) (A) (A) (A) (A) (A)
 The electronic state of the initial guess is 1-A.
 Requested convergence on RMS density matrix=1.00D-04 within 128 cycles.
 Requested convergence on MAX density matrix=1.00D-02.
 Requested convergence on             energy=1.00D-02.
 No special actions if energy rises.
 EnCoef did     3 forward-backward iterations
 SCF Done:  E(RB+HF-LYP) =  -2750.21034410     A.U. after    8 cycles
             Convg  =    0.9477D-04             -V/T =  2.0029
             S**2   =   0.0000

 **********************************************************************

            Population analysis using the SCF density.

 **********************************************************************

 Orbital symmetries:
       Occupied  (A) (A) (A) (A) (A) (A) (A) (A) (A) (A) (A) (A)
                 (A) (A) (A) (A) (A) (A) (A) (A) (A) (A) (A) (A)
                 (A) (A) (A) (A) (A) (A) (A) (A) (A) (A) (A) (A)
                 (A) (A) (A) (A) (A) (A) (A) (A) (A) (A) (A) (A)
                 (A) (A) (A) (A) (A) (A) (A) (A) (A)
       Virtual   (A) (A) (A) (A) (A) (A) (A) (A) (A) (A) (A) (A)
                 (A) (A) (A) (A) (A) (A) (A) (A) (A) (A) (A) (A)
                 (A) (A) (A) (A) (A) (A) (A) (A) (A) (A) (A) (A)
                 (A) (A) (A) (A) (A) (A) (A) (A) (A) (A) (A) (A)
                 (A) (A) (A) (A) (A) (A) (A) (A) (A) (A) (A) (A)
                 (A) (A) (A) (A) (A) (A) (A) (A) (A) (A) (A) (A)
                 (A) (A) (A) (A) (A) (A) (A) (A) (A) (A) (A) (A)
                 (A) (A) (A) (A) (A) (A) (A) (A) (A) (A) (A) (A)
                 (A) (A) (A) (A) (A) (A) (A) (A) (A) (A) (A) (A)
                 (A) (A) (A) (A) (A) (A) (A) (A) (A) (A) (A) (A)
                 (A) (A) (A) (A) (A) (A) (A) (A) (A) (A) (A) (A)
                 (A) (A) (A) (A) (A) (A) (A) (A) (A) (A)
 The electronic state is 1-A.
 Alpha  occ. eigenvalues -- -145.50971-145.50033-145.49664 -77.27057 -19.28855
 Alpha  occ. eigenvalues --  -19.25350 -19.23443 -19.23036 -19.16664 -15.57806
 Alpha  occ. eigenvalues --  -15.56858 -15.56455 -12.71016 -12.70979 -12.70930
 Alpha  occ. eigenvalues --  -12.70051 -12.70041 -12.69996 -12.69675 -12.69618
 Alpha  occ. eigenvalues --  -12.69604  -6.72149  -4.88577  -4.88437  -4.87914
 Alpha  occ. eigenvalues --   -1.95107  -1.94141  -1.93666  -1.23168  -1.22843
 Alpha  occ. eigenvalues --   -1.22455  -1.22337  -1.21698  -1.21424  -1.21271
 Alpha  occ. eigenvalues --   -1.21078  -1.20708  -1.13172  -1.07396  -1.02699
 Alpha  occ. eigenvalues --   -0.93086  -0.91566  -0.65303  -0.55841  -0.52709
 Alpha  occ. eigenvalues --   -0.51414  -0.48533  -0.47288  -0.44381  -0.42315
 Alpha  occ. eigenvalues --   -0.39789  -0.38427  -0.37066  -0.36747  -0.35855
 Alpha  occ. eigenvalues --   -0.34610  -0.32792
 Alpha virt. eigenvalues --   -0.20649  -0.18461  -0.17441  -0.13976  -0.12921
 Alpha virt. eigenvalues --   -0.11314  -0.10746  -0.09648  -0.08851  -0.08054
 Alpha virt. eigenvalues --   -0.07444  -0.06427  -0.06172  -0.05805  -0.05329
 Alpha virt. eigenvalues --   -0.04947  -0.04919  -0.04691  -0.04371  -0.04094
 Alpha virt. eigenvalues --   -0.03852  -0.03689  -0.03224  -0.03137  -0.02706
 Alpha virt. eigenvalues --   -0.02356  -0.01748  -0.00699   0.01025   0.01765
 Alpha virt. eigenvalues --    0.02073   0.02715   0.03379   0.04038   0.04339
 Alpha virt. eigenvalues --    0.05340   0.05689   0.05887   0.06073   0.06432
 Alpha virt. eigenvalues --    0.06833   0.07147   0.07568   0.07629   0.08025
 Alpha virt. eigenvalues --    0.09477   0.09793   0.10246   0.11293   0.11723
 Alpha virt. eigenvalues --    0.12843   0.13889   0.15429   0.15589   0.17154
 Alpha virt. eigenvalues --    0.19389   0.20452   0.20735   0.21136   0.22427
 Alpha virt. eigenvalues --    0.23540   0.23637   0.24874   0.25319   0.26022
 Alpha virt. eigenvalues --    0.27695   0.30005   0.30936   0.32437   0.34066
 Alpha virt. eigenvalues --    0.34854   0.35470   0.37298   0.38217   0.39160
 Alpha virt. eigenvalues --    0.40511   0.42765   0.45117   0.48532   0.52182
 Alpha virt. eigenvalues --    0.53942   0.58194   0.61083   0.62509   0.65206
 Alpha virt. eigenvalues --    0.80042   0.84193   0.87303   0.90329   0.96124
 Alpha virt. eigenvalues --    1.10336   1.12676   1.13293   1.15401   1.16677
 Alpha virt. eigenvalues --    1.17796   1.19524   1.20487   1.21966   1.22851
 Alpha virt. eigenvalues --    1.23737   1.26488   1.27286   1.31284   1.32542
 Alpha virt. eigenvalues --    1.39055   1.47680   1.51346   1.53271   1.59241
 Alpha virt. eigenvalues --    1.60896   1.67763   1.68945   1.70582   1.71870
 Alpha virt. eigenvalues --    1.76278   1.78987   1.79911   1.84176   1.85739
 Alpha virt. eigenvalues --    1.86413   1.89122   1.89491   1.91701   1.93145
 Alpha virt. eigenvalues --    1.96043   1.97160   1.98634   2.01559   2.08803
 Alpha virt. eigenvalues --    2.15182   2.21059   2.32731   2.50920   2.58369
 Alpha virt. eigenvalues --    3.06270   3.51035   4.00827   4.10622   4.13726
 Alpha virt. eigenvalues --    4.22594   4.33585
          Condensed to atoms (all electrons):
              1          2          3          4          5          6
     1  O    8.952298  -0.099043   0.074802   0.021900   0.032748  -0.005467
     2  P   -0.099043  14.359322  -0.024801  -0.154591  -0.126501  -0.008007
     3  Ca   0.074802  -0.024801  18.391254   0.079906   0.050812  -0.019277
     4  O    0.021900  -0.154591   0.079906   8.946821   0.034418   0.015592
     5  O    0.032748  -0.126501   0.050812   0.034418   8.559140  -0.027453
     6  O   -0.005467  -0.008007  -0.019277   0.015592  -0.027453   8.432625
     7  Ca   0.009760   0.020923  -0.070481   0.052998   0.002837   0.100032
     8  O    0.018689  -0.026505   0.142564   0.028902  -0.013198   0.022073
     9  Ca   0.030947  -0.015292  -0.046624   0.007001  -0.025113   0.110498
              7          8          9
     1  O    0.009760   0.018689   0.030947
     2  P    0.020923  -0.026505  -0.015292
     3  Ca  -0.070481   0.142564  -0.046624
     4  O    0.052998   0.028902   0.007001
     5  O    0.002837  -0.013198  -0.025113
     6  O    0.100032   0.022073   0.110498
     7  Ca  18.363146   0.110071  -0.040626
     8  O    0.110071   8.856674   0.125158
     9  Ca  -0.040626   0.125158  18.359413
 Mulliken atomic charges:
              1
     1  O   -1.036634
     2  P    1.074495
     3  Ca   1.421844
     4  O   -1.032947
     5  O   -0.487690
     6  O   -0.620617
     7  Ca   1.451340
     8  O   -1.264428
     9  Ca   1.494637
 Sum of Mulliken charges=   1.00000
 Atomic charges with hydrogens summed into heavy atoms:
              1
     1  O   -1.036634
     2  P    1.074495
     3  Ca   1.421844
     4  O   -1.032947
     5  O   -0.487690
     6  O   -0.620617
     7  Ca   1.451340
     8  O   -1.264428
     9  Ca   1.494637
 Sum of Mulliken charges=   1.00000
 Electronic spatial extent (au):  <R**2>=  1755.0899
 Charge=     1.0000 electrons
 Dipole moment (field-independent basis, Debye):
    X=    -4.9084    Y=     5.7930    Z=     5.8604  Tot=     9.5914
 Quadrupole moment (field-independent basis, Debye-Ang):
   XX=   -52.0355   YY=   -57.9015   ZZ=   -75.5641
   XY=     2.1383   XZ=     5.9766   YZ=   -22.4108
 Traceless Quadrupole moment (field-independent basis, Debye-Ang):
   XX=     9.7982   YY=     3.9322   ZZ=   -13.7304
   XY=     2.1383   XZ=     5.9766   YZ=   -22.4108
 Octapole moment (field-independent basis, Debye-Ang**2):
  XXX=  -116.4330  YYY=    80.2131  ZZZ=    43.1935  XYY=    35.8263
  XXY=    22.6124  XXZ=    29.9662  XZZ=    23.6443  YZZ=   -27.6747
  YYZ=    -1.7407  XYZ=   -14.7641
 Hexadecapole moment (field-independent basis, Debye-Ang**3):
 XXXX=  -597.8195 YYYY=  -543.3494 ZZZZ=  -598.0980 XXXY=   -15.2622
 XXXZ=    -4.4053 YYYX=    35.9061 YYYZ=   -99.2813 ZZZX=    34.8048
 ZZZY=  -104.8287 XXYY=  -214.2986 XXZZ=  -207.1504 YYZZ=  -207.4446
 XXYZ=   -28.6201 YYXZ=    12.9283 ZZXY=    -0.1870
 N-N= 1.094268845530D+03 E-N=-8.689383464957D+03  KE= 2.742234919275D+03
 Merz-Kollman atomic radii used.
 Read replacement radii for each type of atom:
 Rad(20) =   1.188000000000D+00
 Atom Element Radius
    1     8    1.40
    2    15    1.80
    3    20    1.19
    4     8    1.40
    5     8    1.40
    6     8    1.40
    7    20    1.19
    8     8    1.40
    9    20    1.19

 **********************************************************************

            Electrostatic Properties Using The SCF Density

 **********************************************************************

       Atomic Center    1 is at  -0.640801  0.419046 -1.499671
       Atomic Center    2 is at  -0.120032 -1.138641 -1.428411
       Atomic Center    3 is at  -2.162960  0.235127  0.314529
       Atomic Center    4 is at  -0.837769 -1.605975 -0.014561
       Atomic Center    5 is at   1.550757 -1.015351 -0.877391
       Atomic Center    6 is at   2.114410  0.146053 -0.066511
       Atomic Center    7 is at   0.821336 -0.893675  1.511249
       Atomic Center    8 is at  -0.420325  1.042387  1.406009
       Atomic Center    9 is at   0.725140  1.918064 -0.333621
     723 points will be used for fitting atomic charges
 Fitting point charges to eletrostatic potential
 Charges from ESP fit, RMS=   0.00532 RRMS=   0.03344:
 Charge=   1.00000 Dipole=    -4.9382     5.8586     5.9277 Tot=     9.6875
              1
     1  O   -0.883164
     2  P    0.440849
     3  Ca   1.663481
     4  O   -0.926833
     5  O   -0.297074
     6  O   -0.729202
     7  Ca   1.682526
     8  O   -1.628348
     9  Ca   1.677765
 -----------------------------------------------------------------

              Electrostatic Properties (Atomic Units)

 -----------------------------------------------------------------
    Center     Electric         -------- Electric Field --------
               Potential          X             Y             Z
 -----------------------------------------------------------------
    1 Atom    -22.227856
    2 Atom    -53.948708
    3 Atom    -80.031520
    4 Atom    -22.242881
    5 Atom    -22.179492
    6 Atom    -22.207874
    7 Atom    -80.043297
    8 Atom    -22.307087
    9 Atom    -80.039865
 -----------------------------------------------------------------
 1\1\GINC-N031\SP\RB3LYP\6-31+G(d,p)\Ca3O5P1(1+)\TIMN\12-Jun-2015\0\\# 
 b3lyp/6-31+G(d,p) int=ultrafine pop=(ReadRadii,MK)\\mol_17.22.52.pdbcc
 c_plusQ.z58202.zip.xyz\\1,1\O,0,-0.6408,0.41905,-1.49967\P,0,-0.12004,
 -1.13864,-1.42841\Ca,0,-2.16296,0.23514,0.31453\O,0,-0.83778,-1.60597,
 -0.01456\O,0,1.55075,-1.01536,-0.87739\O,0,2.11441,0.14604,-0.06651\Ca
 ,0,0.82133,-0.89368,1.51125\O,0,-0.42032,1.04239,1.40601\Ca,0,0.72515,
 1.91806,-0.33362\\Version=EM64T-G03RevE.01\State=1-A\HF=-2750.2103441\
 RMSD=9.477e-05\Thermal=0.\Dipole=-1.9310807,2.2791635,2.3056665\PG=C01
  [X(Ca3O5P1)]\\@


 If fifty million people say a stupid thing,
 it is still a stupid thing.
                   -- Anatole France
 The theorems and results in mathematical physics are
 not theorems and results about Nature, but about our
 description of it.
                   --Gerard 't Hooft
 Job cpu time:  0 days  0 hours  2 minutes 13.3 seconds.
 File lengths (MBytes):  RWF=     36 Int=      0 D2E=      0 Chk=     11 Scr=      1
 Normal termination of Gaussian 03 at Fri Jun 12 17:51:14 2015.
