 Entering Gaussian System, Link 0=/home/timn/tmp/g03.e01/g03
 Input=mol_16.4.30.pdbc_plusQ.out.z51580.zip.xyz.gjf
 Output=mol_16.4.30.pdbc_plusQ.out.z51580.zip.xyz.out
 Initial command:
 /home/timn/tmp/g03.e01/l1.exe /home/timn/tmp/g03.e01/Gau-14045.inp -scrdir=/home/timn/tmp/g03.e01/
 Default is to use a total of   2 processors:
                                2 via shared-memory
                                1 via Linda
 Entering Link 1 = /home/timn/tmp/g03.e01/l1.exe PID=     14047.
  
 Copyright (c) 1988,1990,1992,1993,1995,1998,2003,2004,2007, Gaussian, Inc.
                  All Rights Reserved.
  
 This is the Gaussian(R) 03 program.  It is based on the
 the Gaussian(R) 98 system (copyright 1998, Gaussian, Inc.),
 the Gaussian(R) 94 system (copyright 1995, Gaussian, Inc.),
 the Gaussian 92(TM) system (copyright 1992, Gaussian, Inc.),
 the Gaussian 90(TM) system (copyright 1990, Gaussian, Inc.),
 the Gaussian 88(TM) system (copyright 1988, Gaussian, Inc.),
 the Gaussian 86(TM) system (copyright 1986, Carnegie Mellon
 University), and the Gaussian 82(TM) system (copyright 1983,
 Carnegie Mellon University). Gaussian is a federally registered
 trademark of Gaussian, Inc.
  
 This software contains proprietary and confidential information,
 including trade secrets, belonging to Gaussian, Inc.
  
 This software is provided under written license and may be
 used, copied, transmitted, or stored only in accord with that
 written license.
  
 The following legend is applicable only to US Government
 contracts under FAR:
  
                    RESTRICTED RIGHTS LEGEND
  
 Use, reproduction and disclosure by the US Government is
 subject to restrictions as set forth in subparagraphs (a)
 and (c) of the Commercial Computer Software - Restricted
 Rights clause in FAR 52.227-19.
  
 Gaussian, Inc.
 340 Quinnipiac St., Bldg. 40, Wallingford CT 06492
  
  
 ---------------------------------------------------------------
 Warning -- This program may not be used in any manner that
 competes with the business of Gaussian, Inc. or will provide
 assistance to any competitor of Gaussian, Inc.  The licensee
 of this program is prohibited from giving any competitor of
 Gaussian, Inc. access to this program.  By using this program,
 the user acknowledges that Gaussian, Inc. is engaged in the
 business of creating and licensing software in the field of
 computational chemistry and represents and warrants to the
 licensee that it is not a competitor of Gaussian, Inc. and that
 it will not use this program in any manner prohibited above.
 ---------------------------------------------------------------
  

 Cite this work as:
 Gaussian 03, Revision E.01,
 M. J. Frisch, G. W. Trucks, H. B. Schlegel, G. E. Scuseria, 
 M. A. Robb, J. R. Cheeseman, J. A. Montgomery, Jr., T. Vreven, 
 K. N. Kudin, J. C. Burant, J. M. Millam, S. S. Iyengar, J. Tomasi, 
 V. Barone, B. Mennucci, M. Cossi, G. Scalmani, N. Rega, 
 G. A. Petersson, H. Nakatsuji, M. Hada, M. Ehara, K. Toyota, 
 R. Fukuda, J. Hasegawa, M. Ishida, T. Nakajima, Y. Honda, O. Kitao, 
 H. Nakai, M. Klene, X. Li, J. E. Knox, H. P. Hratchian, J. B. Cross, 
 V. Bakken, C. Adamo, J. Jaramillo, R. Gomperts, R. E. Stratmann, 
 O. Yazyev, A. J. Austin, R. Cammi, C. Pomelli, J. W. Ochterski, 
 P. Y. Ayala, K. Morokuma, G. A. Voth, P. Salvador, J. J. Dannenberg, 
 V. G. Zakrzewski, S. Dapprich, A. D. Daniels, M. C. Strain, 
 O. Farkas, D. K. Malick, A. D. Rabuck, K. Raghavachari, 
 J. B. Foresman, J. V. Ortiz, Q. Cui, A. G. Baboul, S. Clifford, 
 J. Cioslowski, B. B. Stefanov, G. Liu, A. Liashenko, P. Piskorz, 
 I. Komaromi, R. L. Martin, D. J. Fox, T. Keith, M. A. Al-Laham, 
 C. Y. Peng, A. Nanayakkara, M. Challacombe, P. M. W. Gill, 
 B. Johnson, W. Chen, M. W. Wong, C. Gonzalez, and J. A. Pople, 
 Gaussian, Inc., Wallingford CT, 2004.
 
 ******************************************
 Gaussian 03:  EM64T-G03RevE.01 11-Sep-2007
                12-Jun-2015 
 ******************************************
 %nproc=2
 Will use up to    2 processors via shared memory.
 Default route:  MP2=Direct MaxDisk=2000MB
 ----------------------------------------------------
 # b3lyp/6-31+G(d,p) int=ultrafine pop=(ReadRadii,MK)
 ----------------------------------------------------

 Warning!  SCF SP cutoffs with diffuse functions may be unreliable.
 Consider SCF=Tight

 1/38=1/1;
 2/17=6,18=5,40=1/2;
 3/5=1,6=6,7=111,11=2,16=1,25=1,30=1,74=-5,75=5/1,2,3;
 4//1;
 5/5=2,32=1,38=5/2;
 6/7=2,8=2,9=2,10=2,15=8,20=101,28=1/1,2;
 99/5=1,9=1/99;
 -----------------------------------------
 mol_16.4.30.pdbc_plusQ.out.z51580.zip.xyz
 -----------------------------------------
 Symbolic Z-matrix:
 Charge =  1 Multiplicity = 1
 O                     1.98671   1.27632   0.43826 
 Ca                    2.39633  -0.54233  -0.55622 
 P                    -1.12446  -1.09014  -0.25483 
 O                    -2.27687  -1.96672  -0.51095 
 O                    -1.24767   0.25356   0.45056 
 Ca                    0.10883   1.97861   1.10507 
 O                     0.2957   -1.4472   -0.67189 
 
                          Input orientation:                          
 ---------------------------------------------------------------------
 Center     Atomic     Atomic              Coordinates (Angstroms)
 Number     Number      Type              X           Y           Z
 ---------------------------------------------------------------------
    1          8             0        1.986710    1.276320    0.438260
    2         20             0        2.396330   -0.542330   -0.556220
    3         15             0       -1.124460   -1.090140   -0.254830
    4          8             0       -2.276870   -1.966720   -0.510950
    5          8             0       -1.247670    0.253560    0.450560
    6         20             0        0.108830    1.978610    1.105070
    7          8             0        0.295700   -1.447200   -0.671890
 ---------------------------------------------------------------------
                    Distance matrix (angstroms):
                    1          2          3          4          5
     1  O    0.000000
     2  Ca   2.112881   0.000000
     3  P    3.969872   3.575877   0.000000
     4  O    5.440259   4.885666   1.470387   0.000000
     5  O    3.392256   3.863390   1.522592   2.629334   0.000000
     6  Ca   2.112884   3.787833   3.575970   4.885562   2.290038
     7  O    3.392567   2.290156   1.522592   2.629433   2.556261
                    6          7
     6  Ca   0.000000
     7  O    3.863765   0.000000
 Stoichiometry    Ca2O4P(1+)
 Framework group  C1[X(Ca2O4P)]
 Deg. of freedom    15
 Full point group                 C1
 Largest Abelian subgroup         C1      NOp   1
 Largest concise Abelian subgroup C1      NOp   1
                         Standard orientation:                         
 ---------------------------------------------------------------------
 Center     Atomic     Atomic              Coordinates (Angstroms)
 Number     Number      Type              X           Y           Z
 ---------------------------------------------------------------------
    1          8             0       -2.193285    0.000063    0.000411
    2         20             0       -1.256534    1.893938    0.000117
    3         15             0        1.776587   -0.000019   -0.000030
    4          8             0        3.246974   -0.000304    0.000351
    5          8             0        0.948981   -1.278047    0.000379
    6         20             0       -1.256694   -1.893895   -0.000213
    7          8             0        0.949299    1.278214   -0.000843
 ---------------------------------------------------------------------
 Rotational constants (GHZ):      1.4910382      1.0141154      0.6035897
 Standard basis: 6-31+G(d,p) (6D, 7F)
 There are   153 symmetry adapted basis functions of A   symmetry.
 Integral buffers will be    131072 words long.
 Raffenetti 2 integral format.
 Two-electron integral symmetry is turned on.
   153 basis functions,   344 primitive gaussians,   153 cartesian basis functions
    43 alpha electrons       43 beta electrons
       nuclear repulsion energy       585.0449038669 Hartrees.
 NAtoms=    7 NActive=    7 NUniq=    7 SFac= 7.50D-01 NAtFMM=   80 NAOKFM=F Big=F
 One-electron integrals computed using PRISM.
 NBasis=   153 RedAO= T  NBF=   153
 NBsUse=   153 1.00D-06 NBFU=   153
 Harris functional with IExCor=  402 diagonalized for initial guess.
 ExpMin= 7.10D-03 ExpMax= 3.53D+04 ExpMxC= 5.30D+03 IAcc=3 IRadAn=         5 AccDes= 0.00D+00
 HarFok:  IExCor= 402 AccDes= 0.00D+00 IRadAn=         5 IDoV=1
 ScaDFX=  1.000000  1.000000  1.000000  1.000000
 Initial guess orbital symmetries:
       Occupied  (A) (A) (A) (A) (A) (A) (A) (A) (A) (A) (A) (A)
                 (A) (A) (A) (A) (A) (A) (A) (A) (A) (A) (A) (A)
                 (A) (A) (A) (A) (A) (A) (A) (A) (A) (A) (A) (A)
                 (A) (A) (A) (A) (A) (A) (A)
       Virtual   (A) (A) (A) (A) (A) (A) (A) (A) (A) (A) (A) (A)
                 (A) (A) (A) (A) (A) (A) (A) (A) (A) (A) (A) (A)
                 (A) (A) (A) (A) (A) (A) (A) (A) (A) (A) (A) (A)
                 (A) (A) (A) (A) (A) (A) (A) (A) (A) (A) (A) (A)
                 (A) (A) (A) (A) (A) (A) (A) (A) (A) (A) (A) (A)
                 (A) (A) (A) (A) (A) (A) (A) (A) (A) (A) (A) (A)
                 (A) (A) (A) (A) (A) (A) (A) (A) (A) (A) (A) (A)
                 (A) (A) (A) (A) (A) (A) (A) (A) (A) (A) (A) (A)
                 (A) (A) (A) (A) (A) (A) (A) (A) (A) (A) (A) (A)
                 (A) (A)
 The electronic state of the initial guess is 1-A.
 Requested convergence on RMS density matrix=1.00D-04 within 128 cycles.
 Requested convergence on MAX density matrix=1.00D-02.
 Requested convergence on             energy=1.00D-02.
 No special actions if energy rises.
 EnCoef did     1 forward-backward iterations
 EnCoef did     3 forward-backward iterations
 SCF Done:  E(RB+HF-LYP) =  -1997.36495569     A.U. after    9 cycles
             Convg  =    0.4841D-04             -V/T =  2.0032
             S**2   =   0.0000

 **********************************************************************

            Population analysis using the SCF density.

 **********************************************************************

 Orbital symmetries:
       Occupied  (A) (A) (A) (A) (A) (A) (A) (A) (A) (A) (A) (A)
                 (A) (A) (A) (A) (A) (A) (A) (A) (A) (A) (A) (A)
                 (A) (A) (A) (A) (A) (A) (A) (A) (A) (A) (A) (A)
                 (A) (A) (A) (A) (A) (A) (A)
       Virtual   (A) (A) (A) (A) (A) (A) (A) (A) (A) (A) (A) (A)
                 (A) (A) (A) (A) (A) (A) (A) (A) (A) (A) (A) (A)
                 (A) (A) (A) (A) (A) (A) (A) (A) (A) (A) (A) (A)
                 (A) (A) (A) (A) (A) (A) (A) (A) (A) (A) (A) (A)
                 (A) (A) (A) (A) (A) (A) (A) (A) (A) (A) (A) (A)
                 (A) (A) (A) (A) (A) (A) (A) (A) (A) (A) (A) (A)
                 (A) (A) (A) (A) (A) (A) (A) (A) (A) (A) (A) (A)
                 (A) (A) (A) (A) (A) (A) (A) (A) (A) (A) (A) (A)
                 (A) (A) (A) (A) (A) (A) (A) (A) (A) (A) (A) (A)
                 (A) (A)
 The electronic state is 1-A.
 Alpha  occ. eigenvalues -- -145.53595-145.53595 -77.35862 -19.29932 -19.29931
 Alpha  occ. eigenvalues --  -19.27566 -19.15852 -15.60451 -15.60450 -12.73701
 Alpha  occ. eigenvalues --  -12.73700 -12.73626 -12.73625 -12.73536 -12.73534
 Alpha  occ. eigenvalues --   -6.81070  -4.97688  -4.97217  -4.97121  -1.97568
 Alpha  occ. eigenvalues --   -1.97551  -1.25349  -1.25330  -1.25298  -1.25085
 Alpha  occ. eigenvalues --   -1.24706  -1.24175  -1.18402  -1.11388  -1.10404
 Alpha  occ. eigenvalues --   -0.90349  -0.67786  -0.60016  -0.56617  -0.55843
 Alpha  occ. eigenvalues --   -0.50174  -0.48059  -0.47799  -0.45417  -0.42512
 Alpha  occ. eigenvalues --   -0.36651  -0.34565  -0.34388
 Alpha virt. eigenvalues --   -0.22299  -0.20459  -0.16814  -0.14889  -0.13474
 Alpha virt. eigenvalues --   -0.12519  -0.11816  -0.10787  -0.09942  -0.08257
 Alpha virt. eigenvalues --   -0.07257  -0.06248  -0.05558  -0.05269  -0.04860
 Alpha virt. eigenvalues --   -0.04660  -0.04645  -0.04368  -0.03658  -0.01085
 Alpha virt. eigenvalues --   -0.01049  -0.00626   0.00367   0.01677   0.02308
 Alpha virt. eigenvalues --    0.02657   0.02897   0.03365   0.04418   0.04543
 Alpha virt. eigenvalues --    0.05197   0.06554   0.06575   0.06663   0.07209
 Alpha virt. eigenvalues --    0.07469   0.09173   0.09175   0.12102   0.12984
 Alpha virt. eigenvalues --    0.14114   0.14859   0.15422   0.17802   0.20130
 Alpha virt. eigenvalues --    0.20679   0.20801   0.21208   0.21897   0.23110
 Alpha virt. eigenvalues --    0.23955   0.26592   0.28726   0.29011   0.33786
 Alpha virt. eigenvalues --    0.35459   0.37212   0.45321   0.50548   0.53414
 Alpha virt. eigenvalues --    0.54087   0.54929   0.56952   0.64005   0.66959
 Alpha virt. eigenvalues --    0.80788   0.91855   0.92860   0.95136   1.03881
 Alpha virt. eigenvalues --    1.05568   1.05837   1.11443   1.12676   1.13831
 Alpha virt. eigenvalues --    1.15131   1.16982   1.20451   1.21573   1.22152
 Alpha virt. eigenvalues --    1.26598   1.38469   1.38800   1.41333   1.48646
 Alpha virt. eigenvalues --    1.63803   1.64475   1.65459   1.66586   1.69074
 Alpha virt. eigenvalues --    1.73597   1.74070   1.80206   1.80402   1.81520
 Alpha virt. eigenvalues --    1.84679   1.90568   1.93265   1.96190   1.98516
 Alpha virt. eigenvalues --    2.17058   2.18391   2.56329   2.69397   2.77900
 Alpha virt. eigenvalues --    3.35220   3.81859   3.93308   3.93327   3.96388
          Condensed to atoms (all electrons):
              1          2          3          4          5          6
     1  O    8.742436   0.228003  -0.023480  -0.000503   0.011531   0.227987
     2  Ca   0.228003  18.255858  -0.017969   0.000124  -0.024974  -0.017315
     3  P   -0.023480  -0.017969  12.523184   0.472281   0.252335  -0.017966
     4  O   -0.000503   0.000124   0.472281   8.434136  -0.147190   0.000115
     5  O    0.011531  -0.024974   0.252335  -0.147190   9.049438   0.091045
     6  Ca   0.227987  -0.017315  -0.017966   0.000115   0.091045  18.255857
     7  O    0.011532   0.091041   0.252397  -0.147161  -0.371977  -0.024959
              7
     1  O    0.011532
     2  Ca   0.091041
     3  P    0.252397
     4  O   -0.147161
     5  O   -0.371977
     6  Ca  -0.024959
     7  O    9.049296
 Mulliken atomic charges:
              1
     1  O   -1.197505
     2  Ca   1.485232
     3  P    1.559218
     4  O   -0.611802
     5  O   -0.860209
     6  Ca   1.485237
     7  O   -0.860170
 Sum of Mulliken charges=   1.00000
 Atomic charges with hydrogens summed into heavy atoms:
              1
     1  O   -1.197505
     2  Ca   1.485232
     3  P    1.559218
     4  O   -0.611802
     5  O   -0.860209
     6  Ca   1.485237
     7  O   -0.860170
 Sum of Mulliken charges=   1.00000
 Electronic spatial extent (au):  <R**2>=  1591.5908
 Charge=     1.0000 electrons
 Dipole moment (field-independent basis, Debye):
    X=    -8.6749    Y=     0.0001    Z=    -0.0027  Tot=     8.6749
 Quadrupole moment (field-independent basis, Debye-Ang):
   XX=   -74.7381   YY=    -7.7862   ZZ=   -53.5432
   XY=     0.0033   XZ=     0.0043   YZ=     0.0108
 Traceless Quadrupole moment (field-independent basis, Debye-Ang):
   XX=   -29.3823   YY=    37.5697   ZZ=    -8.1874
   XY=     0.0033   XZ=     0.0043   YZ=     0.0108
 Octapole moment (field-independent basis, Debye-Ang**2):
  XXX=   -29.9608  YYY=     0.0020  ZZZ=    -0.0051  XYY=   -94.5565
  XXY=    -0.0044  XXZ=    -0.0230  XZZ=    -3.7988  YZZ=    -0.0001
  YYZ=    -0.0007  XYZ=    -0.0003
 Hexadecapole moment (field-independent basis, Debye-Ang**3):
 XXXX= -1410.7821 YYYY=  -350.5020 ZZZZ=   -55.9836 XXXY=     0.0372
 XXXZ=     0.0063 YYYX=     0.0043 YYYZ=     0.0396 ZZZX=     0.0095
 ZZZY=     0.0162 XXYY=  -187.4184 XXZZ=  -191.1659 YYZZ=   -97.4639
 XXYZ=     0.0184 YYXZ=     0.0089 ZZXY=     0.0020
 N-N= 5.850449038669D+02 E-N=-5.888502060011D+03  KE= 1.991044581505D+03
 Merz-Kollman atomic radii used.
 Read replacement radii for each type of atom:
 Rad(20) =   1.188000000000D+00
 Atom Element Radius
    1     8    1.40
    2    20    1.19
    3    15    1.80
    4     8    1.40
    5     8    1.40
    6    20    1.19
    7     8    1.40

 **********************************************************************

            Electrostatic Properties Using The SCF Density

 **********************************************************************

       Atomic Center    1 is at  -2.193285  0.000063  0.000411
       Atomic Center    2 is at  -1.256534  1.893938  0.000117
       Atomic Center    3 is at   1.776587 -0.000019 -0.000030
       Atomic Center    4 is at   3.246974 -0.000304  0.000351
       Atomic Center    5 is at   0.948981 -1.278047  0.000379
       Atomic Center    6 is at  -1.256694 -1.893895 -0.000213
       Atomic Center    7 is at   0.949299  1.278214 -0.000843
     685 points will be used for fitting atomic charges
 Fitting point charges to eletrostatic potential
 Charges from ESP fit, RMS=   0.00371 RRMS=   0.02314:
 Charge=   1.00000 Dipole=    -8.8297     0.0001    -0.0029 Tot=     8.8297
              1
     1  O   -1.558660
     2  Ca   1.739345
     3  P    1.484159
     4  O   -0.539774
     5  O   -0.932250
     6  Ca   1.739358
     7  O   -0.932176
 -----------------------------------------------------------------

              Electrostatic Properties (Atomic Units)

 -----------------------------------------------------------------
    Center     Electric         -------- Electric Field --------
               Potential          X             Y             Z
 -----------------------------------------------------------------
    1 Atom    -22.292899
    2 Atom    -80.004822
    3 Atom    -53.847800
    4 Atom    -22.195888
    5 Atom    -22.162000
    6 Atom    -80.004827
    7 Atom    -22.161992
 -----------------------------------------------------------------
 1\1\GINC-N029\SP\RB3LYP\6-31+G(d,p)\Ca2O4P1(1+)\TIMN\12-Jun-2015\0\\# 
 b3lyp/6-31+G(d,p) int=ultrafine pop=(ReadRadii,MK)\\mol_16.4.30.pdbc_p
 lusQ.out.z51580.zip.xyz\\1,1\O,0,1.98671,1.27632,0.43826\Ca,0,2.39633,
 -0.54233,-0.55622\P,0,-1.12446,-1.09014,-0.25483\O,0,-2.27687,-1.96672
 ,-0.51095\O,0,-1.24767,0.25356,0.45056\Ca,0,0.10883,1.97861,1.10507\O,
 0,0.2957,-1.4472,-0.67189\\Version=EM64T-G03RevE.01\State=1-A\HF=-1997
 .3649557\RMSD=4.841e-05\Thermal=0.\Dipole=2.6745018,2.0351304,0.594608
 9\PG=C01 [X(Ca2O4P1)]\\@


 IT IS WELL TO REMEMBER THAT MAN IS A PART OF NATURE AND THAT HIS WORKS,
 WHATEVER THEY MAY BE, ARE NO MORE "UNNATURAL" THAN 
 THE FLIGHT OF AN EAGLE OR THE PASSAGE OF A TORNADO.

                                    -- CHARLES MCCARRY IN "THE GREAT SOUTHWEST"
 Job cpu time:  0 days  0 hours  1 minutes  1.9 seconds.
 File lengths (MBytes):  RWF=     28 Int=      0 D2E=      0 Chk=     10 Scr=      1
 Normal termination of Gaussian 03 at Fri Jun 12 17:48:21 2015.
