 Entering Gaussian System, Link 0=/home/timn/tmp/g03.e01/g03
 Input=mol_17.29.38.pdbccc_plusQ.z58620.zip.xyz.gjf
 Output=mol_17.29.38.pdbccc_plusQ.z58620.zip.xyz.out
 Initial command:
 /home/timn/tmp/g03.e01/l1.exe /home/timn/tmp/g03.e01/Gau-13828.inp -scrdir=/home/timn/tmp/g03.e01/
 Default is to use a total of   2 processors:
                                2 via shared-memory
                                1 via Linda
 Entering Link 1 = /home/timn/tmp/g03.e01/l1.exe PID=     13829.
  
 Copyright (c) 1988,1990,1992,1993,1995,1998,2003,2004,2007, Gaussian, Inc.
                  All Rights Reserved.
  
 This is the Gaussian(R) 03 program.  It is based on the
 the Gaussian(R) 98 system (copyright 1998, Gaussian, Inc.),
 the Gaussian(R) 94 system (copyright 1995, Gaussian, Inc.),
 the Gaussian 92(TM) system (copyright 1992, Gaussian, Inc.),
 the Gaussian 90(TM) system (copyright 1990, Gaussian, Inc.),
 the Gaussian 88(TM) system (copyright 1988, Gaussian, Inc.),
 the Gaussian 86(TM) system (copyright 1986, Carnegie Mellon
 University), and the Gaussian 82(TM) system (copyright 1983,
 Carnegie Mellon University). Gaussian is a federally registered
 trademark of Gaussian, Inc.
  
 This software contains proprietary and confidential information,
 including trade secrets, belonging to Gaussian, Inc.
  
 This software is provided under written license and may be
 used, copied, transmitted, or stored only in accord with that
 written license.
  
 The following legend is applicable only to US Government
 contracts under FAR:
  
                    RESTRICTED RIGHTS LEGEND
  
 Use, reproduction and disclosure by the US Government is
 subject to restrictions as set forth in subparagraphs (a)
 and (c) of the Commercial Computer Software - Restricted
 Rights clause in FAR 52.227-19.
  
 Gaussian, Inc.
 340 Quinnipiac St., Bldg. 40, Wallingford CT 06492
  
  
 ---------------------------------------------------------------
 Warning -- This program may not be used in any manner that
 competes with the business of Gaussian, Inc. or will provide
 assistance to any competitor of Gaussian, Inc.  The licensee
 of this program is prohibited from giving any competitor of
 Gaussian, Inc. access to this program.  By using this program,
 the user acknowledges that Gaussian, Inc. is engaged in the
 business of creating and licensing software in the field of
 computational chemistry and represents and warrants to the
 licensee that it is not a competitor of Gaussian, Inc. and that
 it will not use this program in any manner prohibited above.
 ---------------------------------------------------------------
  

 Cite this work as:
 Gaussian 03, Revision E.01,
 M. J. Frisch, G. W. Trucks, H. B. Schlegel, G. E. Scuseria, 
 M. A. Robb, J. R. Cheeseman, J. A. Montgomery, Jr., T. Vreven, 
 K. N. Kudin, J. C. Burant, J. M. Millam, S. S. Iyengar, J. Tomasi, 
 V. Barone, B. Mennucci, M. Cossi, G. Scalmani, N. Rega, 
 G. A. Petersson, H. Nakatsuji, M. Hada, M. Ehara, K. Toyota, 
 R. Fukuda, J. Hasegawa, M. Ishida, T. Nakajima, Y. Honda, O. Kitao, 
 H. Nakai, M. Klene, X. Li, J. E. Knox, H. P. Hratchian, J. B. Cross, 
 V. Bakken, C. Adamo, J. Jaramillo, R. Gomperts, R. E. Stratmann, 
 O. Yazyev, A. J. Austin, R. Cammi, C. Pomelli, J. W. Ochterski, 
 P. Y. Ayala, K. Morokuma, G. A. Voth, P. Salvador, J. J. Dannenberg, 
 V. G. Zakrzewski, S. Dapprich, A. D. Daniels, M. C. Strain, 
 O. Farkas, D. K. Malick, A. D. Rabuck, K. Raghavachari, 
 J. B. Foresman, J. V. Ortiz, Q. Cui, A. G. Baboul, S. Clifford, 
 J. Cioslowski, B. B. Stefanov, G. Liu, A. Liashenko, P. Piskorz, 
 I. Komaromi, R. L. Martin, D. J. Fox, T. Keith, M. A. Al-Laham, 
 C. Y. Peng, A. Nanayakkara, M. Challacombe, P. M. W. Gill, 
 B. Johnson, W. Chen, M. W. Wong, C. Gonzalez, and J. A. Pople, 
 Gaussian, Inc., Wallingford CT, 2004.
 
 ******************************************
 Gaussian 03:  EM64T-G03RevE.01 11-Sep-2007
                12-Jun-2015 
 ******************************************
 %nproc=2
 Will use up to    2 processors via shared memory.
 Default route:  MP2=Direct MaxDisk=2000MB
 ----------------------------------------------------
 # b3lyp/6-31+G(d,p) int=ultrafine pop=(ReadRadii,MK)
 ----------------------------------------------------

 Warning!  SCF SP cutoffs with diffuse functions may be unreliable.
 Consider SCF=Tight

 1/38=1/1;
 2/17=6,18=5,40=1/2;
 3/5=1,6=6,7=111,11=2,16=1,25=1,30=1,74=-5,75=5/1,2,3;
 4//1;
 5/5=2,32=1,38=5/2;
 6/7=2,8=2,9=2,10=2,15=8,20=101,28=1/1,2;
 99/5=1,9=1/99;
 ----------------------------------------
 mol_17.29.38.pdbccc_plusQ.z58620.zip.xyz
 ----------------------------------------
 Symbolic Z-matrix:
 Charge =  1 Multiplicity = 1
 O                    -4.59639  -0.82571  -0.54931 
 O                    -4.74336   0.05702   0.48997 
 Ca                   -2.54244  -0.10249   0.04438 
 O                    -0.44669   0.83307  -0.01939 
 P                     0.45154  -0.56159   0.03068 
 O                     1.52489  -0.32219  -1.18813 
 Ca                    3.3177   -1.21932   0.03929 
 O                     1.53978  -0.22575   1.2124 
 Ca                    1.57479   1.93642  -0.0849 
 
                          Input orientation:                          
 ---------------------------------------------------------------------
 Center     Atomic     Atomic              Coordinates (Angstroms)
 Number     Number      Type              X           Y           Z
 ---------------------------------------------------------------------
    1          8             0       -4.596390   -0.825710   -0.549310
    2          8             0       -4.743360    0.057020    0.489970
    3         20             0       -2.542440   -0.102490    0.044380
    4          8             0       -0.446690    0.833070   -0.019390
    5         15             0        0.451540   -0.561590    0.030680
    6          8             0        1.524890   -0.322190   -1.188130
    7         20             0        3.317700   -1.219320    0.039290
    8          8             0        1.539780   -0.225750    1.212400
    9         20             0        1.574790    1.936420   -0.084900
 ---------------------------------------------------------------------
                    Distance matrix (angstroms):
                    1          2          3          4          5
     1  O    0.000000
     2  O    1.371465   0.000000
     3  Ca   2.257039   2.251231   0.000000
     4  O    4.500264   4.395802   2.295976   0.000000
     5  P    5.088000   5.251725   3.029006   1.659639   0.000000
     6  O    6.175086   6.500060   4.255646   2.566653   1.641612
     7  Ca   7.945703   8.173912   5.965616   4.287934   2.940673
     8  O    6.412188   6.330854   4.247821   2.566022   1.641194
     9  Ca   6.777057   6.616770   4.596243   2.303921   2.741369
                    6          7          8          9
     6  O    0.000000
     7  Ca   2.350653   0.000000
     8  O    2.402513   2.350397   0.000000
     9  Ca   2.514145   3.607195   2.521744   0.000000
 Stoichiometry    Ca3O5P(1+)
 Framework group  C1[X(Ca3O5P)]
 Deg. of freedom    21
 Full point group                 C1
 Largest Abelian subgroup         C1      NOp   1
 Largest concise Abelian subgroup C1      NOp   1
                         Standard orientation:                         
 ---------------------------------------------------------------------
 Center     Atomic     Atomic              Coordinates (Angstroms)
 Number     Number      Type              X           Y           Z
 ---------------------------------------------------------------------
    1          8             0       -4.596390   -0.825706   -0.549309
    2          8             0       -4.743359    0.057024    0.489971
    3         20             0       -2.542440   -0.102487    0.044381
    4          8             0       -0.446689    0.833071   -0.019389
    5         15             0        0.451540   -0.561589    0.030681
    6          8             0        1.524890   -0.322190   -1.188129
    7         20             0        3.317700   -1.219321    0.039291
    8          8             0        1.539780   -0.225750    1.212401
    9         20             0        1.574792    1.936420   -0.084899
 ---------------------------------------------------------------------
 Rotational constants (GHZ):      1.6890827      0.3091121      0.2771173
 Standard basis: 6-31+G(d,p) (6D, 7F)
 There are   199 symmetry adapted basis functions of A   symmetry.
 Integral buffers will be    131072 words long.
 Raffenetti 2 integral format.
 Two-electron integral symmetry is turned on.
   199 basis functions,   456 primitive gaussians,   199 cartesian basis functions
    57 alpha electrons       57 beta electrons
       nuclear repulsion energy       940.3913399625 Hartrees.
 NAtoms=    9 NActive=    9 NUniq=    9 SFac= 7.50D-01 NAtFMM=   80 NAOKFM=F Big=F
 One-electron integrals computed using PRISM.
 NBasis=   199 RedAO= T  NBF=   199
 NBsUse=   199 1.00D-06 NBFU=   199
 Harris functional with IExCor=  402 diagonalized for initial guess.
 ExpMin= 7.10D-03 ExpMax= 3.53D+04 ExpMxC= 5.30D+03 IAcc=3 IRadAn=         5 AccDes= 0.00D+00
 HarFok:  IExCor= 402 AccDes= 0.00D+00 IRadAn=         5 IDoV=1
 ScaDFX=  1.000000  1.000000  1.000000  1.000000
 Initial guess orbital symmetries:
       Occupied  (A) (A) (A) (A) (A) (A) (A) (A) (A) (A) (A) (A)
                 (A) (A) (A) (A) (A) (A) (A) (A) (A) (A) (A) (A)
                 (A) (A) (A) (A) (A) (A) (A) (A) (A) (A) (A) (A)
                 (A) (A) (A) (A) (A) (A) (A) (A) (A) (A) (A) (A)
                 (A) (A) (A) (A) (A) (A) (A) (A) (A)
       Virtual   (A) (A) (A) (A) (A) (A) (A) (A) (A) (A) (A) (A)
                 (A) (A) (A) (A) (A) (A) (A) (A) (A) (A) (A) (A)
                 (A) (A) (A) (A) (A) (A) (A) (A) (A) (A) (A) (A)
                 (A) (A) (A) (A) (A) (A) (A) (A) (A) (A) (A) (A)
                 (A) (A) (A) (A) (A) (A) (A) (A) (A) (A) (A) (A)
                 (A) (A) (A) (A) (A) (A) (A) (A) (A) (A) (A) (A)
                 (A) (A) (A) (A) (A) (A) (A) (A) (A) (A) (A) (A)
                 (A) (A) (A) (A) (A) (A) (A) (A) (A) (A) (A) (A)
                 (A) (A) (A) (A) (A) (A) (A) (A) (A) (A) (A) (A)
                 (A) (A) (A) (A) (A) (A) (A) (A) (A) (A) (A) (A)
                 (A) (A) (A) (A) (A) (A) (A) (A) (A) (A) (A) (A)
                 (A) (A) (A) (A) (A) (A) (A) (A) (A) (A)
 The electronic state of the initial guess is 1-A.
 Requested convergence on RMS density matrix=1.00D-04 within 128 cycles.
 Requested convergence on MAX density matrix=1.00D-02.
 Requested convergence on             energy=1.00D-02.
 No special actions if energy rises.
 Rare condition: small coef for last iteration:  0.000D+00
 EnCoef did   100 forward-backward iterations
 EnCoef did   100 forward-backward iterations
 EnCoef did     1 forward-backward iterations
 EnCoef did    95 forward-backward iterations
 EnCoef did   100 forward-backward iterations
 EnCoef did   100 forward-backward iterations
 Rare condition: small coef for last iteration:  0.000D+00
 EnCoef did   100 forward-backward iterations
 EnCoef did   100 forward-backward iterations
 EnCoef did   100 forward-backward iterations
 EnCoef did     5 forward-backward iterations
 Restarting incremental Fock formation.
 EnCoef did     9 forward-backward iterations
 Matrix for removal  3 Erem= -2744.15774075982     Crem= 0.000D+00
 Rare condition: small coef for last iteration:  0.000D+00
 Matrix for removal  3 Erem= -2746.04182238039     Crem= 0.000D+00
 EnCoef did     9 forward-backward iterations
 Matrix for removal  2 Erem= -2748.60479385649     Crem= 0.000D+00
 Matrix for removal  1 Erem= -2749.29809736470     Crem= 0.000D+00
 SCF Done:  E(RB+HF-LYP) =  -2750.07115414     A.U. after   23 cycles
             Convg  =    0.7009D-04             -V/T =  2.0029
             S**2   =   0.0000

 **********************************************************************

            Population analysis using the SCF density.

 **********************************************************************

 Orbital symmetries:
       Occupied  (A) (A) (A) (A) (A) (A) (A) (A) (A) (A) (A) (A)
                 (A) (A) (A) (A) (A) (A) (A) (A) (A) (A) (A) (A)
                 (A) (A) (A) (A) (A) (A) (A) (A) (A) (A) (A) (A)
                 (A) (A) (A) (A) (A) (A) (A) (A) (A) (A) (A) (A)
                 (A) (A) (A) (A) (A) (A) (A) (A) (A)
       Virtual   (A) (A) (A) (A) (A) (A) (A) (A) (A) (A) (A) (A)
                 (A) (A) (A) (A) (A) (A) (A) (A) (A) (A) (A) (A)
                 (A) (A) (A) (A) (A) (A) (A) (A) (A) (A) (A) (A)
                 (A) (A) (A) (A) (A) (A) (A) (A) (A) (A) (A) (A)
                 (A) (A) (A) (A) (A) (A) (A) (A) (A) (A) (A) (A)
                 (A) (A) (A) (A) (A) (A) (A) (A) (A) (A) (A) (A)
                 (A) (A) (A) (A) (A) (A) (A) (A) (A) (A) (A) (A)
                 (A) (A) (A) (A) (A) (A) (A) (A) (A) (A) (A) (A)
                 (A) (A) (A) (A) (A) (A) (A) (A) (A) (A) (A) (A)
                 (A) (A) (A) (A) (A) (A) (A) (A) (A) (A) (A) (A)
                 (A) (A) (A) (A) (A) (A) (A) (A) (A) (A) (A) (A)
                 (A) (A) (A) (A) (A) (A) (A) (A) (A) (A)
 The electronic state is 1-A.
 Alpha  occ. eigenvalues -- -145.55806-145.55793-145.50343 -77.28862 -19.26651
 Alpha  occ. eigenvalues --  -19.26618 -19.25998 -19.24603 -19.24595 -15.62654
 Alpha  occ. eigenvalues --  -15.62593 -15.57220 -12.75886 -12.75817 -12.75791
 Alpha  occ. eigenvalues --  -12.75787 -12.75765 -12.75732 -12.70498 -12.70443
 Alpha  occ. eigenvalues --  -12.70258  -6.74191  -4.90579  -4.90503  -4.90052
 Alpha  occ. eigenvalues --   -1.99649  -1.99562  -1.94448  -1.27532  -1.27294
 Alpha  occ. eigenvalues --   -1.26953  -1.26918  -1.26821  -1.26733  -1.23185
 Alpha  occ. eigenvalues --   -1.22345  -1.22067  -1.15000  -1.11883  -1.05516
 Alpha  occ. eigenvalues --   -1.03652  -0.83766  -0.66280  -0.54656  -0.53920
 Alpha  occ. eigenvalues --   -0.53366  -0.50438  -0.48148  -0.47382  -0.47228
 Alpha  occ. eigenvalues --   -0.46078  -0.44378  -0.41690  -0.39044  -0.36744
 Alpha  occ. eigenvalues --   -0.30653  -0.26416
 Alpha virt. eigenvalues --   -0.25061  -0.22389  -0.16923  -0.16069  -0.14833
 Alpha virt. eigenvalues --   -0.13383  -0.12939  -0.11792  -0.11332  -0.09250
 Alpha virt. eigenvalues --   -0.09078  -0.08423  -0.07707  -0.07587  -0.06529
 Alpha virt. eigenvalues --   -0.05877  -0.05632  -0.05253  -0.04811  -0.04595
 Alpha virt. eigenvalues --   -0.04330  -0.03901  -0.03698  -0.03496  -0.03120
 Alpha virt. eigenvalues --   -0.02758  -0.02162  -0.01516  -0.01457  -0.00284
 Alpha virt. eigenvalues --    0.00971   0.01121   0.02045   0.02171   0.02353
 Alpha virt. eigenvalues --    0.03034   0.03399   0.03893   0.04008   0.04182
 Alpha virt. eigenvalues --    0.04847   0.05073   0.05205   0.05584   0.06062
 Alpha virt. eigenvalues --    0.06215   0.07364   0.08645   0.08882   0.10046
 Alpha virt. eigenvalues --    0.10924   0.11410   0.12664   0.14034   0.14380
 Alpha virt. eigenvalues --    0.15317   0.15655   0.16636   0.17652   0.17845
 Alpha virt. eigenvalues --    0.18642   0.19187   0.20723   0.21481   0.22361
 Alpha virt. eigenvalues --    0.23520   0.24169   0.25359   0.26510   0.27676
 Alpha virt. eigenvalues --    0.27939   0.29689   0.30967   0.31937   0.37079
 Alpha virt. eigenvalues --    0.38978   0.40064   0.40653   0.41726   0.43773
 Alpha virt. eigenvalues --    0.45153   0.47416   0.56349   0.56870   0.63069
 Alpha virt. eigenvalues --    0.69639   0.75754   0.85195   0.90194   0.93464
 Alpha virt. eigenvalues --    1.05207   1.08324   1.08411   1.10287   1.11404
 Alpha virt. eigenvalues --    1.11664   1.13114   1.14123   1.15922   1.18373
 Alpha virt. eigenvalues --    1.21086   1.21847   1.23535   1.25281   1.26685
 Alpha virt. eigenvalues --    1.37252   1.44658   1.46094   1.46897   1.47411
 Alpha virt. eigenvalues --    1.54242   1.55446   1.65828   1.66778   1.68779
 Alpha virt. eigenvalues --    1.71592   1.72257   1.73049   1.74385   1.78127
 Alpha virt. eigenvalues --    1.82078   1.85676   1.87250   1.88451   1.92015
 Alpha virt. eigenvalues --    1.92719   1.96292   2.02456   2.07256   2.10899
 Alpha virt. eigenvalues --    2.39055   2.40874   2.40957   2.55091   2.56740
 Alpha virt. eigenvalues --    3.04979   3.48104   3.89388   3.98371   4.04261
 Alpha virt. eigenvalues --    4.09107   4.20372
          Condensed to atoms (all electrons):
              1          2          3          4          5          6
     1  O    8.180883   0.043451   0.128514   0.000278  -0.005825   0.000011
     2  O    0.043451   8.184665   0.107908  -0.000721   0.008863   0.000068
     3  Ca   0.128514   0.107908  18.350318   0.060429   0.052048  -0.011712
     4  O    0.000278  -0.000721   0.060429   9.090761  -0.344511   0.037772
     5  P   -0.005825   0.008863   0.052048  -0.344511  14.575223  -0.107634
     6  O    0.000011   0.000068  -0.011712   0.037772  -0.107634   8.941792
     7  Ca   0.002513  -0.001420   0.036381   0.018556   0.062326  -0.005656
     8  O    0.000077  -0.000021  -0.011458   0.042100  -0.133109   0.019106
     9  Ca  -0.003453   0.003780   0.000425   0.009449   0.169998   0.008612
              7          8          9
     1  O    0.002513   0.000077  -0.003453
     2  O   -0.001420  -0.000021   0.003780
     3  Ca   0.036381  -0.011458   0.000425
     4  O    0.018556   0.042100   0.009449
     5  P    0.062326  -0.133109   0.169998
     6  O   -0.005656   0.019106   0.008612
     7  Ca  18.715726  -0.004874   0.055871
     8  O   -0.004874   8.954994   0.008755
     9  Ca   0.055871   0.008755  18.511840
 Mulliken atomic charges:
              1
     1  O   -0.346449
     2  O   -0.346573
     3  Ca   1.287145
     4  O   -0.914113
     5  P    0.722621
     6  O   -0.882360
     7  Ca   1.120577
     8  O   -0.875570
     9  Ca   1.234723
 Sum of Mulliken charges=   1.00000
 Atomic charges with hydrogens summed into heavy atoms:
              1
     1  O   -0.346449
     2  O   -0.346573
     3  Ca   1.287145
     4  O   -0.914113
     5  P    0.722621
     6  O   -0.882360
     7  Ca   1.120577
     8  O   -0.875570
     9  Ca   1.234723
 Sum of Mulliken charges=   1.00000
 Electronic spatial extent (au):  <R**2>=  3516.6488
 Charge=     1.0000 electrons
 Dipole moment (field-independent basis, Debye):
    X=    15.1275    Y=     3.3228    Z=     0.1895  Tot=    15.4893
 Quadrupole moment (field-independent basis, Debye-Ang):
   XX=   -73.0621   YY=   -52.5969   ZZ=   -90.2273
   XY=   -10.2317   XZ=    -1.1119   YZ=    -3.0066
 Traceless Quadrupole moment (field-independent basis, Debye-Ang):
   XX=    -1.1000   YY=    19.3652   ZZ=   -18.2652
   XY=   -10.2317   XZ=    -1.1119   YZ=    -3.0066
 Octapole moment (field-independent basis, Debye-Ang**2):
  XXX=   353.4190  YYY=    40.1642  ZZZ=     0.1170  XYY=    60.1052
  XXY=   -29.7124  XXZ=     4.1553  XZZ=   -20.8685  YZZ=     5.6466
  YYZ=    -0.2193  XYZ=     3.3240
 Hexadecapole moment (field-independent basis, Debye-Ang**3):
 XXXX= -4482.8146 YYYY=  -480.9883 ZZZZ=  -265.1338 XXXY=  -353.4140
 XXXZ=     3.9455 YYYX=    -1.5162 YYYZ=    -6.6227 ZZZX=    -2.9168
 ZZZY=    -2.7957 XXYY=  -566.8753 XXZZ=  -662.9716 YYZZ=  -136.1954
 XXYZ=   -34.1723 YYXZ=    -5.8031 ZZXY=    -2.0211
 N-N= 9.403913399625D+02 E-N=-8.378165055817D+03  KE= 2.742167087609D+03
 Merz-Kollman atomic radii used.
 Read replacement radii for each type of atom:
 Rad(20) =   1.188000000000D+00
 Atom Element Radius
    1     8    1.40
    2     8    1.40
    3    20    1.19
    4     8    1.40
    5    15    1.80
    6     8    1.40
    7    20    1.19
    8     8    1.40
    9    20    1.19

 **********************************************************************

            Electrostatic Properties Using The SCF Density

 **********************************************************************

       Atomic Center    1 is at  -4.596390 -0.825706 -0.549309
       Atomic Center    2 is at  -4.743359  0.057024  0.489971
       Atomic Center    3 is at  -2.542440 -0.102487  0.044381
       Atomic Center    4 is at  -0.446689  0.833071 -0.019389
       Atomic Center    5 is at   0.451540 -0.561589  0.030681
       Atomic Center    6 is at   1.524890 -0.322190 -1.188129
       Atomic Center    7 is at   3.317700 -1.219321  0.039291
       Atomic Center    8 is at   1.539780 -0.225750  1.212401
       Atomic Center    9 is at   1.574792  1.936420 -0.084899
     862 points will be used for fitting atomic charges
 Fitting point charges to eletrostatic potential
 Charges from ESP fit, RMS=   0.01555 RRMS=   0.09759:
 Charge=   1.00000 Dipole=    18.8394     4.1737     0.1895 Tot=    19.2971
              1
     1  O   -0.439408
     2  O   -0.429476
     3  Ca   1.482132
     4  O   -0.618123
     5  P    0.328989
     6  O   -0.864206
     7  Ca   1.188344
     8  O   -0.865618
     9  Ca   1.217365
 -----------------------------------------------------------------

              Electrostatic Properties (Atomic Units)

 -----------------------------------------------------------------
    Center     Electric         -------- Electric Field --------
               Potential          X             Y             Z
 -----------------------------------------------------------------
    1 Atom    -22.204833
    2 Atom    -22.204387
    3 Atom    -80.036801
    4 Atom    -22.204184
    5 Atom    -53.924697
    6 Atom    -22.219740
    7 Atom    -79.984359
    8 Atom    -22.219739
    9 Atom    -79.983281
 -----------------------------------------------------------------
 1\1\GINC-N031\SP\RB3LYP\6-31+G(d,p)\Ca3O5P1(1+)\TIMN\12-Jun-2015\0\\# 
 b3lyp/6-31+G(d,p) int=ultrafine pop=(ReadRadii,MK)\\mol_17.29.38.pdbcc
 c_plusQ.z58620.zip.xyz\\1,1\O,0,-4.59639,-0.82571,-0.54931\O,0,-4.7433
 6,0.05702,0.48997\Ca,0,-2.54244,-0.10249,0.04438\O,0,-0.44669,0.83307,
 -0.01939\P,0,0.45154,-0.56159,0.03068\O,0,1.52489,-0.32219,-1.18813\Ca
 ,0,3.3177,-1.21932,0.03929\O,0,1.53978,-0.22575,1.2124\Ca,0,1.57479,1.
 93642,-0.0849\\Version=EM64T-G03RevE.01\State=1-A\HF=-2750.0711541\RMS
 D=7.009e-05\Thermal=0.\Dipole=5.9516153,1.3072929,0.0745388\PG=C01 [X(
 Ca3O5P1)]\\@


 THEREFORE SHALL EVIL COME UPON THEE...
 THOU SHALT NOT KNOW FROM WHENCE IT RISETH...
 AND MISCHIEF SHALL FALL UPON THEE...
 THOU SHALT NOT BE ABLE TO PUT IT OFF...
 AND DESOLATION SHALL COME UPON THEE SUDDENLY...
 WHICH THOU SHALT NOT KNOW...

                                         ISAIAH 47.11
 Job cpu time:  0 days  0 hours  4 minutes 47.6 seconds.
 File lengths (MBytes):  RWF=     36 Int=      0 D2E=      0 Chk=     11 Scr=      1
 Normal termination of Gaussian 03 at Fri Jun 12 18:14:42 2015.
