 Entering Gaussian System, Link 0=/home/timn/tmp/g03.e01/g03
 Input=mol_17.27.13.pdbc_plusQ.z58480.zip.xyz.gjf
 Output=mol_17.27.13.pdbc_plusQ.z58480.zip.xyz.out
 Initial command:
 /home/timn/tmp/g03.e01/l1.exe /home/timn/tmp/g03.e01/Gau-14445.inp -scrdir=/home/timn/tmp/g03.e01/
 Default is to use a total of   2 processors:
                                2 via shared-memory
                                1 via Linda
 Entering Link 1 = /home/timn/tmp/g03.e01/l1.exe PID=     14446.
  
 Copyright (c) 1988,1990,1992,1993,1995,1998,2003,2004,2007, Gaussian, Inc.
                  All Rights Reserved.
  
 This is the Gaussian(R) 03 program.  It is based on the
 the Gaussian(R) 98 system (copyright 1998, Gaussian, Inc.),
 the Gaussian(R) 94 system (copyright 1995, Gaussian, Inc.),
 the Gaussian 92(TM) system (copyright 1992, Gaussian, Inc.),
 the Gaussian 90(TM) system (copyright 1990, Gaussian, Inc.),
 the Gaussian 88(TM) system (copyright 1988, Gaussian, Inc.),
 the Gaussian 86(TM) system (copyright 1986, Carnegie Mellon
 University), and the Gaussian 82(TM) system (copyright 1983,
 Carnegie Mellon University). Gaussian is a federally registered
 trademark of Gaussian, Inc.
  
 This software contains proprietary and confidential information,
 including trade secrets, belonging to Gaussian, Inc.
  
 This software is provided under written license and may be
 used, copied, transmitted, or stored only in accord with that
 written license.
  
 The following legend is applicable only to US Government
 contracts under FAR:
  
                    RESTRICTED RIGHTS LEGEND
  
 Use, reproduction and disclosure by the US Government is
 subject to restrictions as set forth in subparagraphs (a)
 and (c) of the Commercial Computer Software - Restricted
 Rights clause in FAR 52.227-19.
  
 Gaussian, Inc.
 340 Quinnipiac St., Bldg. 40, Wallingford CT 06492
  
  
 ---------------------------------------------------------------
 Warning -- This program may not be used in any manner that
 competes with the business of Gaussian, Inc. or will provide
 assistance to any competitor of Gaussian, Inc.  The licensee
 of this program is prohibited from giving any competitor of
 Gaussian, Inc. access to this program.  By using this program,
 the user acknowledges that Gaussian, Inc. is engaged in the
 business of creating and licensing software in the field of
 computational chemistry and represents and warrants to the
 licensee that it is not a competitor of Gaussian, Inc. and that
 it will not use this program in any manner prohibited above.
 ---------------------------------------------------------------
  

 Cite this work as:
 Gaussian 03, Revision E.01,
 M. J. Frisch, G. W. Trucks, H. B. Schlegel, G. E. Scuseria, 
 M. A. Robb, J. R. Cheeseman, J. A. Montgomery, Jr., T. Vreven, 
 K. N. Kudin, J. C. Burant, J. M. Millam, S. S. Iyengar, J. Tomasi, 
 V. Barone, B. Mennucci, M. Cossi, G. Scalmani, N. Rega, 
 G. A. Petersson, H. Nakatsuji, M. Hada, M. Ehara, K. Toyota, 
 R. Fukuda, J. Hasegawa, M. Ishida, T. Nakajima, Y. Honda, O. Kitao, 
 H. Nakai, M. Klene, X. Li, J. E. Knox, H. P. Hratchian, J. B. Cross, 
 V. Bakken, C. Adamo, J. Jaramillo, R. Gomperts, R. E. Stratmann, 
 O. Yazyev, A. J. Austin, R. Cammi, C. Pomelli, J. W. Ochterski, 
 P. Y. Ayala, K. Morokuma, G. A. Voth, P. Salvador, J. J. Dannenberg, 
 V. G. Zakrzewski, S. Dapprich, A. D. Daniels, M. C. Strain, 
 O. Farkas, D. K. Malick, A. D. Rabuck, K. Raghavachari, 
 J. B. Foresman, J. V. Ortiz, Q. Cui, A. G. Baboul, S. Clifford, 
 J. Cioslowski, B. B. Stefanov, G. Liu, A. Liashenko, P. Piskorz, 
 I. Komaromi, R. L. Martin, D. J. Fox, T. Keith, M. A. Al-Laham, 
 C. Y. Peng, A. Nanayakkara, M. Challacombe, P. M. W. Gill, 
 B. Johnson, W. Chen, M. W. Wong, C. Gonzalez, and J. A. Pople, 
 Gaussian, Inc., Wallingford CT, 2004.
 
 ******************************************
 Gaussian 03:  EM64T-G03RevE.01 11-Sep-2007
                12-Jun-2015 
 ******************************************
 %nproc=2
 Will use up to    2 processors via shared memory.
 Default route:  MP2=Direct MaxDisk=2000MB
 ----------------------------------------------------
 # b3lyp/6-31+G(d,p) int=ultrafine pop=(ReadRadii,MK)
 ----------------------------------------------------

 Warning!  SCF SP cutoffs with diffuse functions may be unreliable.
 Consider SCF=Tight

 1/38=1/1;
 2/17=6,18=5,40=1/2;
 3/5=1,6=6,7=111,11=2,16=1,25=1,30=1,74=-5,75=5/1,2,3;
 4//1;
 5/5=2,32=1,38=5/2;
 6/7=2,8=2,9=2,10=2,15=8,20=101,28=1/1,2;
 99/5=1,9=1/99;
 --------------------------------------
 mol_17.27.13.pdbc_plusQ.z58480.zip.xyz
 --------------------------------------
 Symbolic Z-matrix:
 Charge =  1 Multiplicity = 1
 O                    -3.12811  -0.53384   0.77578 
 O                    -3.14187  -0.53673  -0.75712 
 Ca                   -0.99673  -1.48203  -0.00702 
 O                     1.09386  -0.94769  -0.00313 
 Ca                    3.34917  -0.85099   0.00425 
 P                    -2.84949   1.02029   0.00375 
 O                    -1.29665   1.09334  -0.01089 
 O                     3.23325   1.2761    0.00435 
 Ca                    1.08049   1.42734  -0.00364 
 
                          Input orientation:                          
 ---------------------------------------------------------------------
 Center     Atomic     Atomic              Coordinates (Angstroms)
 Number     Number      Type              X           Y           Z
 ---------------------------------------------------------------------
    1          8             0       -3.128110   -0.533840    0.775780
    2          8             0       -3.141870   -0.536730   -0.757120
    3         20             0       -0.996730   -1.482030   -0.007020
    4          8             0        1.093860   -0.947690   -0.003130
    5         20             0        3.349170   -0.850990    0.004250
    6         15             0       -2.849490    1.020290    0.003750
    7          8             0       -1.296650    1.093340   -0.010890
    8          8             0        3.233250    1.276100    0.004350
    9         20             0        1.080490    1.427340   -0.003640
 ---------------------------------------------------------------------
                    Distance matrix (angstroms):
                    1          2          3          4          5
     1  O    0.000000
     2  O    1.532964   0.000000
     3  Ca   2.460614   2.461274   0.000000
     4  O    4.313120   4.321897   2.157800   0.000000
     5  Ca   6.530773   6.543091   4.391490   2.257394   0.000000
     6  P    1.757549   1.757476   3.113590   4.407153   6.474958
     7  O    2.573094   2.572708   2.592778   3.143311   5.036297
     8  O    6.658670   6.671457   5.049766   3.085820   2.130246
     9  Ca   4.708082   4.717375   3.574813   2.375068   3.215239
                    6          7          8          9
     6  P    0.000000
     7  O    1.554626   0.000000
     8  O    6.088117   4.533611   0.000000
     9  Ca   3.951011   2.400501   2.158081   0.000000
 Stoichiometry    Ca3O5P(1+)
 Framework group  C1[X(Ca3O5P)]
 Deg. of freedom    21
 Full point group                 C1
 Largest Abelian subgroup         C1      NOp   1
 Largest concise Abelian subgroup C1      NOp   1
                         Standard orientation:                         
 ---------------------------------------------------------------------
 Center     Atomic     Atomic              Coordinates (Angstroms)
 Number     Number      Type              X           Y           Z
 ---------------------------------------------------------------------
    1          8             0       -3.128110   -0.533845    0.775780
    2          8             0       -3.141870   -0.536735   -0.757120
    3         20             0       -0.996729   -1.482033   -0.007020
    4          8             0        1.093860   -0.947690   -0.003130
    5         20             0        3.349170   -0.850988    0.004250
    6         15             0       -2.849492    1.020285    0.003750
    7          8             0       -1.296652    1.093337   -0.010890
    8          8             0        3.233248    1.276102    0.004350
    9         20             0        1.080488    1.427340   -0.003640
 ---------------------------------------------------------------------
 Rotational constants (GHZ):      1.5899394      0.3792644      0.3133584
 Standard basis: 6-31+G(d,p) (6D, 7F)
 There are   199 symmetry adapted basis functions of A   symmetry.
 Integral buffers will be    131072 words long.
 Raffenetti 2 integral format.
 Two-electron integral symmetry is turned on.
   199 basis functions,   456 primitive gaussians,   199 cartesian basis functions
    57 alpha electrons       57 beta electrons
       nuclear repulsion energy       953.8936621840 Hartrees.
 NAtoms=    9 NActive=    9 NUniq=    9 SFac= 7.50D-01 NAtFMM=   80 NAOKFM=F Big=F
 One-electron integrals computed using PRISM.
 NBasis=   199 RedAO= T  NBF=   199
 NBsUse=   199 1.00D-06 NBFU=   199
 Harris functional with IExCor=  402 diagonalized for initial guess.
 ExpMin= 7.10D-03 ExpMax= 3.53D+04 ExpMxC= 5.30D+03 IAcc=3 IRadAn=         5 AccDes= 0.00D+00
 HarFok:  IExCor= 402 AccDes= 0.00D+00 IRadAn=         5 IDoV=1
 ScaDFX=  1.000000  1.000000  1.000000  1.000000
 Initial guess orbital symmetries:
       Occupied  (A) (A) (A) (A) (A) (A) (A) (A) (A) (A) (A) (A)
                 (A) (A) (A) (A) (A) (A) (A) (A) (A) (A) (A) (A)
                 (A) (A) (A) (A) (A) (A) (A) (A) (A) (A) (A) (A)
                 (A) (A) (A) (A) (A) (A) (A) (A) (A) (A) (A) (A)
                 (A) (A) (A) (A) (A) (A) (A) (A) (A)
       Virtual   (A) (A) (A) (A) (A) (A) (A) (A) (A) (A) (A) (A)
                 (A) (A) (A) (A) (A) (A) (A) (A) (A) (A) (A) (A)
                 (A) (A) (A) (A) (A) (A) (A) (A) (A) (A) (A) (A)
                 (A) (A) (A) (A) (A) (A) (A) (A) (A) (A) (A) (A)
                 (A) (A) (A) (A) (A) (A) (A) (A) (A) (A) (A) (A)
                 (A) (A) (A) (A) (A) (A) (A) (A) (A) (A) (A) (A)
                 (A) (A) (A) (A) (A) (A) (A) (A) (A) (A) (A) (A)
                 (A) (A) (A) (A) (A) (A) (A) (A) (A) (A) (A) (A)
                 (A) (A) (A) (A) (A) (A) (A) (A) (A) (A) (A) (A)
                 (A) (A) (A) (A) (A) (A) (A) (A) (A) (A) (A) (A)
                 (A) (A) (A) (A) (A) (A) (A) (A) (A) (A) (A) (A)
                 (A) (A) (A) (A) (A) (A) (A) (A) (A) (A)
 The electronic state of the initial guess is 1-A.
 Requested convergence on RMS density matrix=1.00D-04 within 128 cycles.
 Requested convergence on MAX density matrix=1.00D-02.
 Requested convergence on             energy=1.00D-02.
 No special actions if energy rises.
 EnCoef did     5 forward-backward iterations
 EnCoef did   100 forward-backward iterations
 EnCoef did     2 forward-backward iterations
 EnCoef did     2 forward-backward iterations
 SCF Done:  E(RB+HF-LYP) =  -2750.13248155     A.U. after    9 cycles
             Convg  =    0.7269D-04             -V/T =  2.0029
             S**2   =   0.0000

 **********************************************************************

            Population analysis using the SCF density.

 **********************************************************************

 Orbital symmetries:
       Occupied  (A) (A) (A) (A) (A) (A) (A) (A) (A) (A) (A) (A)
                 (A) (A) (A) (A) (A) (A) (A) (A) (A) (A) (A) (A)
                 (A) (A) (A) (A) (A) (A) (A) (A) (A) (A) (A) (A)
                 (A) (A) (A) (A) (A) (A) (A) (A) (A) (A) (A) (A)
                 (A) (A) (A) (A) (A) (A) (A) (A) (A)
       Virtual   (A) (A) (A) (A) (A) (A) (A) (A) (A) (A) (A) (A)
                 (A) (A) (A) (A) (A) (A) (A) (A) (A) (A) (A) (A)
                 (A) (A) (A) (A) (A) (A) (A) (A) (A) (A) (A) (A)
                 (A) (A) (A) (A) (A) (A) (A) (A) (A) (A) (A) (A)
                 (A) (A) (A) (A) (A) (A) (A) (A) (A) (A) (A) (A)
                 (A) (A) (A) (A) (A) (A) (A) (A) (A) (A) (A) (A)
                 (A) (A) (A) (A) (A) (A) (A) (A) (A) (A) (A) (A)
                 (A) (A) (A) (A) (A) (A) (A) (A) (A) (A) (A) (A)
                 (A) (A) (A) (A) (A) (A) (A) (A) (A) (A) (A) (A)
                 (A) (A) (A) (A) (A) (A) (A) (A) (A) (A) (A) (A)
                 (A) (A) (A) (A) (A) (A) (A) (A) (A) (A) (A) (A)
                 (A) (A) (A) (A) (A) (A) (A) (A) (A) (A)
 The electronic state is 1-A.
 Alpha  occ. eigenvalues -- -145.52149-145.47056-145.45740 -77.33856 -19.37007
 Alpha  occ. eigenvalues --  -19.36981 -19.29668 -19.17038 -19.10770 -15.59011
 Alpha  occ. eigenvalues --  -15.53955 -15.52654 -12.72255 -12.72242 -12.72056
 Alpha  occ. eigenvalues --  -12.67197 -12.67111 -12.67033 -12.65923 -12.65833
 Alpha  occ. eigenvalues --  -12.65702  -6.79171  -4.95530  -4.95445  -4.94934
 Alpha  occ. eigenvalues --   -1.96224  -1.91249  -1.90050  -1.28430  -1.24009
 Alpha  occ. eigenvalues --   -1.23840  -1.22363  -1.19122  -1.18896  -1.18221
 Alpha  occ. eigenvalues --   -1.18086  -1.17443  -1.17175  -1.12876  -1.01039
 Alpha  occ. eigenvalues --   -0.91707  -0.84708  -0.73767  -0.61687  -0.60231
 Alpha  occ. eigenvalues --   -0.58887  -0.54726  -0.49819  -0.47611  -0.44039
 Alpha  occ. eigenvalues --   -0.43354  -0.37879  -0.36789  -0.35761  -0.30231
 Alpha  occ. eigenvalues --   -0.28787  -0.28456
 Alpha virt. eigenvalues --   -0.20342  -0.19646  -0.17748  -0.17263  -0.15281
 Alpha virt. eigenvalues --   -0.12027  -0.11232  -0.10209  -0.09968  -0.09649
 Alpha virt. eigenvalues --   -0.09349  -0.08174  -0.07378  -0.07021  -0.06561
 Alpha virt. eigenvalues --   -0.05367  -0.05143  -0.04854  -0.04323  -0.04289
 Alpha virt. eigenvalues --   -0.04130  -0.03953  -0.03855  -0.03524  -0.03207
 Alpha virt. eigenvalues --   -0.03025  -0.02753  -0.02108  -0.02100  -0.00544
 Alpha virt. eigenvalues --    0.01325   0.02303   0.02378   0.03221   0.03778
 Alpha virt. eigenvalues --    0.03788   0.05147   0.05365   0.06084   0.06155
 Alpha virt. eigenvalues --    0.06409   0.06695   0.07183   0.07205   0.08913
 Alpha virt. eigenvalues --    0.09149   0.10083   0.10459   0.10604   0.11328
 Alpha virt. eigenvalues --    0.11426   0.12071   0.13198   0.15251   0.16075
 Alpha virt. eigenvalues --    0.16143   0.17248   0.17820   0.18676   0.19283
 Alpha virt. eigenvalues --    0.19797   0.21482   0.21992   0.24160   0.24423
 Alpha virt. eigenvalues --    0.26519   0.26987   0.28213   0.28852   0.29682
 Alpha virt. eigenvalues --    0.30229   0.32099   0.35875   0.36167   0.37843
 Alpha virt. eigenvalues --    0.39410   0.39934   0.41019   0.45015   0.47964
 Alpha virt. eigenvalues --    0.50990   0.54714   0.55002   0.60250   0.65731
 Alpha virt. eigenvalues --    0.70159   0.77220   0.85291   0.89398   1.03048
 Alpha virt. eigenvalues --    1.05892   1.06544   1.08653   1.10162   1.10411
 Alpha virt. eigenvalues --    1.12670   1.12957   1.16618   1.17684   1.18312
 Alpha virt. eigenvalues --    1.21356   1.23874   1.25969   1.29087   1.34536
 Alpha virt. eigenvalues --    1.35370   1.39334   1.44368   1.50653   1.50717
 Alpha virt. eigenvalues --    1.56280   1.60792   1.62619   1.64935   1.66462
 Alpha virt. eigenvalues --    1.67339   1.68346   1.75742   1.77926   1.80887
 Alpha virt. eigenvalues --    1.83286   1.84661   1.86773   1.88157   1.88705
 Alpha virt. eigenvalues --    1.91614   1.94504   1.95484   1.99664   2.03774
 Alpha virt. eigenvalues --    2.12288   2.17779   2.24712   2.30546   2.61801
 Alpha virt. eigenvalues --    2.98957   3.44015   3.90100   3.94263   4.02820
 Alpha virt. eigenvalues --    4.07740   4.08003
          Condensed to atoms (all electrons):
              1          2          3          4          5          6
     1  O    8.250051   0.014572   0.048691  -0.000024   0.001759   0.069713
     2  O    0.014572   8.250355   0.048299  -0.000107   0.001284   0.067348
     3  Ca   0.048691   0.048299  18.264619   0.196959  -0.013857  -0.026038
     4  O   -0.000024  -0.000107   0.196959   9.026726   0.096242  -0.006296
     5  Ca   0.001759   0.001284  -0.013857   0.096242  18.366655  -0.002363
     6  P    0.069713   0.067348  -0.026038  -0.006296  -0.002363  14.177855
     7  O   -0.008485  -0.006155   0.011591  -0.013947   0.005828  -0.104034
     8  O   -0.000027  -0.000029  -0.004086  -0.023711   0.224032  -0.000573
     9  Ca  -0.001422  -0.000767  -0.004924   0.043472  -0.025934  -0.016920
              7          8          9
     1  O   -0.008485  -0.000027  -0.001422
     2  O   -0.006155  -0.000029  -0.000767
     3  Ca   0.011591  -0.004086  -0.004924
     4  O   -0.013947  -0.023711   0.043472
     5  Ca   0.005828   0.224032  -0.025934
     6  P   -0.104034  -0.000573  -0.016920
     7  O    8.876707  -0.003963   0.037016
     8  O   -0.003963   8.713298   0.234953
     9  Ca   0.037016   0.234953  18.397539
 Mulliken atomic charges:
              1
     1  O   -0.374827
     2  O   -0.374801
     3  Ca   1.478745
     4  O   -1.319314
     5  Ca   1.346354
     6  P    0.841308
     7  O   -0.794558
     8  O   -1.139894
     9  Ca   1.336987
 Sum of Mulliken charges=   1.00000
 Atomic charges with hydrogens summed into heavy atoms:
              1
     1  O   -0.374827
     2  O   -0.374801
     3  Ca   1.478745
     4  O   -1.319314
     5  Ca   1.346354
     6  P    0.841308
     7  O   -0.794558
     8  O   -1.139894
     9  Ca   1.336987
 Sum of Mulliken charges=   1.00000
 Electronic spatial extent (au):  <R**2>=  3045.4015
 Charge=     1.0000 electrons
 Dipole moment (field-independent basis, Debye):
    X=     0.4579    Y=    -7.5383    Z=    -0.0376  Tot=     7.5523
 Quadrupole moment (field-independent basis, Debye-Ang):
   XX=   -65.3442   YY=   -56.0211   ZZ=   -75.5966
   XY=   -26.3115   XZ=     0.0785   YZ=     0.0155
 Traceless Quadrupole moment (field-independent basis, Debye-Ang):
   XX=     0.3098   YY=     9.6329   ZZ=    -9.9426
   XY=   -26.3115   XZ=     0.0785   YZ=     0.0155
 Octapole moment (field-independent basis, Debye-Ang**2):
  XXX=    97.7253  YYY=   -35.8462  ZZZ=    -0.1488  XYY=   -17.0731
  XXY=  -129.6567  XXZ=    -0.1216  XZZ=     4.4320  YZZ=    -4.7246
  YYZ=    -0.1855  XYZ=    -0.4410
 Hexadecapole moment (field-independent basis, Debye-Ang**3):
 XXXX= -2624.2301 YYYY=  -570.2184 ZZZZ=  -123.4786 XXXY=  -608.4169
 XXXZ=     0.9432 YYYX=    -4.4580 YYYZ=     0.0112 ZZZX=     0.3601
 ZZZY=     0.0126 XXYY=  -590.6792 XXZZ=  -487.6668 YYZZ=  -124.2133
 XXYZ=    -0.6213 YYXZ=     0.0856 ZZXY=   -15.1444
 N-N= 9.538936621840D+02 E-N=-8.407719915462D+03  KE= 2.742196551208D+03
 Merz-Kollman atomic radii used.
 Read replacement radii for each type of atom:
 Rad(20) =   1.188000000000D+00
 Atom Element Radius
    1     8    1.40
    2     8    1.40
    3    20    1.19
    4     8    1.40
    5    20    1.19
    6    15    1.80
    7     8    1.40
    8     8    1.40
    9    20    1.19

 **********************************************************************

            Electrostatic Properties Using The SCF Density

 **********************************************************************

       Atomic Center    1 is at  -3.128110 -0.533845  0.775780
       Atomic Center    2 is at  -3.141870 -0.536735 -0.757120
       Atomic Center    3 is at  -0.996729 -1.482033 -0.007020
       Atomic Center    4 is at   1.093860 -0.947690 -0.003130
       Atomic Center    5 is at   3.349170 -0.850988  0.004250
       Atomic Center    6 is at  -2.849492  1.020285  0.003750
       Atomic Center    7 is at  -1.296652  1.093337 -0.010890
       Atomic Center    8 is at   3.233248  1.276102  0.004350
       Atomic Center    9 is at   1.080488  1.427340 -0.003640
     857 points will be used for fitting atomic charges
 Fitting point charges to eletrostatic potential
 Charges from ESP fit, RMS=   0.00573 RRMS=   0.03865:
 Charge=   1.00000 Dipole=     0.8463    -7.8334    -0.0296 Tot=     7.8790
              1
     1  O   -0.319962
     2  O   -0.322012
     3  Ca   1.673309
     4  O   -1.701835
     5  Ca   1.632996
     6  P    0.600676
     7  O   -0.740347
     8  O   -1.493875
     9  Ca   1.671051
 -----------------------------------------------------------------

              Electrostatic Properties (Atomic Units)

 -----------------------------------------------------------------
    Center     Electric         -------- Electric Field --------
               Potential          X             Y             Z
 -----------------------------------------------------------------
    1 Atom    -22.099901
    2 Atom    -22.100593
    3 Atom    -80.017069
    4 Atom    -22.294755
    5 Atom    -80.074695
    6 Atom    -53.872709
    7 Atom    -22.162836
    8 Atom    -22.376350
    9 Atom    -80.086558
 -----------------------------------------------------------------
 1\1\GINC-N032\SP\RB3LYP\6-31+G(d,p)\Ca3O5P1(1+)\TIMN\12-Jun-2015\0\\# 
 b3lyp/6-31+G(d,p) int=ultrafine pop=(ReadRadii,MK)\\mol_17.27.13.pdbc_
 plusQ.z58480.zip.xyz\\1,1\O,0,-3.12811,-0.53384,0.77578\O,0,-3.14187,-
 0.53673,-0.75712\Ca,0,-0.99673,-1.48203,-0.00702\O,0,1.09386,-0.94769,
 -0.00313\Ca,0,3.34917,-0.85099,0.00425\P,0,-2.84949,1.02029,0.00375\O,
 0,-1.29665,1.09334,-0.01089\O,0,3.23325,1.2761,0.00435\Ca,0,1.08049,1.
 42734,-0.00364\\Version=EM64T-G03RevE.01\State=1-A\HF=-2750.1324815\RM
 SD=7.269e-05\Thermal=0.\Dipole=0.1801502,-2.9658091,-0.014811\PG=C01 [
 X(Ca3O5P1)]\\@


 One man practicing sportsmanship is far better than 50 preaching it.
 -- Knute K. Rockne
 Job cpu time:  0 days  0 hours  2 minutes  6.4 seconds.
 File lengths (MBytes):  RWF=     36 Int=      0 D2E=      0 Chk=     11 Scr=      1
 Normal termination of Gaussian 03 at Fri Jun 12 18:02:51 2015.
