 Entering Gaussian System, Link 0=/home/timn/tmp/g03.e01/g03
 Input=mol_17.28.54.pdbccc_plusQ.z58579.zip.xyz.gjf
 Output=mol_17.28.54.pdbccc_plusQ.z58579.zip.xyz.out
 Initial command:
 /home/timn/tmp/g03.e01/l1.exe /home/timn/tmp/g03.e01/Gau-15532.inp -scrdir=/home/timn/tmp/g03.e01/
 Default is to use a total of   2 processors:
                                2 via shared-memory
                                1 via Linda
 Entering Link 1 = /home/timn/tmp/g03.e01/l1.exe PID=     15533.
  
 Copyright (c) 1988,1990,1992,1993,1995,1998,2003,2004,2007, Gaussian, Inc.
                  All Rights Reserved.
  
 This is the Gaussian(R) 03 program.  It is based on the
 the Gaussian(R) 98 system (copyright 1998, Gaussian, Inc.),
 the Gaussian(R) 94 system (copyright 1995, Gaussian, Inc.),
 the Gaussian 92(TM) system (copyright 1992, Gaussian, Inc.),
 the Gaussian 90(TM) system (copyright 1990, Gaussian, Inc.),
 the Gaussian 88(TM) system (copyright 1988, Gaussian, Inc.),
 the Gaussian 86(TM) system (copyright 1986, Carnegie Mellon
 University), and the Gaussian 82(TM) system (copyright 1983,
 Carnegie Mellon University). Gaussian is a federally registered
 trademark of Gaussian, Inc.
  
 This software contains proprietary and confidential information,
 including trade secrets, belonging to Gaussian, Inc.
  
 This software is provided under written license and may be
 used, copied, transmitted, or stored only in accord with that
 written license.
  
 The following legend is applicable only to US Government
 contracts under FAR:
  
                    RESTRICTED RIGHTS LEGEND
  
 Use, reproduction and disclosure by the US Government is
 subject to restrictions as set forth in subparagraphs (a)
 and (c) of the Commercial Computer Software - Restricted
 Rights clause in FAR 52.227-19.
  
 Gaussian, Inc.
 340 Quinnipiac St., Bldg. 40, Wallingford CT 06492
  
  
 ---------------------------------------------------------------
 Warning -- This program may not be used in any manner that
 competes with the business of Gaussian, Inc. or will provide
 assistance to any competitor of Gaussian, Inc.  The licensee
 of this program is prohibited from giving any competitor of
 Gaussian, Inc. access to this program.  By using this program,
 the user acknowledges that Gaussian, Inc. is engaged in the
 business of creating and licensing software in the field of
 computational chemistry and represents and warrants to the
 licensee that it is not a competitor of Gaussian, Inc. and that
 it will not use this program in any manner prohibited above.
 ---------------------------------------------------------------
  

 Cite this work as:
 Gaussian 03, Revision E.01,
 M. J. Frisch, G. W. Trucks, H. B. Schlegel, G. E. Scuseria, 
 M. A. Robb, J. R. Cheeseman, J. A. Montgomery, Jr., T. Vreven, 
 K. N. Kudin, J. C. Burant, J. M. Millam, S. S. Iyengar, J. Tomasi, 
 V. Barone, B. Mennucci, M. Cossi, G. Scalmani, N. Rega, 
 G. A. Petersson, H. Nakatsuji, M. Hada, M. Ehara, K. Toyota, 
 R. Fukuda, J. Hasegawa, M. Ishida, T. Nakajima, Y. Honda, O. Kitao, 
 H. Nakai, M. Klene, X. Li, J. E. Knox, H. P. Hratchian, J. B. Cross, 
 V. Bakken, C. Adamo, J. Jaramillo, R. Gomperts, R. E. Stratmann, 
 O. Yazyev, A. J. Austin, R. Cammi, C. Pomelli, J. W. Ochterski, 
 P. Y. Ayala, K. Morokuma, G. A. Voth, P. Salvador, J. J. Dannenberg, 
 V. G. Zakrzewski, S. Dapprich, A. D. Daniels, M. C. Strain, 
 O. Farkas, D. K. Malick, A. D. Rabuck, K. Raghavachari, 
 J. B. Foresman, J. V. Ortiz, Q. Cui, A. G. Baboul, S. Clifford, 
 J. Cioslowski, B. B. Stefanov, G. Liu, A. Liashenko, P. Piskorz, 
 I. Komaromi, R. L. Martin, D. J. Fox, T. Keith, M. A. Al-Laham, 
 C. Y. Peng, A. Nanayakkara, M. Challacombe, P. M. W. Gill, 
 B. Johnson, W. Chen, M. W. Wong, C. Gonzalez, and J. A. Pople, 
 Gaussian, Inc., Wallingford CT, 2004.
 
 ******************************************
 Gaussian 03:  EM64T-G03RevE.01 11-Sep-2007
                12-Jun-2015 
 ******************************************
 %nproc=2
 Will use up to    2 processors via shared memory.
 Default route:  MP2=Direct MaxDisk=2000MB
 ----------------------------------------------------
 # b3lyp/6-31+G(d,p) int=ultrafine pop=(ReadRadii,MK)
 ----------------------------------------------------

 Warning!  SCF SP cutoffs with diffuse functions may be unreliable.
 Consider SCF=Tight

 1/38=1/1;
 2/17=6,18=5,40=1/2;
 3/5=1,6=6,7=111,11=2,16=1,25=1,30=1,74=-5,75=5/1,2,3;
 4//1;
 5/5=2,32=1,38=5/2;
 6/7=2,8=2,9=2,10=2,15=8,20=101,28=1/1,2;
 99/5=1,9=1/99;
 ----------------------------------------
 mol_17.28.54.pdbccc_plusQ.z58579.zip.xyz
 ----------------------------------------
 Symbolic Z-matrix:
 Charge =  1 Multiplicity = 1
 O                    -3.13177  -0.53451   0.77136 
 O                    -3.13894  -0.53603  -0.76154 
 P                    -2.84949   1.02032   0.00194 
 O                    -1.29652   1.09296  -0.00581 
 Ca                   -0.99683  -1.48176  -0.00382 
 Ca                    1.08079   1.42748  -0.00172 
 Ca                    3.34908  -0.8512    0.00223 
 O                     1.09385  -0.94772  -0.0012 
 O                     3.23357   1.27591   0.00183 
 
                          Input orientation:                          
 ---------------------------------------------------------------------
 Center     Atomic     Atomic              Coordinates (Angstroms)
 Number     Number      Type              X           Y           Z
 ---------------------------------------------------------------------
    1          8             0       -3.131770   -0.534510    0.771360
    2          8             0       -3.138940   -0.536030   -0.761540
    3         15             0       -2.849490    1.020320    0.001940
    4          8             0       -1.296520    1.092960   -0.005810
    5         20             0       -0.996830   -1.481760   -0.003820
    6         20             0        1.080790    1.427480   -0.001720
    7         20             0        3.349080   -0.851200    0.002230
    8          8             0        1.093850   -0.947720   -0.001200
    9          8             0        3.233570    1.275910    0.001830
 ---------------------------------------------------------------------
                    Distance matrix (angstroms):
                    1          2          3          4          5
     1  O    0.000000
     2  O    1.532918   0.000000
     3  P    1.757608   1.757529   0.000000
     4  O    2.573090   2.572790   1.554687   0.000000
     5  Ca   2.460926   2.461134   3.113324   2.592104   0.000000
     6  Ca   4.710915   4.715805   3.951315   2.400734   3.574939
     7  Ca   6.534009   6.540419   6.474941   5.036013   4.391421
     8  O    4.315490   4.320199   4.407167   3.142971   2.157811
     9  O    6.662383   6.668939   6.088427   4.533789   5.049857
                    6          7          8          9
     6  Ca   0.000000
     7  Ca   3.215204   0.000000
     8  O    2.375236   2.257297   0.000000
     9  O    2.158112   2.130244   3.085926   0.000000
 Stoichiometry    Ca3O5P(1+)
 Framework group  C1[X(Ca3O5P)]
 Deg. of freedom    21
 Full point group                 C1
 Largest Abelian subgroup         C1      NOp   1
 Largest concise Abelian subgroup C1      NOp   1
                         Standard orientation:                         
 ---------------------------------------------------------------------
 Center     Atomic     Atomic              Coordinates (Angstroms)
 Number     Number      Type              X           Y           Z
 ---------------------------------------------------------------------
    1          8             0       -3.131770   -0.534509    0.771360
    2          8             0       -3.138940   -0.536029   -0.761540
    3         15             0       -2.849489    1.020321    0.001940
    4          8             0       -1.296519    1.092960   -0.005810
    5         20             0       -0.996831   -1.481760   -0.003820
    6         20             0        1.080791    1.427479   -0.001720
    7         20             0        3.349080   -0.851203    0.002230
    8          8             0        1.093850   -0.947721   -0.001200
    9          8             0        3.233571    1.275907    0.001830
 ---------------------------------------------------------------------
 Rotational constants (GHZ):      1.5900740      0.3792351      0.3133411
 Standard basis: 6-31+G(d,p) (6D, 7F)
 There are   199 symmetry adapted basis functions of A   symmetry.
 Integral buffers will be    131072 words long.
 Raffenetti 2 integral format.
 Two-electron integral symmetry is turned on.
   199 basis functions,   456 primitive gaussians,   199 cartesian basis functions
    57 alpha electrons       57 beta electrons
       nuclear repulsion energy       953.8841980536 Hartrees.
 NAtoms=    9 NActive=    9 NUniq=    9 SFac= 7.50D-01 NAtFMM=   80 NAOKFM=F Big=F
 One-electron integrals computed using PRISM.
 NBasis=   199 RedAO= T  NBF=   199
 NBsUse=   199 1.00D-06 NBFU=   199
 Harris functional with IExCor=  402 diagonalized for initial guess.
 ExpMin= 7.10D-03 ExpMax= 3.53D+04 ExpMxC= 5.30D+03 IAcc=3 IRadAn=         5 AccDes= 0.00D+00
 HarFok:  IExCor= 402 AccDes= 0.00D+00 IRadAn=         5 IDoV=1
 ScaDFX=  1.000000  1.000000  1.000000  1.000000
 Initial guess orbital symmetries:
       Occupied  (A) (A) (A) (A) (A) (A) (A) (A) (A) (A) (A) (A)
                 (A) (A) (A) (A) (A) (A) (A) (A) (A) (A) (A) (A)
                 (A) (A) (A) (A) (A) (A) (A) (A) (A) (A) (A) (A)
                 (A) (A) (A) (A) (A) (A) (A) (A) (A) (A) (A) (A)
                 (A) (A) (A) (A) (A) (A) (A) (A) (A)
       Virtual   (A) (A) (A) (A) (A) (A) (A) (A) (A) (A) (A) (A)
                 (A) (A) (A) (A) (A) (A) (A) (A) (A) (A) (A) (A)
                 (A) (A) (A) (A) (A) (A) (A) (A) (A) (A) (A) (A)
                 (A) (A) (A) (A) (A) (A) (A) (A) (A) (A) (A) (A)
                 (A) (A) (A) (A) (A) (A) (A) (A) (A) (A) (A) (A)
                 (A) (A) (A) (A) (A) (A) (A) (A) (A) (A) (A) (A)
                 (A) (A) (A) (A) (A) (A) (A) (A) (A) (A) (A) (A)
                 (A) (A) (A) (A) (A) (A) (A) (A) (A) (A) (A) (A)
                 (A) (A) (A) (A) (A) (A) (A) (A) (A) (A) (A) (A)
                 (A) (A) (A) (A) (A) (A) (A) (A) (A) (A) (A) (A)
                 (A) (A) (A) (A) (A) (A) (A) (A) (A) (A) (A) (A)
                 (A) (A) (A) (A) (A) (A) (A) (A) (A) (A)
 The electronic state of the initial guess is 1-A.
 Requested convergence on RMS density matrix=1.00D-04 within 128 cycles.
 Requested convergence on MAX density matrix=1.00D-02.
 Requested convergence on             energy=1.00D-02.
 No special actions if energy rises.
 EnCoef did     5 forward-backward iterations
 EnCoef did   100 forward-backward iterations
 EnCoef did     2 forward-backward iterations
 EnCoef did     2 forward-backward iterations
 SCF Done:  E(RB+HF-LYP) =  -2750.13248253     A.U. after    9 cycles
             Convg  =    0.7268D-04             -V/T =  2.0029
             S**2   =   0.0000

 **********************************************************************

            Population analysis using the SCF density.

 **********************************************************************

 Orbital symmetries:
       Occupied  (A) (A) (A) (A) (A) (A) (A) (A) (A) (A) (A) (A)
                 (A) (A) (A) (A) (A) (A) (A) (A) (A) (A) (A) (A)
                 (A) (A) (A) (A) (A) (A) (A) (A) (A) (A) (A) (A)
                 (A) (A) (A) (A) (A) (A) (A) (A) (A) (A) (A) (A)
                 (A) (A) (A) (A) (A) (A) (A) (A) (A)
       Virtual   (A) (A) (A) (A) (A) (A) (A) (A) (A) (A) (A) (A)
                 (A) (A) (A) (A) (A) (A) (A) (A) (A) (A) (A) (A)
                 (A) (A) (A) (A) (A) (A) (A) (A) (A) (A) (A) (A)
                 (A) (A) (A) (A) (A) (A) (A) (A) (A) (A) (A) (A)
                 (A) (A) (A) (A) (A) (A) (A) (A) (A) (A) (A) (A)
                 (A) (A) (A) (A) (A) (A) (A) (A) (A) (A) (A) (A)
                 (A) (A) (A) (A) (A) (A) (A) (A) (A) (A) (A) (A)
                 (A) (A) (A) (A) (A) (A) (A) (A) (A) (A) (A) (A)
                 (A) (A) (A) (A) (A) (A) (A) (A) (A) (A) (A) (A)
                 (A) (A) (A) (A) (A) (A) (A) (A) (A) (A) (A) (A)
                 (A) (A) (A) (A) (A) (A) (A) (A) (A) (A) (A) (A)
                 (A) (A) (A) (A) (A) (A) (A) (A) (A) (A)
 The electronic state is 1-A.
 Alpha  occ. eigenvalues -- -145.52147-145.47054-145.45744 -77.33858 -19.37001
 Alpha  occ. eigenvalues --  -19.36987 -19.29670 -19.17037 -19.10771 -15.59008
 Alpha  occ. eigenvalues --  -15.53953 -15.52658 -12.72253 -12.72239 -12.72053
 Alpha  occ. eigenvalues --  -12.67195 -12.67110 -12.67032 -12.65927 -12.65836
 Alpha  occ. eigenvalues --  -12.65706  -6.79173  -4.95531  -4.95447  -4.94936
 Alpha  occ. eigenvalues --   -1.96221  -1.91248  -1.90053  -1.28429  -1.24007
 Alpha  occ. eigenvalues --   -1.23838  -1.22361  -1.19121  -1.18895  -1.18220
 Alpha  occ. eigenvalues --   -1.18089  -1.17446  -1.17177  -1.12877  -1.01036
 Alpha  occ. eigenvalues --   -0.91706  -0.84708  -0.73767  -0.61687  -0.60230
 Alpha  occ. eigenvalues --   -0.58887  -0.54725  -0.49821  -0.47610  -0.44041
 Alpha  occ. eigenvalues --   -0.43353  -0.37877  -0.36788  -0.35760  -0.30232
 Alpha  occ. eigenvalues --   -0.28787  -0.28457
 Alpha virt. eigenvalues --   -0.20340  -0.19644  -0.17746  -0.17264  -0.15283
 Alpha virt. eigenvalues --   -0.12026  -0.11234  -0.10210  -0.09967  -0.09649
 Alpha virt. eigenvalues --   -0.09350  -0.08174  -0.07379  -0.07021  -0.06560
 Alpha virt. eigenvalues --   -0.05367  -0.05143  -0.04854  -0.04322  -0.04289
 Alpha virt. eigenvalues --   -0.04130  -0.03953  -0.03856  -0.03525  -0.03207
 Alpha virt. eigenvalues --   -0.03025  -0.02753  -0.02108  -0.02102  -0.00545
 Alpha virt. eigenvalues --    0.01326   0.02303   0.02380   0.03219   0.03780
 Alpha virt. eigenvalues --    0.03786   0.05148   0.05363   0.06083   0.06157
 Alpha virt. eigenvalues --    0.06410   0.06696   0.07183   0.07206   0.08913
 Alpha virt. eigenvalues --    0.09149   0.10084   0.10459   0.10602   0.11328
 Alpha virt. eigenvalues --    0.11425   0.12068   0.13197   0.15253   0.16079
 Alpha virt. eigenvalues --    0.16142   0.17247   0.17819   0.18676   0.19284
 Alpha virt. eigenvalues --    0.19796   0.21482   0.21990   0.24161   0.24421
 Alpha virt. eigenvalues --    0.26518   0.26986   0.28215   0.28847   0.29682
 Alpha virt. eigenvalues --    0.30230   0.32097   0.35874   0.36166   0.37841
 Alpha virt. eigenvalues --    0.39410   0.39930   0.41019   0.45011   0.47960
 Alpha virt. eigenvalues --    0.50993   0.54710   0.55000   0.60251   0.65739
 Alpha virt. eigenvalues --    0.70155   0.77221   0.85291   0.89392   1.03049
 Alpha virt. eigenvalues --    1.05893   1.06543   1.08652   1.10164   1.10410
 Alpha virt. eigenvalues --    1.12673   1.12960   1.16617   1.17689   1.18310
 Alpha virt. eigenvalues --    1.21365   1.23869   1.25969   1.29090   1.34536
 Alpha virt. eigenvalues --    1.35372   1.39331   1.44370   1.50650   1.50712
 Alpha virt. eigenvalues --    1.56275   1.60801   1.62612   1.64935   1.66460
 Alpha virt. eigenvalues --    1.67345   1.68343   1.75752   1.77925   1.80888
 Alpha virt. eigenvalues --    1.83277   1.84660   1.86773   1.88156   1.88705
 Alpha virt. eigenvalues --    1.91610   1.94503   1.95481   1.99664   2.03778
 Alpha virt. eigenvalues --    2.12293   2.17763   2.24701   2.30545   2.61791
 Alpha virt. eigenvalues --    2.98960   3.44014   3.90101   3.94263   4.02822
 Alpha virt. eigenvalues --    4.07735   4.08004
          Condensed to atoms (all electrons):
              1          2          3          4          5          6
     1  O    8.250124   0.014514   0.069240  -0.007949   0.048586  -0.001267
     2  O    0.014514   8.250254   0.067963  -0.006702   0.048387  -0.000921
     3  P    0.069240   0.067963  14.177671  -0.104066  -0.026042  -0.016910
     4  O   -0.007949  -0.006702  -0.104066   8.876883   0.011607   0.037001
     5  Ca   0.048586   0.048387  -0.026042   0.011607  18.264636  -0.004920
     6  Ca  -0.001267  -0.000921  -0.016910   0.037001  -0.004920  18.397452
     7  Ca   0.001648   0.001390  -0.002354   0.005828  -0.013861  -0.025923
     8  O   -0.000047  -0.000093  -0.006296  -0.013946   0.196956   0.043477
     9  O   -0.000028  -0.000029  -0.000572  -0.003965  -0.004086   0.234963
              7          8          9
     1  O    0.001648  -0.000047  -0.000028
     2  O    0.001390  -0.000093  -0.000029
     3  P   -0.002354  -0.006296  -0.000572
     4  O    0.005828  -0.013946  -0.003965
     5  Ca  -0.013861   0.196956  -0.004086
     6  Ca  -0.025923   0.043477   0.234963
     7  Ca  18.366663   0.096260   0.224014
     8  O    0.096260   9.026700  -0.023704
     9  O    0.224014  -0.023704   8.713307
 Mulliken atomic charges:
              1
     1  O   -0.374821
     2  O   -0.374764
     3  P    0.841368
     4  O   -0.794690
     5  Ca   1.478736
     6  Ca   1.337047
     7  Ca   1.346334
     8  O   -1.319308
     9  O   -1.139901
 Sum of Mulliken charges=   1.00000
 Atomic charges with hydrogens summed into heavy atoms:
              1
     1  O   -0.374821
     2  O   -0.374764
     3  P    0.841368
     4  O   -0.794690
     5  Ca   1.478736
     6  Ca   1.337047
     7  Ca   1.346334
     8  O   -1.319308
     9  O   -1.139901
 Sum of Mulliken charges=   1.00000
 Electronic spatial extent (au):  <R**2>=  3045.5548
 Charge=     1.0000 electrons
 Dipole moment (field-independent basis, Debye):
    X=     0.4571    Y=    -7.5342    Z=    -0.0192  Tot=     7.5481
 Quadrupole moment (field-independent basis, Debye-Ang):
   XX=   -65.3576   YY=   -56.0159   ZZ=   -75.5969
   XY=   -26.3142   XZ=     0.0500   YZ=     0.0188
 Traceless Quadrupole moment (field-independent basis, Debye-Ang):
   XX=     0.2992   YY=     9.6409   ZZ=    -9.9401
   XY=   -26.3142   XZ=     0.0500   YZ=     0.0188
 Octapole moment (field-independent basis, Debye-Ang**2):
  XXX=    97.6632  YYY=   -35.8120  ZZZ=    -0.0768  XYY=   -17.0489
  XXY=  -129.6584  XXZ=    -0.0380  XZZ=     4.4320  YZZ=    -4.7221
  YYZ=    -0.0950  XYZ=    -0.2162
 Hexadecapole moment (field-independent basis, Debye-Ang**3):
 XXXX= -2624.8970 YYYY=  -570.1679 ZZZZ=  -123.4664 XXXY=  -608.5189
 XXXZ=     0.6050 YYYX=    -4.4626 YYYZ=     0.0414 ZZZX=     0.2052
 ZZZY=     0.0264 XXYY=  -590.6454 XXZZ=  -487.7140 YYZZ=  -124.2027
 XXYZ=    -0.2790 YYXZ=     0.0640 ZZXY=   -15.1463
 N-N= 9.538841980536D+02 E-N=-8.407700622336D+03  KE= 2.742196257508D+03
 Merz-Kollman atomic radii used.
 Read replacement radii for each type of atom:
 Rad(20) =   1.188000000000D+00
 Atom Element Radius
    1     8    1.40
    2     8    1.40
    3    15    1.80
    4     8    1.40
    5    20    1.19
    6    20    1.19
    7    20    1.19
    8     8    1.40
    9     8    1.40

 **********************************************************************

            Electrostatic Properties Using The SCF Density

 **********************************************************************

       Atomic Center    1 is at  -3.131770 -0.534509  0.771360
       Atomic Center    2 is at  -3.138940 -0.536029 -0.761540
       Atomic Center    3 is at  -2.849489  1.020321  0.001940
       Atomic Center    4 is at  -1.296519  1.092960 -0.005810
       Atomic Center    5 is at  -0.996831 -1.481760 -0.003820
       Atomic Center    6 is at   1.080791  1.427479 -0.001720
       Atomic Center    7 is at   3.349080 -0.851203  0.002230
       Atomic Center    8 is at   1.093850 -0.947721 -0.001200
       Atomic Center    9 is at   3.233571  1.275907  0.001830
     856 points will be used for fitting atomic charges
 Fitting point charges to eletrostatic potential
 Charges from ESP fit, RMS=   0.00573 RRMS=   0.03866:
 Charge=   1.00000 Dipole=     0.8453    -7.8296    -0.0115 Tot=     7.8751
              1
     1  O   -0.319960
     2  O   -0.322052
     3  P    0.601004
     4  O   -0.740872
     5  Ca   1.673411
     6  Ca   1.671224
     7  Ca   1.633043
     8  O   -1.701884
     9  O   -1.493915
 -----------------------------------------------------------------

              Electrostatic Properties (Atomic Units)

 -----------------------------------------------------------------
    Center     Electric         -------- Electric Field --------
               Potential          X             Y             Z
 -----------------------------------------------------------------
    1 Atom    -22.100096
    2 Atom    -22.100422
    3 Atom    -53.872690
    4 Atom    -22.162816
    5 Atom    -80.017095
    6 Atom    -80.086516
    7 Atom    -80.074709
    8 Atom    -22.294761
    9 Atom    -22.376333
 -----------------------------------------------------------------
 1\1\GINC-N030\SP\RB3LYP\6-31+G(d,p)\Ca3O5P1(1+)\TIMN\12-Jun-2015\0\\# 
 b3lyp/6-31+G(d,p) int=ultrafine pop=(ReadRadii,MK)\\mol_17.28.54.pdbcc
 c_plusQ.z58579.zip.xyz\\1,1\O,0,-3.13177,-0.53451,0.77136\O,0,-3.13894
 ,-0.53603,-0.76154\P,0,-2.84949,1.02032,0.00194\O,0,-1.29652,1.09296,-
 0.00581\Ca,0,-0.99683,-1.48176,-0.00382\Ca,0,1.08079,1.42748,-0.00172\
 Ca,0,3.34908,-0.8512,0.00223\O,0,1.09385,-0.94772,-0.0012\O,0,3.23357,
 1.27591,0.00183\\Version=EM64T-G03RevE.01\State=1-A\HF=-2750.1324825\R
 MSD=7.268e-05\Thermal=0.\Dipole=0.1798287,-2.9642009,-0.0075718\PG=C01
  [X(Ca3O5P1)]\\@


 THERE IS NO SUBJECT, HOWEVER COMPLEX,
 WHICH, IF STUDIED WITH PATIENCE AND INTELLIGIENCE
 WILL NOT BECOME
 MORE COMPLEX
                        QUOTED BY D. GORDON ROHMAN
 Job cpu time:  0 days  0 hours  2 minutes  5.0 seconds.
 File lengths (MBytes):  RWF=     36 Int=      0 D2E=      0 Chk=     11 Scr=      1
 Normal termination of Gaussian 03 at Fri Jun 12 18:10:34 2015.
