 Entering Gaussian System, Link 0=/home/timn/tmp/g03.e01/g03
 Input=mol_16.4.50.pdbccc_plusQ.out.z51601.zip.xyz.gjf
 Output=mol_16.4.50.pdbccc_plusQ.out.z51601.zip.xyz.out
 Initial command:
 /home/timn/tmp/g03.e01/l1.exe /home/timn/tmp/g03.e01/Gau-13540.inp -scrdir=/home/timn/tmp/g03.e01/
 Default is to use a total of   2 processors:
                                2 via shared-memory
                                1 via Linda
 Entering Link 1 = /home/timn/tmp/g03.e01/l1.exe PID=     13541.
  
 Copyright (c) 1988,1990,1992,1993,1995,1998,2003,2004,2007, Gaussian, Inc.
                  All Rights Reserved.
  
 This is the Gaussian(R) 03 program.  It is based on the
 the Gaussian(R) 98 system (copyright 1998, Gaussian, Inc.),
 the Gaussian(R) 94 system (copyright 1995, Gaussian, Inc.),
 the Gaussian 92(TM) system (copyright 1992, Gaussian, Inc.),
 the Gaussian 90(TM) system (copyright 1990, Gaussian, Inc.),
 the Gaussian 88(TM) system (copyright 1988, Gaussian, Inc.),
 the Gaussian 86(TM) system (copyright 1986, Carnegie Mellon
 University), and the Gaussian 82(TM) system (copyright 1983,
 Carnegie Mellon University). Gaussian is a federally registered
 trademark of Gaussian, Inc.
  
 This software contains proprietary and confidential information,
 including trade secrets, belonging to Gaussian, Inc.
  
 This software is provided under written license and may be
 used, copied, transmitted, or stored only in accord with that
 written license.
  
 The following legend is applicable only to US Government
 contracts under FAR:
  
                    RESTRICTED RIGHTS LEGEND
  
 Use, reproduction and disclosure by the US Government is
 subject to restrictions as set forth in subparagraphs (a)
 and (c) of the Commercial Computer Software - Restricted
 Rights clause in FAR 52.227-19.
  
 Gaussian, Inc.
 340 Quinnipiac St., Bldg. 40, Wallingford CT 06492
  
  
 ---------------------------------------------------------------
 Warning -- This program may not be used in any manner that
 competes with the business of Gaussian, Inc. or will provide
 assistance to any competitor of Gaussian, Inc.  The licensee
 of this program is prohibited from giving any competitor of
 Gaussian, Inc. access to this program.  By using this program,
 the user acknowledges that Gaussian, Inc. is engaged in the
 business of creating and licensing software in the field of
 computational chemistry and represents and warrants to the
 licensee that it is not a competitor of Gaussian, Inc. and that
 it will not use this program in any manner prohibited above.
 ---------------------------------------------------------------
  

 Cite this work as:
 Gaussian 03, Revision E.01,
 M. J. Frisch, G. W. Trucks, H. B. Schlegel, G. E. Scuseria, 
 M. A. Robb, J. R. Cheeseman, J. A. Montgomery, Jr., T. Vreven, 
 K. N. Kudin, J. C. Burant, J. M. Millam, S. S. Iyengar, J. Tomasi, 
 V. Barone, B. Mennucci, M. Cossi, G. Scalmani, N. Rega, 
 G. A. Petersson, H. Nakatsuji, M. Hada, M. Ehara, K. Toyota, 
 R. Fukuda, J. Hasegawa, M. Ishida, T. Nakajima, Y. Honda, O. Kitao, 
 H. Nakai, M. Klene, X. Li, J. E. Knox, H. P. Hratchian, J. B. Cross, 
 V. Bakken, C. Adamo, J. Jaramillo, R. Gomperts, R. E. Stratmann, 
 O. Yazyev, A. J. Austin, R. Cammi, C. Pomelli, J. W. Ochterski, 
 P. Y. Ayala, K. Morokuma, G. A. Voth, P. Salvador, J. J. Dannenberg, 
 V. G. Zakrzewski, S. Dapprich, A. D. Daniels, M. C. Strain, 
 O. Farkas, D. K. Malick, A. D. Rabuck, K. Raghavachari, 
 J. B. Foresman, J. V. Ortiz, Q. Cui, A. G. Baboul, S. Clifford, 
 J. Cioslowski, B. B. Stefanov, G. Liu, A. Liashenko, P. Piskorz, 
 I. Komaromi, R. L. Martin, D. J. Fox, T. Keith, M. A. Al-Laham, 
 C. Y. Peng, A. Nanayakkara, M. Challacombe, P. M. W. Gill, 
 B. Johnson, W. Chen, M. W. Wong, C. Gonzalez, and J. A. Pople, 
 Gaussian, Inc., Wallingford CT, 2004.
 
 ******************************************
 Gaussian 03:  EM64T-G03RevE.01 11-Sep-2007
                12-Jun-2015 
 ******************************************
 %nproc=2
 Will use up to    2 processors via shared memory.
 Default route:  MP2=Direct MaxDisk=2000MB
 ----------------------------------------------------
 # b3lyp/6-31+G(d,p) int=ultrafine pop=(ReadRadii,MK)
 ----------------------------------------------------

 Warning!  SCF SP cutoffs with diffuse functions may be unreliable.
 Consider SCF=Tight

 1/38=1/1;
 2/17=6,18=5,40=1/2;
 3/5=1,6=6,7=111,11=2,16=1,25=1,30=1,74=-5,75=5/1,2,3;
 4//1;
 5/5=2,32=1,38=5/2;
 6/7=2,8=2,9=2,10=2,15=8,20=101,28=1/1,2;
 99/5=1,9=1/99;
 -------------------------------------------
 mol_16.4.50.pdbccc_plusQ.out.z51601.zip.xyz
 -------------------------------------------
 Symbolic Z-matrix:
 Charge =  1 Multiplicity = 1
 O                    -1.44098  -1.27465  -0.00051 
 O                    -1.44386   1.2722    0.00024 
 P                    -2.32     -0.00221   0.00009 
 Ca                    0.7635   -1.85742  -0.00008 
 Ca                    0.7597    1.85875  -0.0003 
 O                     1.71412   0.00158  -0.78568 
 O                     1.71274   0.0017    0.78672 
 
                          Input orientation:                          
 ---------------------------------------------------------------------
 Center     Atomic     Atomic              Coordinates (Angstroms)
 Number     Number      Type              X           Y           Z
 ---------------------------------------------------------------------
    1          8             0       -1.440980   -1.274650   -0.000510
    2          8             0       -1.443860    1.272200    0.000240
    3         15             0       -2.320000   -0.002210    0.000090
    4         20             0        0.763500   -1.857420   -0.000080
    5         20             0        0.759700    1.858750   -0.000300
    6          8             0        1.714120    0.001580   -0.785680
    7          8             0        1.712740    0.001700    0.786720
 ---------------------------------------------------------------------
                    Distance matrix (angstroms):
                    1          2          3          4          5
     1  O    0.000000
     2  O    2.546852   0.000000
     3  P    1.546538   1.546526   0.000000
     4  Ca   2.280209   3.829747   3.598580   0.000000
     5  Ca   3.828993   2.280289   3.598295   3.716172   0.000000
     6  O    3.492837   3.493563   4.109936   2.230858   2.230879
     7  O    3.492098   3.492398   4.108746   2.230793   2.230767
                    6          7
     6  O    0.000000
     7  O    1.572401   0.000000
 Stoichiometry    Ca2O4P(1+)
 Framework group  C1[X(Ca2O4P)]
 Deg. of freedom    15
 Full point group                 C1
 Largest Abelian subgroup         C1      NOp   1
 Largest concise Abelian subgroup C1      NOp   1
                         Standard orientation:                         
 ---------------------------------------------------------------------
 Center     Atomic     Atomic              Coordinates (Angstroms)
 Number     Number      Type              X           Y           Z
 ---------------------------------------------------------------------
    1          8             0       -1.440972   -1.274662   -0.000509
    2          8             0       -1.443872    1.272188    0.000241
    3         15             0       -2.320002   -0.002229    0.000091
    4         20             0        0.763513   -1.857415   -0.000079
    5         20             0        0.759684    1.858755   -0.000299
    6          8             0        1.714118    0.001592   -0.785679
    7          8             0        1.712738    0.001712    0.786721
 ---------------------------------------------------------------------
 Rotational constants (GHZ):      1.4539568      1.2850041      0.7205988
 Standard basis: 6-31+G(d,p) (6D, 7F)
 There are   153 symmetry adapted basis functions of A   symmetry.
 Integral buffers will be    131072 words long.
 Raffenetti 2 integral format.
 Two-electron integral symmetry is turned on.
   153 basis functions,   344 primitive gaussians,   153 cartesian basis functions
    43 alpha electrons       43 beta electrons
       nuclear repulsion energy       602.1413498844 Hartrees.
 NAtoms=    7 NActive=    7 NUniq=    7 SFac= 7.50D-01 NAtFMM=   80 NAOKFM=F Big=F
 One-electron integrals computed using PRISM.
 NBasis=   153 RedAO= T  NBF=   153
 NBsUse=   153 1.00D-06 NBFU=   153
 Harris functional with IExCor=  402 diagonalized for initial guess.
 ExpMin= 7.10D-03 ExpMax= 3.53D+04 ExpMxC= 5.30D+03 IAcc=3 IRadAn=         5 AccDes= 0.00D+00
 HarFok:  IExCor= 402 AccDes= 0.00D+00 IRadAn=         5 IDoV=1
 ScaDFX=  1.000000  1.000000  1.000000  1.000000
 Initial guess orbital symmetries:
       Occupied  (A) (A) (A) (A) (A) (A) (A) (A) (A) (A) (A) (A)
                 (A) (A) (A) (A) (A) (A) (A) (A) (A) (A) (A) (A)
                 (A) (A) (A) (A) (A) (A) (A) (A) (A) (A) (A) (A)
                 (A) (A) (A) (A) (A) (A) (A)
       Virtual   (A) (A) (A) (A) (A) (A) (A) (A) (A) (A) (A) (A)
                 (A) (A) (A) (A) (A) (A) (A) (A) (A) (A) (A) (A)
                 (A) (A) (A) (A) (A) (A) (A) (A) (A) (A) (A) (A)
                 (A) (A) (A) (A) (A) (A) (A) (A) (A) (A) (A) (A)
                 (A) (A) (A) (A) (A) (A) (A) (A) (A) (A) (A) (A)
                 (A) (A) (A) (A) (A) (A) (A) (A) (A) (A) (A) (A)
                 (A) (A) (A) (A) (A) (A) (A) (A) (A) (A) (A) (A)
                 (A) (A) (A) (A) (A) (A) (A) (A) (A) (A) (A) (A)
                 (A) (A) (A) (A) (A) (A) (A) (A) (A) (A) (A) (A)
                 (A) (A)
 The electronic state of the initial guess is 1-A.
 Requested convergence on RMS density matrix=1.00D-04 within 128 cycles.
 Requested convergence on MAX density matrix=1.00D-02.
 Requested convergence on             energy=1.00D-02.
 No special actions if energy rises.
 SCF Done:  E(RB+HF-LYP) =  -1997.33372459     A.U. after    6 cycles
             Convg  =    0.4413D-04             -V/T =  2.0031
             S**2   =   0.0000

 **********************************************************************

            Population analysis using the SCF density.

 **********************************************************************

 Orbital symmetries:
       Occupied  (A) (A) (A) (A) (A) (A) (A) (A) (A) (A) (A) (A)
                 (A) (A) (A) (A) (A) (A) (A) (A) (A) (A) (A) (A)
                 (A) (A) (A) (A) (A) (A) (A) (A) (A) (A) (A) (A)
                 (A) (A) (A) (A) (A) (A) (A)
       Virtual   (A) (A) (A) (A) (A) (A) (A) (A) (A) (A) (A) (A)
                 (A) (A) (A) (A) (A) (A) (A) (A) (A) (A) (A) (A)
                 (A) (A) (A) (A) (A) (A) (A) (A) (A) (A) (A) (A)
                 (A) (A) (A) (A) (A) (A) (A) (A) (A) (A) (A) (A)
                 (A) (A) (A) (A) (A) (A) (A) (A) (A) (A) (A) (A)
                 (A) (A) (A) (A) (A) (A) (A) (A) (A) (A) (A) (A)
                 (A) (A) (A) (A) (A) (A) (A) (A) (A) (A) (A) (A)
                 (A) (A) (A) (A) (A) (A) (A) (A) (A) (A) (A) (A)
                 (A) (A) (A) (A) (A) (A) (A) (A) (A) (A) (A) (A)
                 (A) (A)
 The electronic state is 1-A.
 Alpha  occ. eigenvalues -- -145.53247-145.53246 -77.30160 -19.27954 -19.27949
 Alpha  occ. eigenvalues --  -19.25612 -19.25564 -15.60093 -15.60093 -12.73308
 Alpha  occ. eigenvalues --  -12.73308 -12.73290 -12.73290 -12.73208 -12.73206
 Alpha  occ. eigenvalues --   -6.75642  -4.92082  -4.91867  -4.91422  -1.97236
 Alpha  occ. eigenvalues --   -1.97210  -1.25765  -1.24806  -1.24792  -1.24726
 Alpha  occ. eigenvalues --   -1.24725  -1.24303  -1.13925  -1.08555  -1.08251
 Alpha  occ. eigenvalues --   -0.89521  -0.67704  -0.57281  -0.52823  -0.52601
 Alpha  occ. eigenvalues --   -0.48994  -0.47945  -0.46121  -0.45762  -0.43900
 Alpha  occ. eigenvalues --   -0.40699  -0.37191  -0.34167
 Alpha virt. eigenvalues --   -0.20457  -0.19851  -0.19631  -0.14481  -0.11368
 Alpha virt. eigenvalues --   -0.11280  -0.10319  -0.09667  -0.09044  -0.07375
 Alpha virt. eigenvalues --   -0.07215  -0.06432  -0.05961  -0.05215  -0.04857
 Alpha virt. eigenvalues --   -0.04431  -0.04389  -0.04083  -0.03999  -0.03873
 Alpha virt. eigenvalues --   -0.03337  -0.02377   0.00222   0.01110   0.02011
 Alpha virt. eigenvalues --    0.02949   0.03324   0.03644   0.04212   0.05047
 Alpha virt. eigenvalues --    0.05144   0.05190   0.06782   0.07028   0.07278
 Alpha virt. eigenvalues --    0.07476   0.08123   0.08217   0.12231   0.13582
 Alpha virt. eigenvalues --    0.14151   0.14768   0.16274   0.16814   0.16922
 Alpha virt. eigenvalues --    0.18688   0.20334   0.21715   0.24407   0.26748
 Alpha virt. eigenvalues --    0.28310   0.29466   0.31799   0.32145   0.32487
 Alpha virt. eigenvalues --    0.36021   0.36751   0.40440   0.43968   0.45543
 Alpha virt. eigenvalues --    0.48016   0.56601   0.57823   0.60211   0.65646
 Alpha virt. eigenvalues --    0.71349   0.87010   0.90194   0.94379   1.03572
 Alpha virt. eigenvalues --    1.05863   1.07984   1.08400   1.12008   1.12333
 Alpha virt. eigenvalues --    1.14814   1.15163   1.17891   1.20707   1.23939
 Alpha virt. eigenvalues --    1.28612   1.38347   1.43002   1.46781   1.50562
 Alpha virt. eigenvalues --    1.50923   1.58074   1.66233   1.68014   1.70613
 Alpha virt. eigenvalues --    1.71274   1.75751   1.80027   1.81211   1.82380
 Alpha virt. eigenvalues --    1.84418   1.85983   1.86060   1.92956   2.09473
 Alpha virt. eigenvalues --    2.16195   2.16962   2.53550   2.67525   3.00298
 Alpha virt. eigenvalues --    3.38474   3.83794   3.90578   3.97505   4.05860
          Condensed to atoms (all electrons):
              1          2          3          4          5          6
     1  O    8.815365  -0.085976  -0.094487   0.067445   0.002340   0.002541
     2  O   -0.085976   8.815285  -0.094374   0.002347   0.067449   0.002530
     3  P   -0.094487  -0.094374  14.567158  -0.019102  -0.019104  -0.004404
     4  Ca   0.067445   0.002347  -0.019102  18.210045  -0.016661   0.106023
     5  Ca   0.002340   0.067449  -0.019104  -0.016661  18.210047   0.106067
     6  O    0.002541   0.002530  -0.004404   0.106023   0.106067   8.515080
     7  O    0.002547   0.002560  -0.004363   0.105892   0.105861  -0.059740
              7
     1  O    0.002547
     2  O    0.002560
     3  P   -0.004363
     4  Ca   0.105892
     5  Ca   0.105861
     6  O   -0.059740
     7  O    8.516235
 Mulliken atomic charges:
              1
     1  O   -0.709774
     2  O   -0.709822
     3  P    0.668676
     4  Ca   1.544010
     5  Ca   1.544001
     6  O   -0.668098
     7  O   -0.668993
 Sum of Mulliken charges=   1.00000
 Atomic charges with hydrogens summed into heavy atoms:
              1
     1  O   -0.709774
     2  O   -0.709822
     3  P    0.668676
     4  Ca   1.544010
     5  Ca   1.544001
     6  O   -0.668098
     7  O   -0.668993
 Sum of Mulliken charges=   1.00000
 Electronic spatial extent (au):  <R**2>=  1378.2860
 Charge=     1.0000 electrons
 Dipole moment (field-independent basis, Debye):
    X=     3.1411    Y=     0.0010    Z=    -0.0088  Tot=     3.1411
 Quadrupole moment (field-independent basis, Debye-Ang):
   XX=   -66.5068   YY=    -8.8854   ZZ=   -58.2532
   XY=    -0.0570   XZ=    -0.0120   YZ=    -0.0073
 Traceless Quadrupole moment (field-independent basis, Debye-Ang):
   XX=   -21.9584   YY=    35.6630   ZZ=   -13.7047
   XY=    -0.0570   XZ=    -0.0120   YZ=    -0.0073
 Octapole moment (field-independent basis, Debye-Ang**2):
  XXX=    -6.9261  YYY=     0.1859  ZZZ=    -0.0175  XYY=    70.8618
  XXY=    -0.1563  XXZ=    -0.0128  XZZ=    -1.4168  YZZ=    -0.0020
  YYZ=    -0.0100  XYZ=     0.0018
 Hexadecapole moment (field-independent basis, Debye-Ang**3):
 XXXX=  -942.9839 YYYY=  -329.5221 ZZZZ=  -103.9581 XXXY=    -0.2380
 XXXZ=     0.0024 YYYX=    -0.2986 YYYZ=    -0.0291 ZZZX=    -0.0266
 ZZZY=    -0.0112 XXYY=  -220.7321 XXZZ=  -174.4932 YYZZ=  -103.3764
 XXYZ=    -0.0127 YYXZ=    -0.0094 ZZXY=    -0.0581
 N-N= 6.021413498844D+02 E-N=-5.923716936330D+03  KE= 1.991110743063D+03
 Merz-Kollman atomic radii used.
 Read replacement radii for each type of atom:
 Rad(20) =   1.188000000000D+00
 Atom Element Radius
    1     8    1.40
    2     8    1.40
    3    15    1.80
    4    20    1.19
    5    20    1.19
    6     8    1.40
    7     8    1.40

 **********************************************************************

            Electrostatic Properties Using The SCF Density

 **********************************************************************

       Atomic Center    1 is at  -1.440972 -1.274662 -0.000509
       Atomic Center    2 is at  -1.443872  1.272188  0.000241
       Atomic Center    3 is at  -2.320002 -0.002229  0.000091
       Atomic Center    4 is at   0.763513 -1.857415 -0.000079
       Atomic Center    5 is at   0.759684  1.858755 -0.000299
       Atomic Center    6 is at   1.714118  0.001592 -0.785679
       Atomic Center    7 is at   1.712738  0.001712  0.786721
     712 points will be used for fitting atomic charges
 Fitting point charges to eletrostatic potential
 Charges from ESP fit, RMS=   0.00428 RRMS=   0.02804:
 Charge=   1.00000 Dipole=     2.9945     0.0009    -0.0087 Tot=     2.9945
              1
     1  O   -0.751796
     2  O   -0.751768
     3  P    0.633862
     4  Ca   1.722142
     5  Ca   1.722137
     6  O   -0.786913
     7  O   -0.787665
 -----------------------------------------------------------------

              Electrostatic Properties (Atomic Units)

 -----------------------------------------------------------------
    Center     Electric         -------- Electric Field --------
               Potential          X             Y             Z
 -----------------------------------------------------------------
    1 Atom    -22.184065
    2 Atom    -22.184197
    3 Atom    -53.916371
    4 Atom    -80.007942
    5 Atom    -80.007953
    6 Atom    -22.213291
    7 Atom    -22.214789
 -----------------------------------------------------------------
 1\1\GINC-N059\SP\RB3LYP\6-31+G(d,p)\Ca2O4P1(1+)\TIMN\12-Jun-2015\0\\# 
 b3lyp/6-31+G(d,p) int=ultrafine pop=(ReadRadii,MK)\\mol_16.4.50.pdbccc
 _plusQ.out.z51601.zip.xyz\\1,1\O,0,-1.44098,-1.27465,-0.00051\O,0,-1.4
 4386,1.2722,0.00024\P,0,-2.32,-0.00221,0.00009\Ca,0,0.7635,-1.85742,-0
 .00008\Ca,0,0.7597,1.85875,-0.0003\O,0,1.71412,0.00158,-0.78568\O,0,1.
 71274,0.0017,0.78672\\Version=EM64T-G03RevE.01\State=1-A\HF=-1997.3337
 246\RMSD=4.413e-05\Thermal=0.\Dipole=1.2357916,0.0003718,-0.003454\PG=
 C01 [X(Ca2O4P1)]\\@


 TOM, TOM, THE BURGLAR'S SON
 STOLE A MACHINE AND AWAY HE RUN
 THE JOB WAS NEAT, BUT TOM GOT BEAT
 BY THE TIME HE GOT HOME IT WAS OBSOLETE.
 Job cpu time:  0 days  0 hours  0 minutes 48.3 seconds.
 File lengths (MBytes):  RWF=     28 Int=      0 D2E=      0 Chk=     10 Scr=      1
 Normal termination of Gaussian 03 at Fri Jun 12 17:48:49 2015.
