 Entering Gaussian System, Link 0=/home/timn/tmp/g03.e01/g03
 Input=mol_17.26.32.pdbcc_plusQ.z58444.zip.xyz.gjf
 Output=mol_17.26.32.pdbcc_plusQ.z58444.zip.xyz.out
 Initial command:
 /home/timn/tmp/g03.e01/l1.exe /home/timn/tmp/g03.e01/Gau-14286.inp -scrdir=/home/timn/tmp/g03.e01/
 Default is to use a total of   2 processors:
                                2 via shared-memory
                                1 via Linda
 Entering Link 1 = /home/timn/tmp/g03.e01/l1.exe PID=     14287.
  
 Copyright (c) 1988,1990,1992,1993,1995,1998,2003,2004,2007, Gaussian, Inc.
                  All Rights Reserved.
  
 This is the Gaussian(R) 03 program.  It is based on the
 the Gaussian(R) 98 system (copyright 1998, Gaussian, Inc.),
 the Gaussian(R) 94 system (copyright 1995, Gaussian, Inc.),
 the Gaussian 92(TM) system (copyright 1992, Gaussian, Inc.),
 the Gaussian 90(TM) system (copyright 1990, Gaussian, Inc.),
 the Gaussian 88(TM) system (copyright 1988, Gaussian, Inc.),
 the Gaussian 86(TM) system (copyright 1986, Carnegie Mellon
 University), and the Gaussian 82(TM) system (copyright 1983,
 Carnegie Mellon University). Gaussian is a federally registered
 trademark of Gaussian, Inc.
  
 This software contains proprietary and confidential information,
 including trade secrets, belonging to Gaussian, Inc.
  
 This software is provided under written license and may be
 used, copied, transmitted, or stored only in accord with that
 written license.
  
 The following legend is applicable only to US Government
 contracts under FAR:
  
                    RESTRICTED RIGHTS LEGEND
  
 Use, reproduction and disclosure by the US Government is
 subject to restrictions as set forth in subparagraphs (a)
 and (c) of the Commercial Computer Software - Restricted
 Rights clause in FAR 52.227-19.
  
 Gaussian, Inc.
 340 Quinnipiac St., Bldg. 40, Wallingford CT 06492
  
  
 ---------------------------------------------------------------
 Warning -- This program may not be used in any manner that
 competes with the business of Gaussian, Inc. or will provide
 assistance to any competitor of Gaussian, Inc.  The licensee
 of this program is prohibited from giving any competitor of
 Gaussian, Inc. access to this program.  By using this program,
 the user acknowledges that Gaussian, Inc. is engaged in the
 business of creating and licensing software in the field of
 computational chemistry and represents and warrants to the
 licensee that it is not a competitor of Gaussian, Inc. and that
 it will not use this program in any manner prohibited above.
 ---------------------------------------------------------------
  

 Cite this work as:
 Gaussian 03, Revision E.01,
 M. J. Frisch, G. W. Trucks, H. B. Schlegel, G. E. Scuseria, 
 M. A. Robb, J. R. Cheeseman, J. A. Montgomery, Jr., T. Vreven, 
 K. N. Kudin, J. C. Burant, J. M. Millam, S. S. Iyengar, J. Tomasi, 
 V. Barone, B. Mennucci, M. Cossi, G. Scalmani, N. Rega, 
 G. A. Petersson, H. Nakatsuji, M. Hada, M. Ehara, K. Toyota, 
 R. Fukuda, J. Hasegawa, M. Ishida, T. Nakajima, Y. Honda, O. Kitao, 
 H. Nakai, M. Klene, X. Li, J. E. Knox, H. P. Hratchian, J. B. Cross, 
 V. Bakken, C. Adamo, J. Jaramillo, R. Gomperts, R. E. Stratmann, 
 O. Yazyev, A. J. Austin, R. Cammi, C. Pomelli, J. W. Ochterski, 
 P. Y. Ayala, K. Morokuma, G. A. Voth, P. Salvador, J. J. Dannenberg, 
 V. G. Zakrzewski, S. Dapprich, A. D. Daniels, M. C. Strain, 
 O. Farkas, D. K. Malick, A. D. Rabuck, K. Raghavachari, 
 J. B. Foresman, J. V. Ortiz, Q. Cui, A. G. Baboul, S. Clifford, 
 J. Cioslowski, B. B. Stefanov, G. Liu, A. Liashenko, P. Piskorz, 
 I. Komaromi, R. L. Martin, D. J. Fox, T. Keith, M. A. Al-Laham, 
 C. Y. Peng, A. Nanayakkara, M. Challacombe, P. M. W. Gill, 
 B. Johnson, W. Chen, M. W. Wong, C. Gonzalez, and J. A. Pople, 
 Gaussian, Inc., Wallingford CT, 2004.
 
 ******************************************
 Gaussian 03:  EM64T-G03RevE.01 11-Sep-2007
                12-Jun-2015 
 ******************************************
 %nproc=2
 Will use up to    2 processors via shared memory.
 Default route:  MP2=Direct MaxDisk=2000MB
 ----------------------------------------------------
 # b3lyp/6-31+G(d,p) int=ultrafine pop=(ReadRadii,MK)
 ----------------------------------------------------

 Warning!  SCF SP cutoffs with diffuse functions may be unreliable.
 Consider SCF=Tight

 1/38=1/1;
 2/17=6,18=5,40=1/2;
 3/5=1,6=6,7=111,11=2,16=1,25=1,30=1,74=-5,75=5/1,2,3;
 4//1;
 5/5=2,32=1,38=5/2;
 6/7=2,8=2,9=2,10=2,15=8,20=101,28=1/1,2;
 99/5=1,9=1/99;
 ---------------------------------------
 mol_17.26.32.pdbcc_plusQ.z58444.zip.xyz
 ---------------------------------------
 Symbolic Z-matrix:
 Charge =  1 Multiplicity = 1
 O                    -2.61377   0.55639   0.00028 
 O                    -1.09695  -1.39237   0.00004 
 O                    -0.88945  -2.87279   0.00032 
 O                     2.34466  -0.25754   0.78522 
 O                     2.34601  -0.25737  -0.78453 
 Ca                    1.26751  -2.0556   -0.00075 
 P                    -2.6628   -0.96526   0.00047 
 Ca                   -1.48105   2.6284   -0.00065 
 Ca                    2.17444   1.84062   0.00052 
 
                          Input orientation:                          
 ---------------------------------------------------------------------
 Center     Atomic     Atomic              Coordinates (Angstroms)
 Number     Number      Type              X           Y           Z
 ---------------------------------------------------------------------
    1          8             0       -2.613770    0.556390    0.000280
    2          8             0       -1.096950   -1.392370    0.000040
    3          8             0       -0.889450   -2.872790    0.000320
    4          8             0        2.344660   -0.257540    0.785220
    5          8             0        2.346010   -0.257370   -0.784530
    6         20             0        1.267510   -2.055600   -0.000750
    7         15             0       -2.662800   -0.965260    0.000470
    8         20             0       -1.481050    2.628400   -0.000650
    9         20             0        2.174440    1.840620    0.000520
 ---------------------------------------------------------------------
                    Distance matrix (angstroms):
                    1          2          3          4          5
     1  O    0.000000
     2  O    2.469496   0.000000
     3  O    3.838301   1.494891   0.000000
     4  O    5.085729   3.707968   4.232620   0.000000
     5  O    5.086998   3.709144   4.233747   1.569751   0.000000
     6  Ca   4.678336   2.455717   2.306573   2.238531   2.238550
     7  P    1.522440   1.623056   2.604504   5.117749   5.119132
     8  Ca   2.361415   4.039075   5.532909   4.856161   4.856802
     9  Ca   4.957439   4.599371   5.621713   2.246554   2.246620
                    6          7          8          9
     6  Ca   0.000000
     7  P    4.078747   0.000000
     8  Ca   5.430878   3.782979   0.000000
     9  Ca   4.000382   5.592124   3.739412   0.000000
 Stoichiometry    Ca3O5P(1+)
 Framework group  C1[X(Ca3O5P)]
 Deg. of freedom    21
 Full point group                 C1
 Largest Abelian subgroup         C1      NOp   1
 Largest concise Abelian subgroup C1      NOp   1
                         Standard orientation:                         
 ---------------------------------------------------------------------
 Center     Atomic     Atomic              Coordinates (Angstroms)
 Number     Number      Type              X           Y           Z
 ---------------------------------------------------------------------
    1          8             0       -2.613767    0.556405    0.000279
    2          8             0       -1.096958   -1.392364    0.000039
    3          8             0       -0.889467   -2.872785    0.000319
    4          8             0        2.344658   -0.257554    0.785219
    5          8             0        2.346008   -0.257385   -0.784531
    6         20             0        1.267498   -2.055608   -0.000751
    7         15             0       -2.662806   -0.965245    0.000469
    8         20             0       -1.481034    2.628408   -0.000651
    9         20             0        2.174451    1.840607    0.000519
 ---------------------------------------------------------------------
 Rotational constants (GHZ):      0.6325849      0.5632138      0.3050313
 Standard basis: 6-31+G(d,p) (6D, 7F)
 There are   199 symmetry adapted basis functions of A   symmetry.
 Integral buffers will be    131072 words long.
 Raffenetti 2 integral format.
 Two-electron integral symmetry is turned on.
   199 basis functions,   456 primitive gaussians,   199 cartesian basis functions
    57 alpha electrons       57 beta electrons
       nuclear repulsion energy       899.9899403227 Hartrees.
 NAtoms=    9 NActive=    9 NUniq=    9 SFac= 7.50D-01 NAtFMM=   80 NAOKFM=F Big=F
 One-electron integrals computed using PRISM.
 NBasis=   199 RedAO= T  NBF=   199
 NBsUse=   199 1.00D-06 NBFU=   199
 Harris functional with IExCor=  402 diagonalized for initial guess.
 ExpMin= 7.10D-03 ExpMax= 3.53D+04 ExpMxC= 5.30D+03 IAcc=3 IRadAn=         5 AccDes= 0.00D+00
 HarFok:  IExCor= 402 AccDes= 0.00D+00 IRadAn=         5 IDoV=1
 ScaDFX=  1.000000  1.000000  1.000000  1.000000
 Initial guess orbital symmetries:
       Occupied  (A) (A) (A) (A) (A) (A) (A) (A) (A) (A) (A) (A)
                 (A) (A) (A) (A) (A) (A) (A) (A) (A) (A) (A) (A)
                 (A) (A) (A) (A) (A) (A) (A) (A) (A) (A) (A) (A)
                 (A) (A) (A) (A) (A) (A) (A) (A) (A) (A) (A) (A)
                 (A) (A) (A) (A) (A) (A) (A) (A) (A)
       Virtual   (A) (A) (A) (A) (A) (A) (A) (A) (A) (A) (A) (A)
                 (A) (A) (A) (A) (A) (A) (A) (A) (A) (A) (A) (A)
                 (A) (A) (A) (A) (A) (A) (A) (A) (A) (A) (A) (A)
                 (A) (A) (A) (A) (A) (A) (A) (A) (A) (A) (A) (A)
                 (A) (A) (A) (A) (A) (A) (A) (A) (A) (A) (A) (A)
                 (A) (A) (A) (A) (A) (A) (A) (A) (A) (A) (A) (A)
                 (A) (A) (A) (A) (A) (A) (A) (A) (A) (A) (A) (A)
                 (A) (A) (A) (A) (A) (A) (A) (A) (A) (A) (A) (A)
                 (A) (A) (A) (A) (A) (A) (A) (A) (A) (A) (A) (A)
                 (A) (A) (A) (A) (A) (A) (A) (A) (A) (A) (A) (A)
                 (A) (A) (A) (A) (A) (A) (A) (A) (A) (A) (A) (A)
                 (A) (A) (A) (A) (A) (A) (A) (A) (A) (A)
 The electronic state of the initial guess is 1-A.
 Requested convergence on RMS density matrix=1.00D-04 within 128 cycles.
 Requested convergence on MAX density matrix=1.00D-02.
 Requested convergence on             energy=1.00D-02.
 No special actions if energy rises.
 EnCoef did     6 forward-backward iterations
 EnCoef did   100 forward-backward iterations
 EnCoef did     8 forward-backward iterations
 EnCoef did     2 forward-backward iterations
 EnCoef did     5 forward-backward iterations
 SCF Done:  E(RB+HF-LYP) =  -2749.99884192     A.U. after   12 cycles
             Convg  =    0.6086D-04             -V/T =  2.0029
             S**2   =   0.0000

 **********************************************************************

            Population analysis using the SCF density.

 **********************************************************************

 Orbital symmetries:
       Occupied  (A) (A) (A) (A) (A) (A) (A) (A) (A) (A) (A) (A)
                 (A) (A) (A) (A) (A) (A) (A) (A) (A) (A) (A) (A)
                 (A) (A) (A) (A) (A) (A) (A) (A) (A) (A) (A) (A)
                 (A) (A) (A) (A) (A) (A) (A) (A) (A) (A) (A) (A)
                 (A) (A) (A) (A) (A) (A) (A) (A) (A)
       Virtual   (A) (A) (A) (A) (A) (A) (A) (A) (A) (A) (A) (A)
                 (A) (A) (A) (A) (A) (A) (A) (A) (A) (A) (A) (A)
                 (A) (A) (A) (A) (A) (A) (A) (A) (A) (A) (A) (A)
                 (A) (A) (A) (A) (A) (A) (A) (A) (A) (A) (A) (A)
                 (A) (A) (A) (A) (A) (A) (A) (A) (A) (A) (A) (A)
                 (A) (A) (A) (A) (A) (A) (A) (A) (A) (A) (A) (A)
                 (A) (A) (A) (A) (A) (A) (A) (A) (A) (A) (A) (A)
                 (A) (A) (A) (A) (A) (A) (A) (A) (A) (A) (A) (A)
                 (A) (A) (A) (A) (A) (A) (A) (A) (A) (A) (A) (A)
                 (A) (A) (A) (A) (A) (A) (A) (A) (A) (A) (A) (A)
                 (A) (A) (A) (A) (A) (A) (A) (A) (A) (A) (A) (A)
                 (A) (A) (A) (A) (A) (A) (A) (A) (A) (A)
 The electronic state is 1-A.
 Alpha  occ. eigenvalues -- -145.52574-145.49923-145.49263 -77.32882 -19.36656
 Alpha  occ. eigenvalues --  -19.30233 -19.28095 -19.24003 -19.23997 -15.59558
 Alpha  occ. eigenvalues --  -15.56895 -15.56147 -12.72748 -12.72734 -12.72640
 Alpha  occ. eigenvalues --  -12.70117 -12.70082 -12.69963 -12.69400 -12.69372
 Alpha  occ. eigenvalues --  -12.69194  -6.78482  -4.94814  -4.94750  -4.94262
 Alpha  occ. eigenvalues --   -1.96639  -1.94117  -1.93411  -1.24100  -1.24098
 Alpha  occ. eigenvalues --   -1.23845  -1.23572  -1.22284  -1.21619  -1.21600
 Alpha  occ. eigenvalues --   -1.21074  -1.20947  -1.19706  -1.13864  -1.06481
 Alpha  occ. eigenvalues --   -0.96976  -0.87696  -0.71327  -0.61064  -0.58392
 Alpha  occ. eigenvalues --   -0.56912  -0.50275  -0.49803  -0.47324  -0.46500
 Alpha  occ. eigenvalues --   -0.44946  -0.44441  -0.39673  -0.37295  -0.35678
 Alpha  occ. eigenvalues --   -0.32150  -0.28158
 Alpha virt. eigenvalues --   -0.22708  -0.19170  -0.16454  -0.15379  -0.14709
 Alpha virt. eigenvalues --   -0.13728  -0.11970  -0.11640  -0.09950  -0.09682
 Alpha virt. eigenvalues --   -0.08979  -0.07748  -0.07107  -0.07088  -0.06641
 Alpha virt. eigenvalues --   -0.05958  -0.05524  -0.05471  -0.05235  -0.05139
 Alpha virt. eigenvalues --   -0.05047  -0.04527  -0.03900  -0.03897  -0.03496
 Alpha virt. eigenvalues --   -0.03189  -0.03154  -0.03069  -0.02711  -0.01689
 Alpha virt. eigenvalues --   -0.01168  -0.00433   0.01945   0.02071   0.02464
 Alpha virt. eigenvalues --    0.03315   0.03369   0.03698   0.04442   0.05547
 Alpha virt. eigenvalues --    0.05562   0.05584   0.06787   0.06967   0.07260
 Alpha virt. eigenvalues --    0.07999   0.08368   0.08453   0.08970   0.09440
 Alpha virt. eigenvalues --    0.10064   0.10573   0.11222   0.11985   0.12586
 Alpha virt. eigenvalues --    0.13229   0.14550   0.15216   0.16865   0.17048
 Alpha virt. eigenvalues --    0.17952   0.18345   0.20668   0.20814   0.21063
 Alpha virt. eigenvalues --    0.21940   0.23455   0.25891   0.27878   0.28750
 Alpha virt. eigenvalues --    0.30846   0.31366   0.32207   0.32931   0.36269
 Alpha virt. eigenvalues --    0.37643   0.38488   0.38904   0.40149   0.41521
 Alpha virt. eigenvalues --    0.42370   0.49785   0.53316   0.54450   0.56383
 Alpha virt. eigenvalues --    0.62726   0.67499   0.73534   0.83289   0.94830
 Alpha virt. eigenvalues --    0.98069   1.01553   1.03868   1.05758   1.08117
 Alpha virt. eigenvalues --    1.09561   1.12380   1.12806   1.14238   1.18123
 Alpha virt. eigenvalues --    1.18620   1.19566   1.20842   1.22927   1.26138
 Alpha virt. eigenvalues --    1.29846   1.37787   1.42730   1.45041   1.49829
 Alpha virt. eigenvalues --    1.50322   1.52053   1.56515   1.58444   1.61189
 Alpha virt. eigenvalues --    1.62906   1.69166   1.70779   1.73984   1.77738
 Alpha virt. eigenvalues --    1.81777   1.83334   1.83760   1.84417   1.87039
 Alpha virt. eigenvalues --    1.89299   1.93094   1.95542   2.18222   2.18473
 Alpha virt. eigenvalues --    2.19575   2.24030   2.41564   2.65462   3.02049
 Alpha virt. eigenvalues --    3.03609   3.40100   3.78545   3.87717   3.96490
 Alpha virt. eigenvalues --    4.08145   4.11913
          Condensed to atoms (all electrons):
              1          2          3          4          5          6
     1  O    8.739166   0.039243   0.014177   0.000971   0.000970   0.005296
     2  O    0.039243   8.380230   0.049809   0.006615   0.006614   0.019557
     3  O    0.014177   0.049809   8.370591  -0.001654  -0.001676   0.100698
     4  O    0.000971   0.006615  -0.001654   8.554638  -0.062230   0.093805
     5  O    0.000970   0.006614  -0.001676  -0.062230   8.554682   0.093916
     6  Ca   0.005296   0.019557   0.100698   0.093805   0.093916  18.268324
     7  P   -0.124334  -0.159808  -0.019563   0.000529   0.000501  -0.041142
     8  Ca  -0.047966  -0.003490  -0.000265  -0.015055  -0.014996   0.056428
     9  Ca  -0.026834  -0.004947  -0.000130   0.071992   0.072002   0.000857
              7          8          9
     1  O   -0.124334  -0.047966  -0.026834
     2  O   -0.159808  -0.003490  -0.004947
     3  O   -0.019563  -0.000265  -0.000130
     4  O    0.000529  -0.015055   0.071992
     5  O    0.000501  -0.014996   0.072002
     6  Ca  -0.041142   0.056428   0.000857
     7  P   14.538368  -0.067406   0.047444
     8  Ca  -0.067406  19.235903   0.286252
     9  Ca   0.047444   0.286252  18.605738
 Mulliken atomic charges:
              1
     1  O   -0.600689
     2  O   -0.333822
     3  O   -0.511987
     4  O   -0.649611
     5  O   -0.649782
     6  Ca   1.402262
     7  P    0.825410
     8  Ca   0.570594
     9  Ca   0.947625
 Sum of Mulliken charges=   1.00000
 Atomic charges with hydrogens summed into heavy atoms:
              1
     1  O   -0.600689
     2  O   -0.333822
     3  O   -0.511987
     4  O   -0.649611
     5  O   -0.649782
     6  Ca   1.402262
     7  P    0.825410
     8  Ca   0.570594
     9  Ca   0.947625
 Sum of Mulliken charges=   1.00000
 Electronic spatial extent (au):  <R**2>=  3122.9770
 Charge=     1.0000 electrons
 Dipole moment (field-independent basis, Debye):
    X=     0.8253    Y=     4.4319    Z=    -0.0055  Tot=     4.5081
 Quadrupole moment (field-independent basis, Debye-Ang):
   XX=   -58.7849   YY=   -46.2692   ZZ=   -85.3476
   XY=   -10.5194   XZ=     0.0036   YZ=     0.0158
 Traceless Quadrupole moment (field-independent basis, Debye-Ang):
   XX=     4.6824   YY=    17.1980   ZZ=   -21.8804
   XY=   -10.5194   XZ=     0.0036   YZ=     0.0158
 Octapole moment (field-independent basis, Debye-Ang**2):
  XXX=     4.5228  YYY=   -18.5527  ZZZ=    -0.0054  XYY=    56.3964
  XXY=    44.6230  XXZ=     0.0079  XZZ=    -3.9007  YZZ=   -17.4614
  YYZ=    -0.0326  XYZ=     0.0492
 Hexadecapole moment (field-independent basis, Debye-Ang**3):
 XXXX= -1871.1731 YYYY= -1809.9375 ZZZZ=  -177.4987 XXXY=   109.2883
 XXXZ=     0.0773 YYYX=  -253.5554 YYYZ=     0.1068 ZZZX=    -0.0152
 ZZZY=     0.0609 XXYY=  -380.1523 XXZZ=  -361.2454 YYZZ=  -346.6513
 XXYZ=     0.0511 YYXZ=     0.0303 ZZXY=    -4.5834
 N-N= 8.999899403227D+02 E-N=-8.297953508942D+03  KE= 2.742169170490D+03
 Merz-Kollman atomic radii used.
 Read replacement radii for each type of atom:
 Rad(20) =   1.188000000000D+00
 Atom Element Radius
    1     8    1.40
    2     8    1.40
    3     8    1.40
    4     8    1.40
    5     8    1.40
    6    20    1.19
    7    15    1.80
    8    20    1.19
    9    20    1.19

 **********************************************************************

            Electrostatic Properties Using The SCF Density

 **********************************************************************

       Atomic Center    1 is at  -2.613767  0.556405  0.000279
       Atomic Center    2 is at  -1.096958 -1.392364  0.000039
       Atomic Center    3 is at  -0.889467 -2.872785  0.000319
       Atomic Center    4 is at   2.344658 -0.257554  0.785219
       Atomic Center    5 is at   2.346008 -0.257385 -0.784531
       Atomic Center    6 is at   1.267498 -2.055608 -0.000751
       Atomic Center    7 is at  -2.662806 -0.965245  0.000469
       Atomic Center    8 is at  -1.481034  2.628408 -0.000651
       Atomic Center    9 is at   2.174451  1.840607  0.000519
     907 points will be used for fitting atomic charges
 Fitting point charges to eletrostatic potential
 Charges from ESP fit, RMS=   0.02555 RRMS=   0.17534:
 Charge=   1.00000 Dipole=     0.6103     6.6496    -0.0060 Tot=     6.6775
              1
     1  O   -0.033836
     2  O   -0.631083
     3  O   -0.345662
     4  O   -0.625648
     5  O   -0.625817
     6  Ca   1.533973
     7  P    0.421368
     8  Ca   0.462222
     9  Ca   0.844484
 -----------------------------------------------------------------

              Electrostatic Properties (Atomic Units)

 -----------------------------------------------------------------
    Center     Electric         -------- Electric Field --------
               Potential          X             Y             Z
 -----------------------------------------------------------------
    1 Atom    -22.149491
    2 Atom    -22.097584
    3 Atom    -22.198041
    4 Atom    -22.244946
    5 Atom    -22.244943
    6 Atom    -80.050243
    7 Atom    -53.879866
    8 Atom    -80.017951
    9 Atom    -80.046583
 -----------------------------------------------------------------
 1\1\GINC-N032\SP\RB3LYP\6-31+G(d,p)\Ca3O5P1(1+)\TIMN\12-Jun-2015\0\\# 
 b3lyp/6-31+G(d,p) int=ultrafine pop=(ReadRadii,MK)\\mol_17.26.32.pdbcc
 _plusQ.z58444.zip.xyz\\1,1\O,0,-2.61377,0.55639,0.00028\O,0,-1.09695,-
 1.39237,0.00004\O,0,-0.88945,-2.87279,0.00032\O,0,2.34466,-0.25754,0.7
 8522\O,0,2.34601,-0.25737,-0.78453\Ca,0,1.26751,-2.0556,-0.00075\P,0,-
 2.6628,-0.96526,0.00047\Ca,0,-1.48105,2.6284,-0.00065\Ca,0,2.17444,1.8
 4062,0.00052\\Version=EM64T-G03RevE.01\State=1-A\HF=-2749.9988419\RMSD
 =6.086e-05\Thermal=0.\Dipole=0.3247001,1.7436341,-0.0021815\PG=C01 [X(
 Ca3O5P1)]\\@


 IT TAKES GREATER CHARACTER TO CARRY OFF GOOD FORTUNE THAN BAD.
                     FRENCH PROVERB.
 Job cpu time:  0 days  0 hours  2 minutes 42.7 seconds.
 File lengths (MBytes):  RWF=     36 Int=      0 D2E=      0 Chk=     11 Scr=      1
 Normal termination of Gaussian 03 at Fri Jun 12 18:01:02 2015.
