 Entering Gaussian System, Link 0=/home/timn/tmp/g03.e01/g03
 Input=mol_16.4.11.pdbc_plusQ.out.z51562.zip.xyz.gjf
 Output=mol_16.4.11.pdbc_plusQ.out.z51562.zip.xyz.out
 Initial command:
 /home/timn/tmp/g03.e01/l1.exe /home/timn/tmp/g03.e01/Gau-13840.inp -scrdir=/home/timn/tmp/g03.e01/
 Default is to use a total of   2 processors:
                                2 via shared-memory
                                1 via Linda
 Entering Link 1 = /home/timn/tmp/g03.e01/l1.exe PID=     13841.
  
 Copyright (c) 1988,1990,1992,1993,1995,1998,2003,2004,2007, Gaussian, Inc.
                  All Rights Reserved.
  
 This is the Gaussian(R) 03 program.  It is based on the
 the Gaussian(R) 98 system (copyright 1998, Gaussian, Inc.),
 the Gaussian(R) 94 system (copyright 1995, Gaussian, Inc.),
 the Gaussian 92(TM) system (copyright 1992, Gaussian, Inc.),
 the Gaussian 90(TM) system (copyright 1990, Gaussian, Inc.),
 the Gaussian 88(TM) system (copyright 1988, Gaussian, Inc.),
 the Gaussian 86(TM) system (copyright 1986, Carnegie Mellon
 University), and the Gaussian 82(TM) system (copyright 1983,
 Carnegie Mellon University). Gaussian is a federally registered
 trademark of Gaussian, Inc.
  
 This software contains proprietary and confidential information,
 including trade secrets, belonging to Gaussian, Inc.
  
 This software is provided under written license and may be
 used, copied, transmitted, or stored only in accord with that
 written license.
  
 The following legend is applicable only to US Government
 contracts under FAR:
  
                    RESTRICTED RIGHTS LEGEND
  
 Use, reproduction and disclosure by the US Government is
 subject to restrictions as set forth in subparagraphs (a)
 and (c) of the Commercial Computer Software - Restricted
 Rights clause in FAR 52.227-19.
  
 Gaussian, Inc.
 340 Quinnipiac St., Bldg. 40, Wallingford CT 06492
  
  
 ---------------------------------------------------------------
 Warning -- This program may not be used in any manner that
 competes with the business of Gaussian, Inc. or will provide
 assistance to any competitor of Gaussian, Inc.  The licensee
 of this program is prohibited from giving any competitor of
 Gaussian, Inc. access to this program.  By using this program,
 the user acknowledges that Gaussian, Inc. is engaged in the
 business of creating and licensing software in the field of
 computational chemistry and represents and warrants to the
 licensee that it is not a competitor of Gaussian, Inc. and that
 it will not use this program in any manner prohibited above.
 ---------------------------------------------------------------
  

 Cite this work as:
 Gaussian 03, Revision E.01,
 M. J. Frisch, G. W. Trucks, H. B. Schlegel, G. E. Scuseria, 
 M. A. Robb, J. R. Cheeseman, J. A. Montgomery, Jr., T. Vreven, 
 K. N. Kudin, J. C. Burant, J. M. Millam, S. S. Iyengar, J. Tomasi, 
 V. Barone, B. Mennucci, M. Cossi, G. Scalmani, N. Rega, 
 G. A. Petersson, H. Nakatsuji, M. Hada, M. Ehara, K. Toyota, 
 R. Fukuda, J. Hasegawa, M. Ishida, T. Nakajima, Y. Honda, O. Kitao, 
 H. Nakai, M. Klene, X. Li, J. E. Knox, H. P. Hratchian, J. B. Cross, 
 V. Bakken, C. Adamo, J. Jaramillo, R. Gomperts, R. E. Stratmann, 
 O. Yazyev, A. J. Austin, R. Cammi, C. Pomelli, J. W. Ochterski, 
 P. Y. Ayala, K. Morokuma, G. A. Voth, P. Salvador, J. J. Dannenberg, 
 V. G. Zakrzewski, S. Dapprich, A. D. Daniels, M. C. Strain, 
 O. Farkas, D. K. Malick, A. D. Rabuck, K. Raghavachari, 
 J. B. Foresman, J. V. Ortiz, Q. Cui, A. G. Baboul, S. Clifford, 
 J. Cioslowski, B. B. Stefanov, G. Liu, A. Liashenko, P. Piskorz, 
 I. Komaromi, R. L. Martin, D. J. Fox, T. Keith, M. A. Al-Laham, 
 C. Y. Peng, A. Nanayakkara, M. Challacombe, P. M. W. Gill, 
 B. Johnson, W. Chen, M. W. Wong, C. Gonzalez, and J. A. Pople, 
 Gaussian, Inc., Wallingford CT, 2004.
 
 ******************************************
 Gaussian 03:  EM64T-G03RevE.01 11-Sep-2007
                12-Jun-2015 
 ******************************************
 %nproc=2
 Will use up to    2 processors via shared memory.
 Default route:  MP2=Direct MaxDisk=2000MB
 ----------------------------------------------------
 # b3lyp/6-31+G(d,p) int=ultrafine pop=(ReadRadii,MK)
 ----------------------------------------------------

 Warning!  SCF SP cutoffs with diffuse functions may be unreliable.
 Consider SCF=Tight

 1/38=1/1;
 2/17=6,18=5,40=1/2;
 3/5=1,6=6,7=111,11=2,16=1,25=1,30=1,74=-5,75=5/1,2,3;
 4//1;
 5/5=2,32=1,38=5/2;
 6/7=2,8=2,9=2,10=2,15=8,20=101,28=1/1,2;
 99/5=1,9=1/99;
 -----------------------------------------
 mol_16.4.11.pdbc_plusQ.out.z51562.zip.xyz
 -----------------------------------------
 Symbolic Z-matrix:
 Charge =  1 Multiplicity = 1
 O                     1.44166  -1.27411  -0.00008 
 P                     2.32001  -0.00102  -0.00013 
 Ca                   -0.76059   1.85834  -0.00023 
 O                     1.44309   1.27269   0.00045 
 O                    -1.71389   0.00087  -0.78586 
 O                    -1.71316   0.00089   0.78652 
 Ca                   -0.7625   -1.85771  -0.00008 
 
                          Input orientation:                          
 ---------------------------------------------------------------------
 Center     Atomic     Atomic              Coordinates (Angstroms)
 Number     Number      Type              X           Y           Z
 ---------------------------------------------------------------------
    1          8             0        1.441660   -1.274110   -0.000080
    2         15             0        2.320010   -0.001020   -0.000130
    3         20             0       -0.760590    1.858340   -0.000230
    4          8             0        1.443090    1.272690    0.000450
    5          8             0       -1.713890    0.000870   -0.785860
    6          8             0       -1.713160    0.000890    0.786520
    7         20             0       -0.762500   -1.857710   -0.000080
 ---------------------------------------------------------------------
                    Distance matrix (angstroms):
                    1          2          3          4          5
     1  O    0.000000
     2  P    1.546692   0.000000
     3  Ca   3.829118   3.598238   0.000000
     4  O    2.546800   1.546391   2.280174   0.000000
     5  O    3.492924   4.109711   2.230738   3.493184   0.000000
     6  O    3.492457   4.109170   2.230804   3.492463   1.572380
     7  Ca   2.280112   3.598495   3.716050   3.829364   2.230900
                    6          7
     6  O    0.000000
     7  Ca   2.230894   0.000000
 Stoichiometry    Ca2O4P(1+)
 Framework group  C1[X(Ca2O4P)]
 Deg. of freedom    15
 Full point group                 C1
 Largest Abelian subgroup         C1      NOp   1
 Largest concise Abelian subgroup C1      NOp   1
                         Standard orientation:                         
 ---------------------------------------------------------------------
 Center     Atomic     Atomic              Coordinates (Angstroms)
 Number     Number      Type              X           Y           Z
 ---------------------------------------------------------------------
    1          8             0        1.441664   -1.274106   -0.000081
    2         15             0        2.320011   -0.001013   -0.000131
    3         20             0       -0.760595    1.858338   -0.000231
    4          8             0        1.443087    1.272694    0.000449
    5          8             0       -1.713889    0.000865   -0.785861
    6          8             0       -1.713159    0.000885    0.786519
    7         20             0       -0.762494   -1.857712   -0.000081
 ---------------------------------------------------------------------
 Rotational constants (GHZ):      1.4540430      1.2850034      0.7206187
 Standard basis: 6-31+G(d,p) (6D, 7F)
 There are   153 symmetry adapted basis functions of A   symmetry.
 Integral buffers will be    131072 words long.
 Raffenetti 2 integral format.
 Two-electron integral symmetry is turned on.
   153 basis functions,   344 primitive gaussians,   153 cartesian basis functions
    43 alpha electrons       43 beta electrons
       nuclear repulsion energy       602.1481479189 Hartrees.
 NAtoms=    7 NActive=    7 NUniq=    7 SFac= 7.50D-01 NAtFMM=   80 NAOKFM=F Big=F
 One-electron integrals computed using PRISM.
 NBasis=   153 RedAO= T  NBF=   153
 NBsUse=   153 1.00D-06 NBFU=   153
 Harris functional with IExCor=  402 diagonalized for initial guess.
 ExpMin= 7.10D-03 ExpMax= 3.53D+04 ExpMxC= 5.30D+03 IAcc=3 IRadAn=         5 AccDes= 0.00D+00
 HarFok:  IExCor= 402 AccDes= 0.00D+00 IRadAn=         5 IDoV=1
 ScaDFX=  1.000000  1.000000  1.000000  1.000000
 Initial guess orbital symmetries:
       Occupied  (A) (A) (A) (A) (A) (A) (A) (A) (A) (A) (A) (A)
                 (A) (A) (A) (A) (A) (A) (A) (A) (A) (A) (A) (A)
                 (A) (A) (A) (A) (A) (A) (A) (A) (A) (A) (A) (A)
                 (A) (A) (A) (A) (A) (A) (A)
       Virtual   (A) (A) (A) (A) (A) (A) (A) (A) (A) (A) (A) (A)
                 (A) (A) (A) (A) (A) (A) (A) (A) (A) (A) (A) (A)
                 (A) (A) (A) (A) (A) (A) (A) (A) (A) (A) (A) (A)
                 (A) (A) (A) (A) (A) (A) (A) (A) (A) (A) (A) (A)
                 (A) (A) (A) (A) (A) (A) (A) (A) (A) (A) (A) (A)
                 (A) (A) (A) (A) (A) (A) (A) (A) (A) (A) (A) (A)
                 (A) (A) (A) (A) (A) (A) (A) (A) (A) (A) (A) (A)
                 (A) (A) (A) (A) (A) (A) (A) (A) (A) (A) (A) (A)
                 (A) (A) (A) (A) (A) (A) (A) (A) (A) (A) (A) (A)
                 (A) (A)
 The electronic state of the initial guess is 1-A.
 Requested convergence on RMS density matrix=1.00D-04 within 128 cycles.
 Requested convergence on MAX density matrix=1.00D-02.
 Requested convergence on             energy=1.00D-02.
 No special actions if energy rises.
 SCF Done:  E(RB+HF-LYP) =  -1997.33372460     A.U. after    6 cycles
             Convg  =    0.4409D-04             -V/T =  2.0031
             S**2   =   0.0000

 **********************************************************************

            Population analysis using the SCF density.

 **********************************************************************

 Orbital symmetries:
       Occupied  (A) (A) (A) (A) (A) (A) (A) (A) (A) (A) (A) (A)
                 (A) (A) (A) (A) (A) (A) (A) (A) (A) (A) (A) (A)
                 (A) (A) (A) (A) (A) (A) (A) (A) (A) (A) (A) (A)
                 (A) (A) (A) (A) (A) (A) (A)
       Virtual   (A) (A) (A) (A) (A) (A) (A) (A) (A) (A) (A) (A)
                 (A) (A) (A) (A) (A) (A) (A) (A) (A) (A) (A) (A)
                 (A) (A) (A) (A) (A) (A) (A) (A) (A) (A) (A) (A)
                 (A) (A) (A) (A) (A) (A) (A) (A) (A) (A) (A) (A)
                 (A) (A) (A) (A) (A) (A) (A) (A) (A) (A) (A) (A)
                 (A) (A) (A) (A) (A) (A) (A) (A) (A) (A) (A) (A)
                 (A) (A) (A) (A) (A) (A) (A) (A) (A) (A) (A) (A)
                 (A) (A) (A) (A) (A) (A) (A) (A) (A) (A) (A) (A)
                 (A) (A) (A) (A) (A) (A) (A) (A) (A) (A) (A) (A)
                 (A) (A)
 The electronic state is 1-A.
 Alpha  occ. eigenvalues -- -145.53246-145.53245 -77.30162 -19.27956 -19.27949
 Alpha  occ. eigenvalues --  -19.25604 -19.25572 -15.60093 -15.60092 -12.73308
 Alpha  occ. eigenvalues --  -12.73307 -12.73290 -12.73289 -12.73208 -12.73206
 Alpha  occ. eigenvalues --   -6.75644  -4.92084  -4.91868  -4.91424  -1.97236
 Alpha  occ. eigenvalues --   -1.97209  -1.25765  -1.24806  -1.24792  -1.24725
 Alpha  occ. eigenvalues --   -1.24725  -1.24302  -1.13927  -1.08556  -1.08251
 Alpha  occ. eigenvalues --   -0.89521  -0.67706  -0.57283  -0.52825  -0.52602
 Alpha  occ. eigenvalues --   -0.48994  -0.47945  -0.46121  -0.45763  -0.43901
 Alpha  occ. eigenvalues --   -0.40702  -0.37190  -0.34166
 Alpha virt. eigenvalues --   -0.20456  -0.19853  -0.19631  -0.14481  -0.11367
 Alpha virt. eigenvalues --   -0.11280  -0.10319  -0.09666  -0.09043  -0.07375
 Alpha virt. eigenvalues --   -0.07215  -0.06432  -0.05962  -0.05215  -0.04858
 Alpha virt. eigenvalues --   -0.04431  -0.04389  -0.04083  -0.03999  -0.03873
 Alpha virt. eigenvalues --   -0.03337  -0.02378   0.00222   0.01110   0.02012
 Alpha virt. eigenvalues --    0.02949   0.03324   0.03644   0.04211   0.05048
 Alpha virt. eigenvalues --    0.05144   0.05191   0.06782   0.07029   0.07278
 Alpha virt. eigenvalues --    0.07476   0.08123   0.08217   0.12232   0.13582
 Alpha virt. eigenvalues --    0.14151   0.14768   0.16274   0.16814   0.16922
 Alpha virt. eigenvalues --    0.18689   0.20334   0.21715   0.24407   0.26749
 Alpha virt. eigenvalues --    0.28310   0.29467   0.31797   0.32143   0.32488
 Alpha virt. eigenvalues --    0.36021   0.36750   0.40443   0.43969   0.45542
 Alpha virt. eigenvalues --    0.48015   0.56600   0.57821   0.60215   0.65646
 Alpha virt. eigenvalues --    0.71347   0.87011   0.90195   0.94378   1.03571
 Alpha virt. eigenvalues --    1.05863   1.07984   1.08399   1.12008   1.12335
 Alpha virt. eigenvalues --    1.14814   1.15164   1.17890   1.20707   1.23937
 Alpha virt. eigenvalues --    1.28615   1.38347   1.43000   1.46781   1.50562
 Alpha virt. eigenvalues --    1.50922   1.58076   1.66232   1.68012   1.70616
 Alpha virt. eigenvalues --    1.71274   1.75749   1.80026   1.81208   1.82380
 Alpha virt. eigenvalues --    1.84419   1.85979   1.86060   1.92958   2.09470
 Alpha virt. eigenvalues --    2.16197   2.16965   2.53545   2.67523   3.00300
 Alpha virt. eigenvalues --    3.38472   3.83792   3.90577   3.97506   4.05860
          Condensed to atoms (all electrons):
              1          2          3          4          5          6
     1  O    8.815236  -0.094220   0.002343  -0.085970   0.002538   0.002550
     2  P   -0.094220  14.567023  -0.019111  -0.094548  -0.004367  -0.004399
     3  Ca   0.002343  -0.019111  18.210090   0.067432   0.106038   0.105895
     4  O   -0.085970  -0.094548   0.067432   8.815320   0.002529   0.002559
     5  O    0.002538  -0.004367   0.106038   0.002529   8.515319  -0.059765
     6  O    0.002550  -0.004399   0.105895   0.002559  -0.059765   8.516061
     7  Ca   0.067466  -0.019104  -0.016663   0.002345   0.105990   0.105911
              7
     1  O    0.067466
     2  P   -0.019104
     3  Ca  -0.016663
     4  O    0.002345
     5  O    0.105990
     6  O    0.105911
     7  Ca  18.210050
 Mulliken atomic charges:
              1
     1  O   -0.709943
     2  P    0.668724
     3  Ca   1.543975
     4  O   -0.709667
     5  O   -0.668282
     6  O   -0.668812
     7  Ca   1.544004
 Sum of Mulliken charges=   1.00000
 Atomic charges with hydrogens summed into heavy atoms:
              1
     1  O   -0.709943
     2  P    0.668724
     3  Ca   1.543975
     4  O   -0.709667
     5  O   -0.668282
     6  O   -0.668812
     7  Ca   1.544004
 Sum of Mulliken charges=   1.00000
 Electronic spatial extent (au):  <R**2>=  1378.2536
 Charge=     1.0000 electrons
 Dipole moment (field-independent basis, Debye):
    X=    -3.1390    Y=     0.0017    Z=    -0.0075  Tot=     3.1390
 Quadrupole moment (field-independent basis, Debye-Ang):
   XX=   -66.5080   YY=    -8.8888   ZZ=   -58.2530
   XY=     0.0325   XZ=     0.0073   YZ=    -0.0049
 Traceless Quadrupole moment (field-independent basis, Debye-Ang):
   XX=   -21.9581   YY=    35.6611   ZZ=   -13.7031
   XY=     0.0325   XZ=     0.0073   YZ=    -0.0049
 Octapole moment (field-independent basis, Debye-Ang**2):
  XXX=     6.9415  YYY=     0.0959  ZZZ=    -0.0118  XYY=   -70.8535
  XXY=    -0.0733  XXZ=    -0.0069  XZZ=     1.4186  YZZ=    -0.0001
  YYZ=    -0.0120  XYZ=    -0.0017
 Hexadecapole moment (field-independent basis, Debye-Ang**3):
 XXXX=  -942.9851 YYYY=  -329.5189 ZZZZ=  -103.9563 XXXY=     0.1334
 XXXZ=     0.0209 YYYX=     0.1664 YYYZ=    -0.0197 ZZZX=     0.0195
 ZZZY=    -0.0074 XXYY=  -220.7339 XXZZ=  -174.4942 YYZZ=  -103.3715
 XXYZ=    -0.0082 YYXZ=     0.0042 ZZXY=     0.0322
 N-N= 6.021481479189D+02 E-N=-5.923730493783D+03  KE= 1.991110897767D+03
 Merz-Kollman atomic radii used.
 Read replacement radii for each type of atom:
 Rad(20) =   1.188000000000D+00
 Atom Element Radius
    1     8    1.40
    2    15    1.80
    3    20    1.19
    4     8    1.40
    5     8    1.40
    6     8    1.40
    7    20    1.19

 **********************************************************************

            Electrostatic Properties Using The SCF Density

 **********************************************************************

       Atomic Center    1 is at   1.441664 -1.274106 -0.000081
       Atomic Center    2 is at   2.320011 -0.001013 -0.000131
       Atomic Center    3 is at  -0.760595  1.858338 -0.000231
       Atomic Center    4 is at   1.443087  1.272694  0.000449
       Atomic Center    5 is at  -1.713889  0.000865 -0.785861
       Atomic Center    6 is at  -1.713159  0.000885  0.786519
       Atomic Center    7 is at  -0.762494 -1.857712 -0.000081
     705 points will be used for fitting atomic charges
 Fitting point charges to eletrostatic potential
 Charges from ESP fit, RMS=   0.00424 RRMS=   0.02786:
 Charge=   1.00000 Dipole=    -2.9798     0.0016    -0.0082 Tot=     2.9798
              1
     1  O   -0.755548
     2  P    0.639752
     3  Ca   1.723220
     4  O   -0.755356
     5  O   -0.787470
     6  O   -0.787830
     7  Ca   1.723233
 -----------------------------------------------------------------

              Electrostatic Properties (Atomic Units)

 -----------------------------------------------------------------
    Center     Electric         -------- Electric Field --------
               Potential          X             Y             Z
 -----------------------------------------------------------------
    1 Atom    -22.184101
    2 Atom    -53.916353
    3 Atom    -80.007957
    4 Atom    -22.184142
    5 Atom    -22.213550
    6 Atom    -22.214546
    7 Atom    -80.007951
 -----------------------------------------------------------------
 1\1\GINC-N032\SP\RB3LYP\6-31+G(d,p)\Ca2O4P1(1+)\TIMN\12-Jun-2015\0\\# 
 b3lyp/6-31+G(d,p) int=ultrafine pop=(ReadRadii,MK)\\mol_16.4.11.pdbc_p
 lusQ.out.z51562.zip.xyz\\1,1\O,0,1.44166,-1.27411,-0.00008\P,0,2.32001
 ,-0.00102,-0.00013\Ca,0,-0.76059,1.85834,-0.00023\O,0,1.44309,1.27269,
 0.00045\O,0,-1.71389,0.00087,-0.78586\O,0,-1.71316,0.00089,0.78652\Ca,
 0,-0.7625,-1.85771,-0.00008\\Version=EM64T-G03RevE.01\State=1-A\HF=-19
 97.3337246\RMSD=4.409e-05\Thermal=0.\Dipole=-1.2349639,0.0006795,-0.00
 2969\PG=C01 [X(Ca2O4P1)]\\@


 EVERYBODY NEEDS BEAUTY AS WELL AS BREAD, PLACES TO PLAY IN AND PRAY IN,
 WHERE NATURE MAY HEAL AND CHEER AND GIVE STRENGTH TO BODY AND SOUL ALIKE.

                                    -- JOHN MUIR
 Job cpu time:  0 days  0 hours  0 minutes 44.7 seconds.
 File lengths (MBytes):  RWF=     28 Int=      0 D2E=      0 Chk=     10 Scr=      1
 Normal termination of Gaussian 03 at Fri Jun 12 17:46:17 2015.
