 Entering Gaussian System, Link 0=/home/timn/tmp/g03.e01/g03
 Input=mol_17.27.3.pdbccc_plusQ.z58506.zip.xyz.gjf
 Output=mol_17.27.3.pdbccc_plusQ.z58506.zip.xyz.out
 Initial command:
 /home/timn/tmp/g03.e01/l1.exe /home/timn/tmp/g03.e01/Gau-15311.inp -scrdir=/home/timn/tmp/g03.e01/
 Default is to use a total of   2 processors:
                                2 via shared-memory
                                1 via Linda
 Entering Link 1 = /home/timn/tmp/g03.e01/l1.exe PID=     15314.
  
 Copyright (c) 1988,1990,1992,1993,1995,1998,2003,2004,2007, Gaussian, Inc.
                  All Rights Reserved.
  
 This is the Gaussian(R) 03 program.  It is based on the
 the Gaussian(R) 98 system (copyright 1998, Gaussian, Inc.),
 the Gaussian(R) 94 system (copyright 1995, Gaussian, Inc.),
 the Gaussian 92(TM) system (copyright 1992, Gaussian, Inc.),
 the Gaussian 90(TM) system (copyright 1990, Gaussian, Inc.),
 the Gaussian 88(TM) system (copyright 1988, Gaussian, Inc.),
 the Gaussian 86(TM) system (copyright 1986, Carnegie Mellon
 University), and the Gaussian 82(TM) system (copyright 1983,
 Carnegie Mellon University). Gaussian is a federally registered
 trademark of Gaussian, Inc.
  
 This software contains proprietary and confidential information,
 including trade secrets, belonging to Gaussian, Inc.
  
 This software is provided under written license and may be
 used, copied, transmitted, or stored only in accord with that
 written license.
  
 The following legend is applicable only to US Government
 contracts under FAR:
  
                    RESTRICTED RIGHTS LEGEND
  
 Use, reproduction and disclosure by the US Government is
 subject to restrictions as set forth in subparagraphs (a)
 and (c) of the Commercial Computer Software - Restricted
 Rights clause in FAR 52.227-19.
  
 Gaussian, Inc.
 340 Quinnipiac St., Bldg. 40, Wallingford CT 06492
  
  
 ---------------------------------------------------------------
 Warning -- This program may not be used in any manner that
 competes with the business of Gaussian, Inc. or will provide
 assistance to any competitor of Gaussian, Inc.  The licensee
 of this program is prohibited from giving any competitor of
 Gaussian, Inc. access to this program.  By using this program,
 the user acknowledges that Gaussian, Inc. is engaged in the
 business of creating and licensing software in the field of
 computational chemistry and represents and warrants to the
 licensee that it is not a competitor of Gaussian, Inc. and that
 it will not use this program in any manner prohibited above.
 ---------------------------------------------------------------
  

 Cite this work as:
 Gaussian 03, Revision E.01,
 M. J. Frisch, G. W. Trucks, H. B. Schlegel, G. E. Scuseria, 
 M. A. Robb, J. R. Cheeseman, J. A. Montgomery, Jr., T. Vreven, 
 K. N. Kudin, J. C. Burant, J. M. Millam, S. S. Iyengar, J. Tomasi, 
 V. Barone, B. Mennucci, M. Cossi, G. Scalmani, N. Rega, 
 G. A. Petersson, H. Nakatsuji, M. Hada, M. Ehara, K. Toyota, 
 R. Fukuda, J. Hasegawa, M. Ishida, T. Nakajima, Y. Honda, O. Kitao, 
 H. Nakai, M. Klene, X. Li, J. E. Knox, H. P. Hratchian, J. B. Cross, 
 V. Bakken, C. Adamo, J. Jaramillo, R. Gomperts, R. E. Stratmann, 
 O. Yazyev, A. J. Austin, R. Cammi, C. Pomelli, J. W. Ochterski, 
 P. Y. Ayala, K. Morokuma, G. A. Voth, P. Salvador, J. J. Dannenberg, 
 V. G. Zakrzewski, S. Dapprich, A. D. Daniels, M. C. Strain, 
 O. Farkas, D. K. Malick, A. D. Rabuck, K. Raghavachari, 
 J. B. Foresman, J. V. Ortiz, Q. Cui, A. G. Baboul, S. Clifford, 
 J. Cioslowski, B. B. Stefanov, G. Liu, A. Liashenko, P. Piskorz, 
 I. Komaromi, R. L. Martin, D. J. Fox, T. Keith, M. A. Al-Laham, 
 C. Y. Peng, A. Nanayakkara, M. Challacombe, P. M. W. Gill, 
 B. Johnson, W. Chen, M. W. Wong, C. Gonzalez, and J. A. Pople, 
 Gaussian, Inc., Wallingford CT, 2004.
 
 ******************************************
 Gaussian 03:  EM64T-G03RevE.01 11-Sep-2007
                12-Jun-2015 
 ******************************************
 %nproc=2
 Will use up to    2 processors via shared memory.
 Default route:  MP2=Direct MaxDisk=2000MB
 ----------------------------------------------------
 # b3lyp/6-31+G(d,p) int=ultrafine pop=(ReadRadii,MK)
 ----------------------------------------------------

 Warning!  SCF SP cutoffs with diffuse functions may be unreliable.
 Consider SCF=Tight

 1/38=1/1;
 2/17=6,18=5,40=1/2;
 3/5=1,6=6,7=111,11=2,16=1,25=1,30=1,74=-5,75=5/1,2,3;
 4//1;
 5/5=2,32=1,38=5/2;
 6/7=2,8=2,9=2,10=2,15=8,20=101,28=1/1,2;
 99/5=1,9=1/99;
 ---------------------------------------
 mol_17.27.3.pdbccc_plusQ.z58506.zip.xyz
 ---------------------------------------
 Symbolic Z-matrix:
 Charge =  1 Multiplicity = 1
 O                     2.8702   -0.82542  -0.76637 
 O                     2.87     -0.82541   0.76665 
 P                     2.87234   0.75684   0.00012 
 O                     1.35776   1.11325  -0.00007 
 Ca                    0.60875  -1.39067  -0.00016 
 O                    -1.28735  -0.16483  -0.00017 
 O                    -1.65144  -1.6618   -0.00008 
 Ca                   -3.57397  -0.30588   0.00017 
 Ca                   -0.85272   2.0746   -0.00009 
 
                          Input orientation:                          
 ---------------------------------------------------------------------
 Center     Atomic     Atomic              Coordinates (Angstroms)
 Number     Number      Type              X           Y           Z
 ---------------------------------------------------------------------
    1          8             0        2.870200   -0.825420   -0.766370
    2          8             0        2.870000   -0.825410    0.766650
    3         15             0        2.872340    0.756840    0.000120
    4          8             0        1.357760    1.113250   -0.000070
    5         20             0        0.608750   -1.390670   -0.000160
    6          8             0       -1.287350   -0.164830   -0.000170
    7          8             0       -1.651440   -1.661800   -0.000080
    8         20             0       -3.573970   -0.305880    0.000170
    9         20             0       -0.852720    2.074600   -0.000090
 ---------------------------------------------------------------------
                    Distance matrix (angstroms):
                    1          2          3          4          5
     1  O    0.000000
     2  O    1.533020   0.000000
     3  P    1.758141   1.758149   0.000000
     4  O    2.575487   2.575487   1.555950   0.000000
     5  Ca   2.453720   2.453725   3.120199   2.613548   0.000000
     6  O    4.278862   4.278778   4.260575   2.937702   2.257848
     7  O    4.661755   4.661635   5.129757   4.093432   2.276394
     8  Ca   6.510363   6.510158   6.533321   5.131851   4.321101
     9  Ca   4.780945   4.780857   3.951274   2.410480   3.760850
                    6          7          8          9
     6  O    0.000000
     7  O    1.540611   0.000000
     8  Ca   2.290966   2.352582   0.000000
     9  Ca   2.281217   3.820816   3.615506   0.000000
 Stoichiometry    Ca3O5P(1+)
 Framework group  C1[X(Ca3O5P)]
 Deg. of freedom    21
 Full point group                 C1
 Largest Abelian subgroup         C1      NOp   1
 Largest concise Abelian subgroup C1      NOp   1
                         Standard orientation:                         
 ---------------------------------------------------------------------
 Center     Atomic     Atomic              Coordinates (Angstroms)
 Number     Number      Type              X           Y           Z
 ---------------------------------------------------------------------
    1          8             0        2.870202   -0.825423   -0.766369
    2          8             0        2.870002   -0.825413    0.766651
    3         15             0        2.872344    0.756837    0.000121
    4          8             0        1.357764    1.113249   -0.000069
    5         20             0        0.608751   -1.390670   -0.000159
    6          8             0       -1.287347   -0.164828   -0.000169
    7          8             0       -1.651439   -1.661797   -0.000079
    8         20             0       -3.573967   -0.305875    0.000171
    9         20             0       -0.852715    2.074602   -0.000089
 ---------------------------------------------------------------------
 Rotational constants (GHZ):      1.3448958      0.4240610      0.3303249
 Standard basis: 6-31+G(d,p) (6D, 7F)
 There are   199 symmetry adapted basis functions of A   symmetry.
 Integral buffers will be    131072 words long.
 Raffenetti 2 integral format.
 Two-electron integral symmetry is turned on.
   199 basis functions,   456 primitive gaussians,   199 cartesian basis functions
    57 alpha electrons       57 beta electrons
       nuclear repulsion energy       961.4162138149 Hartrees.
 NAtoms=    9 NActive=    9 NUniq=    9 SFac= 7.50D-01 NAtFMM=   80 NAOKFM=F Big=F
 One-electron integrals computed using PRISM.
 NBasis=   199 RedAO= T  NBF=   199
 NBsUse=   199 1.00D-06 NBFU=   199
 Harris functional with IExCor=  402 diagonalized for initial guess.
 ExpMin= 7.10D-03 ExpMax= 3.53D+04 ExpMxC= 5.30D+03 IAcc=3 IRadAn=         5 AccDes= 0.00D+00
 HarFok:  IExCor= 402 AccDes= 0.00D+00 IRadAn=         5 IDoV=1
 ScaDFX=  1.000000  1.000000  1.000000  1.000000
 Initial guess orbital symmetries:
       Occupied  (A) (A) (A) (A) (A) (A) (A) (A) (A) (A) (A) (A)
                 (A) (A) (A) (A) (A) (A) (A) (A) (A) (A) (A) (A)
                 (A) (A) (A) (A) (A) (A) (A) (A) (A) (A) (A) (A)
                 (A) (A) (A) (A) (A) (A) (A) (A) (A) (A) (A) (A)
                 (A) (A) (A) (A) (A) (A) (A) (A) (A)
       Virtual   (A) (A) (A) (A) (A) (A) (A) (A) (A) (A) (A) (A)
                 (A) (A) (A) (A) (A) (A) (A) (A) (A) (A) (A) (A)
                 (A) (A) (A) (A) (A) (A) (A) (A) (A) (A) (A) (A)
                 (A) (A) (A) (A) (A) (A) (A) (A) (A) (A) (A) (A)
                 (A) (A) (A) (A) (A) (A) (A) (A) (A) (A) (A) (A)
                 (A) (A) (A) (A) (A) (A) (A) (A) (A) (A) (A) (A)
                 (A) (A) (A) (A) (A) (A) (A) (A) (A) (A) (A) (A)
                 (A) (A) (A) (A) (A) (A) (A) (A) (A) (A) (A) (A)
                 (A) (A) (A) (A) (A) (A) (A) (A) (A) (A) (A) (A)
                 (A) (A) (A) (A) (A) (A) (A) (A) (A) (A) (A) (A)
                 (A) (A) (A) (A) (A) (A) (A) (A) (A) (A) (A) (A)
                 (A) (A) (A) (A) (A) (A) (A) (A) (A) (A)
 The electronic state of the initial guess is 1-A.
 Requested convergence on RMS density matrix=1.00D-04 within 128 cycles.
 Requested convergence on MAX density matrix=1.00D-02.
 Requested convergence on             energy=1.00D-02.
 No special actions if energy rises.
 EnCoef did     9 forward-backward iterations
 EnCoef did    16 forward-backward iterations
 EnCoef did     9 forward-backward iterations
 EnCoef did     5 forward-backward iterations
 EnCoef did     3 forward-backward iterations
 EnCoef did     6 forward-backward iterations
 SCF Done:  E(RB+HF-LYP) =  -2750.03001909     A.U. after   13 cycles
             Convg  =    0.5480D-04             -V/T =  2.0029
             S**2   =   0.0000

 **********************************************************************

            Population analysis using the SCF density.

 **********************************************************************

 Orbital symmetries:
       Occupied  (A) (A) (A) (A) (A) (A) (A) (A) (A) (A) (A) (A)
                 (A) (A) (A) (A) (A) (A) (A) (A) (A) (A) (A) (A)
                 (A) (A) (A) (A) (A) (A) (A) (A) (A) (A) (A) (A)
                 (A) (A) (A) (A) (A) (A) (A) (A) (A) (A) (A) (A)
                 (A) (A) (A) (A) (A) (A) (A) (A) (A)
       Virtual   (A) (A) (A) (A) (A) (A) (A) (A) (A) (A) (A) (A)
                 (A) (A) (A) (A) (A) (A) (A) (A) (A) (A) (A) (A)
                 (A) (A) (A) (A) (A) (A) (A) (A) (A) (A) (A) (A)
                 (A) (A) (A) (A) (A) (A) (A) (A) (A) (A) (A) (A)
                 (A) (A) (A) (A) (A) (A) (A) (A) (A) (A) (A) (A)
                 (A) (A) (A) (A) (A) (A) (A) (A) (A) (A) (A) (A)
                 (A) (A) (A) (A) (A) (A) (A) (A) (A) (A) (A) (A)
                 (A) (A) (A) (A) (A) (A) (A) (A) (A) (A) (A) (A)
                 (A) (A) (A) (A) (A) (A) (A) (A) (A) (A) (A) (A)
                 (A) (A) (A) (A) (A) (A) (A) (A) (A) (A) (A) (A)
                 (A) (A) (A) (A) (A) (A) (A) (A) (A) (A) (A) (A)
                 (A) (A) (A) (A) (A) (A) (A) (A) (A) (A)
 The electronic state is 1-A.
 Alpha  occ. eigenvalues -- -145.52660-145.51807-145.51042 -77.34130 -19.37095
 Alpha  occ. eigenvalues --  -19.37089 -19.29765 -19.27656 -19.27431 -15.59457
 Alpha  occ. eigenvalues --  -15.58668 -15.57990 -12.72720 -12.72669 -12.72538
 Alpha  occ. eigenvalues --  -12.71880 -12.71831 -12.71786 -12.71205 -12.71159
 Alpha  occ. eigenvalues --  -12.71079  -6.79404  -4.95765  -4.95683  -4.95168
 Alpha  occ. eigenvalues --   -1.96588  -1.95712  -1.95077  -1.28636  -1.24671
 Alpha  occ. eigenvalues --   -1.24375  -1.23572  -1.23205  -1.23074  -1.22944
 Alpha  occ. eigenvalues --   -1.22618  -1.22485  -1.22274  -1.13203  -1.11129
 Alpha  occ. eigenvalues --   -1.01154  -0.91462  -0.73937  -0.61850  -0.60355
 Alpha  occ. eigenvalues --   -0.59028  -0.54793  -0.52812  -0.50902  -0.50000
 Alpha  occ. eigenvalues --   -0.48649  -0.47683  -0.43854  -0.43413  -0.39135
 Alpha  occ. eigenvalues --   -0.35543  -0.25626
 Alpha virt. eigenvalues --   -0.20407  -0.19956  -0.17740  -0.17387  -0.14541
 Alpha virt. eigenvalues --   -0.13854  -0.12941  -0.11525  -0.11400  -0.10539
 Alpha virt. eigenvalues --   -0.10435  -0.08991  -0.07937  -0.07710  -0.07102
 Alpha virt. eigenvalues --   -0.06660  -0.06004  -0.05568  -0.05415  -0.04849
 Alpha virt. eigenvalues --   -0.04619  -0.04616  -0.04292  -0.04278  -0.03641
 Alpha virt. eigenvalues --   -0.03362  -0.03239  -0.03076  -0.02549  -0.01949
 Alpha virt. eigenvalues --   -0.00064   0.00911   0.01419   0.02003   0.02232
 Alpha virt. eigenvalues --    0.03002   0.03390   0.03685   0.04001   0.04380
 Alpha virt. eigenvalues --    0.05262   0.05833   0.06181   0.06611   0.07171
 Alpha virt. eigenvalues --    0.07222   0.07399   0.07887   0.08163   0.08177
 Alpha virt. eigenvalues --    0.09274   0.10134   0.10618   0.11331   0.11816
 Alpha virt. eigenvalues --    0.13166   0.14092   0.15951   0.16200   0.16774
 Alpha virt. eigenvalues --    0.17457   0.18484   0.18984   0.21036   0.22999
 Alpha virt. eigenvalues --    0.23165   0.24973   0.26757   0.28049   0.28451
 Alpha virt. eigenvalues --    0.28806   0.29660   0.31224   0.33088   0.35725
 Alpha virt. eigenvalues --    0.37561   0.38044   0.38888   0.39371   0.41430
 Alpha virt. eigenvalues --    0.45719   0.54296   0.54414   0.56705   0.61667
 Alpha virt. eigenvalues --    0.69946   0.75125   0.81541   0.89253   0.93830
 Alpha virt. eigenvalues --    1.00466   1.03802   1.04758   1.06960   1.09375
 Alpha virt. eigenvalues --    1.09747   1.10120   1.11233   1.11881   1.13453
 Alpha virt. eigenvalues --    1.16842   1.18407   1.25303   1.26686   1.32029
 Alpha virt. eigenvalues --    1.34386   1.39264   1.44824   1.46201   1.46784
 Alpha virt. eigenvalues --    1.49894   1.50583   1.54549   1.60754   1.64267
 Alpha virt. eigenvalues --    1.66054   1.66257   1.67639   1.70557   1.70666
 Alpha virt. eigenvalues --    1.75524   1.76640   1.77570   1.83357   1.87431
 Alpha virt. eigenvalues --    1.91343   1.95890   1.97945   2.12184   2.17190
 Alpha virt. eigenvalues --    2.19827   2.24257   2.30361   2.61366   2.98941
 Alpha virt. eigenvalues --    3.03143   3.43755   3.84397   3.89238   4.02690
 Alpha virt. eigenvalues --    4.08700   4.16420
          Condensed to atoms (all electrons):
              1          2          3          4          5          6
     1  O    8.228872   0.020575   0.075696  -0.006700   0.051512   0.000388
     2  O    0.020575   8.228883   0.075714  -0.006720   0.051511   0.000386
     3  P    0.075696   0.075714  14.168432  -0.098883  -0.033844  -0.006279
     4  O   -0.006700  -0.006720  -0.098883   8.918954   0.016195   0.002898
     5  Ca   0.051512   0.051511  -0.033844   0.016195  18.268347   0.060782
     6  O    0.000388   0.000386  -0.006279   0.002898   0.060782   8.864228
     7  O   -0.000776  -0.000773   0.002911  -0.001136   0.124685  -0.077831
     8  Ca   0.001139   0.001144   0.003291  -0.011922   0.010906  -0.156681
     9  Ca  -0.003717  -0.003721  -0.018413  -0.047392   0.030689  -0.145301
              7          8          9
     1  O   -0.000776   0.001139  -0.003717
     2  O   -0.000773   0.001144  -0.003721
     3  P    0.002911   0.003291  -0.018413
     4  O   -0.001136  -0.011922  -0.047392
     5  Ca   0.124685   0.010906   0.030689
     6  O   -0.077831  -0.156681  -0.145301
     7  O    8.520533   0.092123   0.012711
     8  Ca   0.092123  18.923973   0.349080
     9  Ca   0.012711   0.349080  19.149290
 Mulliken atomic charges:
              1
     1  O   -0.366988
     2  O   -0.366998
     3  P    0.831375
     4  O   -0.765293
     5  Ca   1.419217
     6  O   -0.542591
     7  O   -0.672445
     8  Ca   0.786949
     9  Ca   0.676775
 Sum of Mulliken charges=   1.00000
 Atomic charges with hydrogens summed into heavy atoms:
              1
     1  O   -0.366988
     2  O   -0.366998
     3  P    0.831375
     4  O   -0.765293
     5  Ca   1.419217
     6  O   -0.542591
     7  O   -0.672445
     8  Ca   0.786949
     9  Ca   0.676775
 Sum of Mulliken charges=   1.00000
 Electronic spatial extent (au):  <R**2>=  2910.6584
 Charge=     1.0000 electrons
 Dipole moment (field-independent basis, Debye):
    X=    -3.3547    Y=    -1.2866    Z=    -0.0005  Tot=     3.5929
 Quadrupole moment (field-independent basis, Debye-Ang):
   XX=   -60.1076   YY=   -68.0824   ZZ=   -85.6533
   XY=     7.5663   XZ=    -0.0027   YZ=     0.0000
 Traceless Quadrupole moment (field-independent basis, Debye-Ang):
   XX=    11.1735   YY=     3.1987   ZZ=   -14.3722
   XY=     7.5663   XZ=    -0.0027   YZ=     0.0000
 Octapole moment (field-independent basis, Debye-Ang**2):
  XXX=   -97.1308  YYY=   -30.0534  ZZZ=    -0.0054  XYY=    33.6044
  XXY=   -40.5700  XXZ=     0.0043  XZZ=    19.4943  YZZ=   -15.1341
  YYZ=    -0.0062  XYZ=     0.0068
 Hexadecapole moment (field-independent basis, Debye-Ang**3):
 XXXX= -2410.3456 YYYY=  -861.1622 ZZZZ=  -193.3682 XXXY=   310.1228
 XXXZ=    -0.0196 YYYX=    24.7496 YYYZ=    -0.0028 ZZZX=     0.0037
 ZZZY=     0.0011 XXYY=  -703.4679 XXZZ=  -527.2578 YYZZ=  -192.6098
 XXYZ=    -0.0082 YYXZ=     0.0001 ZZXY=    28.3170
 N-N= 9.614162138149D+02 E-N=-8.418498390147D+03  KE= 2.742136101244D+03
 Merz-Kollman atomic radii used.
 Read replacement radii for each type of atom:
 Rad(20) =   1.188000000000D+00
 Atom Element Radius
    1     8    1.40
    2     8    1.40
    3    15    1.80
    4     8    1.40
    5    20    1.19
    6     8    1.40
    7     8    1.40
    8    20    1.19
    9    20    1.19

 **********************************************************************

            Electrostatic Properties Using The SCF Density

 **********************************************************************

       Atomic Center    1 is at   2.870202 -0.825423 -0.766369
       Atomic Center    2 is at   2.870002 -0.825413  0.766651
       Atomic Center    3 is at   2.872344  0.756837  0.000121
       Atomic Center    4 is at   1.357764  1.113249 -0.000069
       Atomic Center    5 is at   0.608751 -1.390670 -0.000159
       Atomic Center    6 is at  -1.287347 -0.164828 -0.000169
       Atomic Center    7 is at  -1.651439 -1.661797 -0.000079
       Atomic Center    8 is at  -3.573967 -0.305875  0.000171
       Atomic Center    9 is at  -0.852715  2.074602 -0.000089
     821 points will be used for fitting atomic charges
 Fitting point charges to eletrostatic potential
 Charges from ESP fit, RMS=   0.02429 RRMS=   0.15836:
 Charge=   1.00000 Dipole=    -8.3360     1.5241    -0.0001 Tot=     8.4742
              1
     1  O   -0.282071
     2  O   -0.282089
     3  P    0.134889
     4  O   -0.048198
     5  Ca   1.528220
     6  O   -1.011012
     7  O   -0.457301
     8  Ca   0.814545
     9  Ca   0.603018
 -----------------------------------------------------------------

              Electrostatic Properties (Atomic Units)

 -----------------------------------------------------------------
    Center     Electric         -------- Electric Field --------
               Potential          X             Y             Z
 -----------------------------------------------------------------
    1 Atom    -22.104074
    2 Atom    -22.104070
    3 Atom    -53.876795
    4 Atom    -22.165666
    5 Atom    -80.013307
    6 Atom    -22.193072
    7 Atom    -22.196371
    8 Atom    -80.032757
    9 Atom    -80.024334
 -----------------------------------------------------------------
 1\1\GINC-N030\SP\RB3LYP\6-31+G(d,p)\Ca3O5P1(1+)\TIMN\12-Jun-2015\0\\# 
 b3lyp/6-31+G(d,p) int=ultrafine pop=(ReadRadii,MK)\\mol_17.27.3.pdbccc
 _plusQ.z58506.zip.xyz\\1,1\O,0,2.8702,-0.82542,-0.76637\O,0,2.87,-0.82
 541,0.76665\P,0,2.87234,0.75684,0.00012\O,0,1.35776,1.11325,-0.00007\C
 a,0,0.60875,-1.39067,-0.00016\O,0,-1.28735,-0.16483,-0.00017\O,0,-1.65
 144,-1.6618,-0.00008\Ca,0,-3.57397,-0.30588,0.00017\Ca,0,-0.85272,2.07
 46,-0.00009\\Version=EM64T-G03RevE.01\State=1-A\HF=-2750.0300191\RMSD=
 5.480e-05\Thermal=0.\Dipole=-1.3198265,-0.5061964,-0.0002092\PG=C01 [X
 (Ca3O5P1)]\\@


 "TIGER, TIGER BURNING BRIGHT
 IN THE FOREST OF THE NIGHT.
 WHAT IMMORTAL HAND OR EYE
 CAN FRAME THY FEARFUL SYMMETRYE?"
                     - WILLIAM BLAKE
 Job cpu time:  0 days  0 hours  3 minutes  2.1 seconds.
 File lengths (MBytes):  RWF=     36 Int=      0 D2E=      0 Chk=     11 Scr=      1
 Normal termination of Gaussian 03 at Fri Jun 12 18:07:24 2015.
