 Entering Gaussian System, Link 0=/home/timn/tmp/g03.e01/g03
 Input=mol_17.29.15.pdbccc_plusQ.z58595.zip.xyz.gjf
 Output=mol_17.29.15.pdbccc_plusQ.z58595.zip.xyz.out
 Initial command:
 /home/timn/tmp/g03.e01/l1.exe /home/timn/tmp/g03.e01/Gau-13837.inp -scrdir=/home/timn/tmp/g03.e01/
 Default is to use a total of   2 processors:
                                2 via shared-memory
                                1 via Linda
 Entering Link 1 = /home/timn/tmp/g03.e01/l1.exe PID=     13838.
  
 Copyright (c) 1988,1990,1992,1993,1995,1998,2003,2004,2007, Gaussian, Inc.
                  All Rights Reserved.
  
 This is the Gaussian(R) 03 program.  It is based on the
 the Gaussian(R) 98 system (copyright 1998, Gaussian, Inc.),
 the Gaussian(R) 94 system (copyright 1995, Gaussian, Inc.),
 the Gaussian 92(TM) system (copyright 1992, Gaussian, Inc.),
 the Gaussian 90(TM) system (copyright 1990, Gaussian, Inc.),
 the Gaussian 88(TM) system (copyright 1988, Gaussian, Inc.),
 the Gaussian 86(TM) system (copyright 1986, Carnegie Mellon
 University), and the Gaussian 82(TM) system (copyright 1983,
 Carnegie Mellon University). Gaussian is a federally registered
 trademark of Gaussian, Inc.
  
 This software contains proprietary and confidential information,
 including trade secrets, belonging to Gaussian, Inc.
  
 This software is provided under written license and may be
 used, copied, transmitted, or stored only in accord with that
 written license.
  
 The following legend is applicable only to US Government
 contracts under FAR:
  
                    RESTRICTED RIGHTS LEGEND
  
 Use, reproduction and disclosure by the US Government is
 subject to restrictions as set forth in subparagraphs (a)
 and (c) of the Commercial Computer Software - Restricted
 Rights clause in FAR 52.227-19.
  
 Gaussian, Inc.
 340 Quinnipiac St., Bldg. 40, Wallingford CT 06492
  
  
 ---------------------------------------------------------------
 Warning -- This program may not be used in any manner that
 competes with the business of Gaussian, Inc. or will provide
 assistance to any competitor of Gaussian, Inc.  The licensee
 of this program is prohibited from giving any competitor of
 Gaussian, Inc. access to this program.  By using this program,
 the user acknowledges that Gaussian, Inc. is engaged in the
 business of creating and licensing software in the field of
 computational chemistry and represents and warrants to the
 licensee that it is not a competitor of Gaussian, Inc. and that
 it will not use this program in any manner prohibited above.
 ---------------------------------------------------------------
  

 Cite this work as:
 Gaussian 03, Revision E.01,
 M. J. Frisch, G. W. Trucks, H. B. Schlegel, G. E. Scuseria, 
 M. A. Robb, J. R. Cheeseman, J. A. Montgomery, Jr., T. Vreven, 
 K. N. Kudin, J. C. Burant, J. M. Millam, S. S. Iyengar, J. Tomasi, 
 V. Barone, B. Mennucci, M. Cossi, G. Scalmani, N. Rega, 
 G. A. Petersson, H. Nakatsuji, M. Hada, M. Ehara, K. Toyota, 
 R. Fukuda, J. Hasegawa, M. Ishida, T. Nakajima, Y. Honda, O. Kitao, 
 H. Nakai, M. Klene, X. Li, J. E. Knox, H. P. Hratchian, J. B. Cross, 
 V. Bakken, C. Adamo, J. Jaramillo, R. Gomperts, R. E. Stratmann, 
 O. Yazyev, A. J. Austin, R. Cammi, C. Pomelli, J. W. Ochterski, 
 P. Y. Ayala, K. Morokuma, G. A. Voth, P. Salvador, J. J. Dannenberg, 
 V. G. Zakrzewski, S. Dapprich, A. D. Daniels, M. C. Strain, 
 O. Farkas, D. K. Malick, A. D. Rabuck, K. Raghavachari, 
 J. B. Foresman, J. V. Ortiz, Q. Cui, A. G. Baboul, S. Clifford, 
 J. Cioslowski, B. B. Stefanov, G. Liu, A. Liashenko, P. Piskorz, 
 I. Komaromi, R. L. Martin, D. J. Fox, T. Keith, M. A. Al-Laham, 
 C. Y. Peng, A. Nanayakkara, M. Challacombe, P. M. W. Gill, 
 B. Johnson, W. Chen, M. W. Wong, C. Gonzalez, and J. A. Pople, 
 Gaussian, Inc., Wallingford CT, 2004.
 
 ******************************************
 Gaussian 03:  EM64T-G03RevE.01 11-Sep-2007
                12-Jun-2015 
 ******************************************
 %nproc=2
 Will use up to    2 processors via shared memory.
 Default route:  MP2=Direct MaxDisk=2000MB
 ----------------------------------------------------
 # b3lyp/6-31+G(d,p) int=ultrafine pop=(ReadRadii,MK)
 ----------------------------------------------------

 Warning!  SCF SP cutoffs with diffuse functions may be unreliable.
 Consider SCF=Tight

 1/38=1/1;
 2/17=6,18=5,40=1/2;
 3/5=1,6=6,7=111,11=2,16=1,25=1,30=1,74=-5,75=5/1,2,3;
 4//1;
 5/5=2,32=1,38=5/2;
 6/7=2,8=2,9=2,10=2,15=8,20=101,28=1/1,2;
 99/5=1,9=1/99;
 ----------------------------------------
 mol_17.29.15.pdbccc_plusQ.z58595.zip.xyz
 ----------------------------------------
 Symbolic Z-matrix:
 Charge =  1 Multiplicity = 1
 O                    -2.47508   1.0374   -0.00089 
 O                     1.20043   0.90778   0.00603 
 Ca                   -0.52986   2.18649   0.00436 
 P                    -2.78571  -0.46003  -0.00383 
 O                    -4.15929  -0.983    -0.01121 
 O                    -1.53446  -1.31403   0.00163 
 Ca                    0.79988  -1.47256   0.01112 
 O                     2.95757  -1.63962  -0.00579 
 Ca                    3.4236    0.42768  -0.00852 
 
                          Input orientation:                          
 ---------------------------------------------------------------------
 Center     Atomic     Atomic              Coordinates (Angstroms)
 Number     Number      Type              X           Y           Z
 ---------------------------------------------------------------------
    1          8             0       -2.475080    1.037400   -0.000890
    2          8             0        1.200430    0.907780    0.006030
    3         20             0       -0.529860    2.186490    0.004360
    4         15             0       -2.785710   -0.460030   -0.003830
    5          8             0       -4.159290   -0.983000   -0.011210
    6          8             0       -1.534460   -1.314030    0.001630
    7         20             0        0.799880   -1.472560    0.011120
    8          8             0        2.957570   -1.639620   -0.005790
    9         20             0        3.423600    0.427680   -0.008520
 ---------------------------------------------------------------------
                    Distance matrix (angstroms):
                    1          2          3          4          5
     1  O    0.000000
     2  O    3.677801   0.000000
     3  Ca   2.259273   2.151512   0.000000
     4  P    1.529312   4.214299   3.477498   0.000000
     5  O    2.630340   5.683480   4.818576   1.469787   0.000000
     6  O    2.532587   3.523646   3.641822   1.514917   2.645653
     7  Ca   4.126185   2.413811   3.893186   3.725842   4.983326
     8  O    6.056414   3.094661   5.177006   5.863165   7.147089
     9  Ca   5.930113   2.274465   4.327057   6.272446   7.712992
                    6          7          8          9
     6  O    0.000000
     7  Ca   2.339736   0.000000
     8  O    4.503820   2.164214   0.000000
     9  Ca   5.255094   3.239630   2.119179   0.000000
 Stoichiometry    Ca3O5P(1+)
 Framework group  C1[X(Ca3O5P)]
 Deg. of freedom    21
 Full point group                 C1
 Largest Abelian subgroup         C1      NOp   1
 Largest concise Abelian subgroup C1      NOp   1
                         Standard orientation:                         
 ---------------------------------------------------------------------
 Center     Atomic     Atomic              Coordinates (Angstroms)
 Number     Number      Type              X           Y           Z
 ---------------------------------------------------------------------
    1          8             0       -2.475080    1.037401   -0.000889
    2          8             0        1.200429    0.907779    0.006031
    3         20             0       -0.529860    2.186490    0.004361
    4         15             0       -2.785711   -0.460029   -0.003829
    5          8             0       -4.159291   -0.982998   -0.011209
    6          8             0       -1.534462   -1.314029    0.001631
    7         20             0        0.799878   -1.472560    0.011121
    8          8             0        2.957568   -1.639621   -0.005789
    9         20             0        3.423599    0.427678   -0.008519
 ---------------------------------------------------------------------
 Rotational constants (GHZ):      1.2385250      0.3826177      0.2923174
 Standard basis: 6-31+G(d,p) (6D, 7F)
 There are   199 symmetry adapted basis functions of A   symmetry.
 Integral buffers will be    131072 words long.
 Raffenetti 2 integral format.
 Two-electron integral symmetry is turned on.
   199 basis functions,   456 primitive gaussians,   199 cartesian basis functions
    57 alpha electrons       57 beta electrons
       nuclear repulsion energy       927.8061372412 Hartrees.
 NAtoms=    9 NActive=    9 NUniq=    9 SFac= 7.50D-01 NAtFMM=   80 NAOKFM=F Big=F
 One-electron integrals computed using PRISM.
 NBasis=   199 RedAO= T  NBF=   199
 NBsUse=   199 1.00D-06 NBFU=   199
 Harris functional with IExCor=  402 diagonalized for initial guess.
 ExpMin= 7.10D-03 ExpMax= 3.53D+04 ExpMxC= 5.30D+03 IAcc=3 IRadAn=         5 AccDes= 0.00D+00
 HarFok:  IExCor= 402 AccDes= 0.00D+00 IRadAn=         5 IDoV=1
 ScaDFX=  1.000000  1.000000  1.000000  1.000000
 Initial guess orbital symmetries:
       Occupied  (A) (A) (A) (A) (A) (A) (A) (A) (A) (A) (A) (A)
                 (A) (A) (A) (A) (A) (A) (A) (A) (A) (A) (A) (A)
                 (A) (A) (A) (A) (A) (A) (A) (A) (A) (A) (A) (A)
                 (A) (A) (A) (A) (A) (A) (A) (A) (A) (A) (A) (A)
                 (A) (A) (A) (A) (A) (A) (A) (A) (A)
       Virtual   (A) (A) (A) (A) (A) (A) (A) (A) (A) (A) (A) (A)
                 (A) (A) (A) (A) (A) (A) (A) (A) (A) (A) (A) (A)
                 (A) (A) (A) (A) (A) (A) (A) (A) (A) (A) (A) (A)
                 (A) (A) (A) (A) (A) (A) (A) (A) (A) (A) (A) (A)
                 (A) (A) (A) (A) (A) (A) (A) (A) (A) (A) (A) (A)
                 (A) (A) (A) (A) (A) (A) (A) (A) (A) (A) (A) (A)
                 (A) (A) (A) (A) (A) (A) (A) (A) (A) (A) (A) (A)
                 (A) (A) (A) (A) (A) (A) (A) (A) (A) (A) (A) (A)
                 (A) (A) (A) (A) (A) (A) (A) (A) (A) (A) (A) (A)
                 (A) (A) (A) (A) (A) (A) (A) (A) (A) (A) (A) (A)
                 (A) (A) (A) (A) (A) (A) (A) (A) (A) (A) (A) (A)
                 (A) (A) (A) (A) (A) (A) (A) (A) (A) (A)
 The electronic state of the initial guess is 1-A.
 Requested convergence on RMS density matrix=1.00D-04 within 128 cycles.
 Requested convergence on MAX density matrix=1.00D-02.
 Requested convergence on             energy=1.00D-02.
 No special actions if energy rises.
 EnCoef did     5 forward-backward iterations
 EnCoef did   100 forward-backward iterations
 EnCoef did     3 forward-backward iterations
 EnCoef did     2 forward-backward iterations
 EnCoef did    19 forward-backward iterations
 EnCoef did     2 forward-backward iterations
 SCF Done:  E(RB+HF-LYP) =  -2750.23671689     A.U. after   11 cycles
             Convg  =    0.5731D-04             -V/T =  2.0029
             S**2   =   0.0000

 **********************************************************************

            Population analysis using the SCF density.

 **********************************************************************

 Orbital symmetries:
       Occupied  (A) (A) (A) (A) (A) (A) (A) (A) (A) (A) (A) (A)
                 (A) (A) (A) (A) (A) (A) (A) (A) (A) (A) (A) (A)
                 (A) (A) (A) (A) (A) (A) (A) (A) (A) (A) (A) (A)
                 (A) (A) (A) (A) (A) (A) (A) (A) (A) (A) (A) (A)
                 (A) (A) (A) (A) (A) (A) (A) (A) (A)
       Virtual   (A) (A) (A) (A) (A) (A) (A) (A) (A) (A) (A) (A)
                 (A) (A) (A) (A) (A) (A) (A) (A) (A) (A) (A) (A)
                 (A) (A) (A) (A) (A) (A) (A) (A) (A) (A) (A) (A)
                 (A) (A) (A) (A) (A) (A) (A) (A) (A) (A) (A) (A)
                 (A) (A) (A) (A) (A) (A) (A) (A) (A) (A) (A) (A)
                 (A) (A) (A) (A) (A) (A) (A) (A) (A) (A) (A) (A)
                 (A) (A) (A) (A) (A) (A) (A) (A) (A) (A) (A) (A)
                 (A) (A) (A) (A) (A) (A) (A) (A) (A) (A) (A) (A)
                 (A) (A) (A) (A) (A) (A) (A) (A) (A) (A) (A) (A)
                 (A) (A) (A) (A) (A) (A) (A) (A) (A) (A) (A) (A)
                 (A) (A) (A) (A) (A) (A) (A) (A) (A) (A) (A) (A)
                 (A) (A) (A) (A) (A) (A) (A) (A) (A) (A)
 The electronic state is 1-A.
 Alpha  occ. eigenvalues -- -145.54679-145.47875-145.45485 -77.35458 -19.29881
 Alpha  occ. eigenvalues --  -19.29315 -19.27356 -19.18787 -19.11034 -15.61546
 Alpha  occ. eigenvalues --  -15.54774 -15.52423 -12.74800 -12.74741 -12.74606
 Alpha  occ. eigenvalues --  -12.68013 -12.67930 -12.67855 -12.65697 -12.65608
 Alpha  occ. eigenvalues --  -12.65462  -6.80694  -4.97306  -4.96839  -4.96745
 Alpha  occ. eigenvalues --   -1.98708  -1.92065  -1.89841  -1.26523  -1.26430
 Alpha  occ. eigenvalues --   -1.25599  -1.19919  -1.19609  -1.19061  -1.18686
 Alpha  occ. eigenvalues --   -1.17915  -1.17303  -1.16571  -1.10907  -1.10194
 Alpha  occ. eigenvalues --   -0.93296  -0.85093  -0.67386  -0.59522  -0.56372
 Alpha  occ. eigenvalues --   -0.55672  -0.50023  -0.47672  -0.47378  -0.45199
 Alpha  occ. eigenvalues --   -0.42284  -0.39522  -0.38502  -0.37238  -0.30633
 Alpha  occ. eigenvalues --   -0.29208  -0.28903
 Alpha virt. eigenvalues --   -0.22706  -0.18987  -0.17387  -0.14717  -0.14077
 Alpha virt. eigenvalues --   -0.13578  -0.12008  -0.11177  -0.11021  -0.09241
 Alpha virt. eigenvalues --   -0.08409  -0.07802  -0.07575  -0.06030  -0.05770
 Alpha virt. eigenvalues --   -0.05678  -0.05060  -0.04771  -0.04520  -0.04141
 Alpha virt. eigenvalues --   -0.03897  -0.03790  -0.03347  -0.03082  -0.03048
 Alpha virt. eigenvalues --   -0.02879  -0.01497  -0.00378   0.00181   0.00314
 Alpha virt. eigenvalues --    0.01140   0.02396   0.02930   0.03169   0.03647
 Alpha virt. eigenvalues --    0.03925   0.04534   0.05356   0.05433   0.05705
 Alpha virt. eigenvalues --    0.05866   0.06630   0.07320   0.07811   0.08976
 Alpha virt. eigenvalues --    0.09500   0.10222   0.10877   0.11189   0.11225
 Alpha virt. eigenvalues --    0.12981   0.13956   0.14740   0.14841   0.15758
 Alpha virt. eigenvalues --    0.16260   0.17977   0.18177   0.18740   0.20409
 Alpha virt. eigenvalues --    0.21450   0.21685   0.22229   0.24253   0.24919
 Alpha virt. eigenvalues --    0.26037   0.26724   0.27260   0.29060   0.29464
 Alpha virt. eigenvalues --    0.32777   0.34389   0.36846   0.36996   0.38509
 Alpha virt. eigenvalues --    0.39729   0.46057   0.46377   0.51818   0.53528
 Alpha virt. eigenvalues --    0.54774   0.54809   0.57214   0.57557   0.66365
 Alpha virt. eigenvalues --    0.79578   0.91485   0.93182   0.94799   0.98901
 Alpha virt. eigenvalues --    1.04464   1.06132   1.07132   1.08774   1.10153
 Alpha virt. eigenvalues --    1.13056   1.14844   1.17496   1.18051   1.19062
 Alpha virt. eigenvalues --    1.20295   1.23808   1.27037   1.29126   1.30410
 Alpha virt. eigenvalues --    1.32714   1.38435   1.42673   1.43123   1.55478
 Alpha virt. eigenvalues --    1.58940   1.63902   1.64801   1.66792   1.68465
 Alpha virt. eigenvalues --    1.71051   1.74958   1.76179   1.78308   1.79602
 Alpha virt. eigenvalues --    1.80801   1.82756   1.86179   1.86783   1.87324
 Alpha virt. eigenvalues --    1.90916   1.92966   1.98879   1.99380   2.00625
 Alpha virt. eigenvalues --    2.17505   2.18998   2.22876   2.56798   2.70814
 Alpha virt. eigenvalues --    2.78448   3.36780   3.83442   3.91883   3.94710
 Alpha virt. eigenvalues --    3.99237   4.08024
          Condensed to atoms (all electrons):
              1          2          3          4          5          6
     1  O    9.004812   0.009934   0.088438   0.265432  -0.136430  -0.362377
     2  O    0.009934   9.066686   0.190047  -0.019356  -0.000360   0.003854
     3  Ca   0.088438   0.190047  18.252371  -0.013698   0.001152  -0.022547
     4  P    0.265432  -0.019356  -0.013698  12.581195   0.449832   0.200694
     5  O   -0.136430  -0.000360   0.001152   0.449832   8.477242  -0.176115
     6  O   -0.362377   0.003854  -0.022547   0.200694  -0.176115   9.124151
     7  Ca  -0.024492   0.034959   0.002101  -0.015469   0.004512   0.057748
     8  O   -0.000226  -0.021847  -0.000662   0.001738   0.000026  -0.002264
     9  Ca   0.001840   0.084738  -0.008506   0.006724  -0.005072   0.004760
              7          8          9
     1  O   -0.024492  -0.000226   0.001840
     2  O    0.034959  -0.021847   0.084738
     3  Ca   0.002101  -0.000662  -0.008506
     4  P   -0.015469   0.001738   0.006724
     5  O    0.004512   0.000026  -0.005072
     6  O    0.057748  -0.002264   0.004760
     7  Ca  18.379857   0.224197  -0.024270
     8  O    0.224197   8.672571   0.229826
     9  Ca  -0.024270   0.229826  18.383392
 Mulliken atomic charges:
              1
     1  O   -0.846931
     2  O   -1.348654
     3  Ca   1.511303
     4  P    1.542908
     5  O   -0.614788
     6  O   -0.827904
     7  Ca   1.360856
     8  O   -1.103359
     9  Ca   1.326569
 Sum of Mulliken charges=   1.00000
 Atomic charges with hydrogens summed into heavy atoms:
              1
     1  O   -0.846931
     2  O   -1.348654
     3  Ca   1.511303
     4  P    1.542908
     5  O   -0.614788
     6  O   -0.827904
     7  Ca   1.360856
     8  O   -1.103359
     9  Ca   1.326569
 Sum of Mulliken charges=   1.00000
 Electronic spatial extent (au):  <R**2>=  3222.7923
 Charge=     1.0000 electrons
 Dipole moment (field-independent basis, Debye):
    X=     6.2848    Y=    13.0912    Z=     0.0513  Tot=    14.5218
 Quadrupole moment (field-independent basis, Debye-Ang):
   XX=   -74.0132   YY=   -51.9279   ZZ=   -72.9886
   XY=    15.9611   XZ=    -0.1698   YZ=    -0.1863
 Traceless Quadrupole moment (field-independent basis, Debye-Ang):
   XX=    -7.7033   YY=    14.3820   ZZ=    -6.6787
   XY=    15.9611   XZ=    -0.1698   YZ=    -0.1863
 Octapole moment (field-independent basis, Debye-Ang**2):
  XXX=   237.5170  YYY=   107.2045  ZZZ=     0.1014  XYY=   -34.1142
  XXY=   130.5313  XXZ=    -0.1268  XZZ=    -1.2063  YZZ=     7.8582
  YYZ=     0.4633  XYZ=    -0.3933
 Hexadecapole moment (field-independent basis, Debye-Ang**3):
 XXXX= -2666.9448 YYYY=  -636.6813 ZZZZ=   -84.5537 XXXY=   346.2091
 XXXZ=    -3.5397 YYYX=    11.9226 YYYZ=    -0.4155 ZZZX=    -0.2419
 ZZZY=    -0.3455 XXYY=  -782.7801 XXZZ=  -460.6270 YYZZ=  -147.3916
 XXYZ=    -1.2996 YYXZ=     0.0690 ZZXY=    10.5642
 N-N= 9.278061372412D+02 E-N=-8.355408479136D+03  KE= 2.742150445376D+03
 Merz-Kollman atomic radii used.
 Read replacement radii for each type of atom:
 Rad(20) =   1.188000000000D+00
 Atom Element Radius
    1     8    1.40
    2     8    1.40
    3    20    1.19
    4    15    1.80
    5     8    1.40
    6     8    1.40
    7    20    1.19
    8     8    1.40
    9    20    1.19

 **********************************************************************

            Electrostatic Properties Using The SCF Density

 **********************************************************************

       Atomic Center    1 is at  -2.475080  1.037401 -0.000889
       Atomic Center    2 is at   1.200429  0.907779  0.006031
       Atomic Center    3 is at  -0.529860  2.186490  0.004361
       Atomic Center    4 is at  -2.785711 -0.460029 -0.003829
       Atomic Center    5 is at  -4.159291 -0.982998 -0.011209
       Atomic Center    6 is at  -1.534462 -1.314029  0.001631
       Atomic Center    7 is at   0.799878 -1.472560  0.011121
       Atomic Center    8 is at   2.957568 -1.639621 -0.005789
       Atomic Center    9 is at   3.423599  0.427678 -0.008519
     844 points will be used for fitting atomic charges
 Fitting point charges to eletrostatic potential
 Charges from ESP fit, RMS=   0.00507 RRMS=   0.03301:
 Charge=   1.00000 Dipole=     6.9129    13.4868     0.0542 Tot=    15.1553
              1
     1  O   -0.897915
     2  O   -1.745678
     3  Ca   1.727633
     4  P    1.461737
     5  O   -0.561747
     6  O   -0.888621
     7  Ca   1.753578
     8  O   -1.459313
     9  Ca   1.610326
 -----------------------------------------------------------------

              Electrostatic Properties (Atomic Units)

 -----------------------------------------------------------------
    Center     Electric         -------- Electric Field --------
               Potential          X             Y             Z
 -----------------------------------------------------------------
    1 Atom    -22.162848
    2 Atom    -22.270042
    3 Atom    -79.994912
    4 Atom    -53.852423
    5 Atom    -22.197843
    6 Atom    -22.171136
    7 Atom    -80.084649
    8 Atom    -22.344260
    9 Atom    -80.062478
 -----------------------------------------------------------------
 1\1\GINC-N034\SP\RB3LYP\6-31+G(d,p)\Ca3O5P1(1+)\TIMN\12-Jun-2015\0\\# 
 b3lyp/6-31+G(d,p) int=ultrafine pop=(ReadRadii,MK)\\mol_17.29.15.pdbcc
 c_plusQ.z58595.zip.xyz\\1,1\O,0,-2.47508,1.0374,-0.00089\O,0,1.20043,0
 .90778,0.00603\Ca,0,-0.52986,2.18649,0.00436\P,0,-2.78571,-0.46003,-0.
 00383\O,0,-4.15929,-0.983,-0.01121\O,0,-1.53446,-1.31403,0.00163\Ca,0,
 0.79988,-1.47256,0.01112\O,0,2.95757,-1.63962,-0.00579\Ca,0,3.4236,0.4
 2768,-0.00852\\Version=EM64T-G03RevE.01\State=1-A\HF=-2750.2367169\RMS
 D=5.731e-05\Thermal=0.\Dipole=2.4726421,5.1504911,0.0201842\PG=C01 [X(
 Ca3O5P1)]\\@


 NEVER LISTEN TO CRITICISM
 OR YOU'LL BE DOIN' EVERYBODY ELSE'S THING BUT BUT YOUR OWN.

                                               -- ANDY CAPP
 Job cpu time:  0 days  0 hours  2 minutes 26.8 seconds.
 File lengths (MBytes):  RWF=     36 Int=      0 D2E=      0 Chk=     11 Scr=      1
 Normal termination of Gaussian 03 at Fri Jun 12 18:11:57 2015.
