 Entering Gaussian System, Link 0=/home/timn/tmp/g03.e01/g03
 Input=mol_17.29.52.pdbccc_plusQ.z58635.zip.xyz.gjf
 Output=mol_17.29.52.pdbccc_plusQ.z58635.zip.xyz.out
 Initial command:
 /home/timn/tmp/g03.e01/l1.exe /home/timn/tmp/g03.e01/Gau-15698.inp -scrdir=/home/timn/tmp/g03.e01/
 Default is to use a total of   2 processors:
                                2 via shared-memory
                                1 via Linda
 Entering Link 1 = /home/timn/tmp/g03.e01/l1.exe PID=     15699.
  
 Copyright (c) 1988,1990,1992,1993,1995,1998,2003,2004,2007, Gaussian, Inc.
                  All Rights Reserved.
  
 This is the Gaussian(R) 03 program.  It is based on the
 the Gaussian(R) 98 system (copyright 1998, Gaussian, Inc.),
 the Gaussian(R) 94 system (copyright 1995, Gaussian, Inc.),
 the Gaussian 92(TM) system (copyright 1992, Gaussian, Inc.),
 the Gaussian 90(TM) system (copyright 1990, Gaussian, Inc.),
 the Gaussian 88(TM) system (copyright 1988, Gaussian, Inc.),
 the Gaussian 86(TM) system (copyright 1986, Carnegie Mellon
 University), and the Gaussian 82(TM) system (copyright 1983,
 Carnegie Mellon University). Gaussian is a federally registered
 trademark of Gaussian, Inc.
  
 This software contains proprietary and confidential information,
 including trade secrets, belonging to Gaussian, Inc.
  
 This software is provided under written license and may be
 used, copied, transmitted, or stored only in accord with that
 written license.
  
 The following legend is applicable only to US Government
 contracts under FAR:
  
                    RESTRICTED RIGHTS LEGEND
  
 Use, reproduction and disclosure by the US Government is
 subject to restrictions as set forth in subparagraphs (a)
 and (c) of the Commercial Computer Software - Restricted
 Rights clause in FAR 52.227-19.
  
 Gaussian, Inc.
 340 Quinnipiac St., Bldg. 40, Wallingford CT 06492
  
  
 ---------------------------------------------------------------
 Warning -- This program may not be used in any manner that
 competes with the business of Gaussian, Inc. or will provide
 assistance to any competitor of Gaussian, Inc.  The licensee
 of this program is prohibited from giving any competitor of
 Gaussian, Inc. access to this program.  By using this program,
 the user acknowledges that Gaussian, Inc. is engaged in the
 business of creating and licensing software in the field of
 computational chemistry and represents and warrants to the
 licensee that it is not a competitor of Gaussian, Inc. and that
 it will not use this program in any manner prohibited above.
 ---------------------------------------------------------------
  

 Cite this work as:
 Gaussian 03, Revision E.01,
 M. J. Frisch, G. W. Trucks, H. B. Schlegel, G. E. Scuseria, 
 M. A. Robb, J. R. Cheeseman, J. A. Montgomery, Jr., T. Vreven, 
 K. N. Kudin, J. C. Burant, J. M. Millam, S. S. Iyengar, J. Tomasi, 
 V. Barone, B. Mennucci, M. Cossi, G. Scalmani, N. Rega, 
 G. A. Petersson, H. Nakatsuji, M. Hada, M. Ehara, K. Toyota, 
 R. Fukuda, J. Hasegawa, M. Ishida, T. Nakajima, Y. Honda, O. Kitao, 
 H. Nakai, M. Klene, X. Li, J. E. Knox, H. P. Hratchian, J. B. Cross, 
 V. Bakken, C. Adamo, J. Jaramillo, R. Gomperts, R. E. Stratmann, 
 O. Yazyev, A. J. Austin, R. Cammi, C. Pomelli, J. W. Ochterski, 
 P. Y. Ayala, K. Morokuma, G. A. Voth, P. Salvador, J. J. Dannenberg, 
 V. G. Zakrzewski, S. Dapprich, A. D. Daniels, M. C. Strain, 
 O. Farkas, D. K. Malick, A. D. Rabuck, K. Raghavachari, 
 J. B. Foresman, J. V. Ortiz, Q. Cui, A. G. Baboul, S. Clifford, 
 J. Cioslowski, B. B. Stefanov, G. Liu, A. Liashenko, P. Piskorz, 
 I. Komaromi, R. L. Martin, D. J. Fox, T. Keith, M. A. Al-Laham, 
 C. Y. Peng, A. Nanayakkara, M. Challacombe, P. M. W. Gill, 
 B. Johnson, W. Chen, M. W. Wong, C. Gonzalez, and J. A. Pople, 
 Gaussian, Inc., Wallingford CT, 2004.
 
 ******************************************
 Gaussian 03:  EM64T-G03RevE.01 11-Sep-2007
                12-Jun-2015 
 ******************************************
 %nproc=2
 Will use up to    2 processors via shared memory.
 Default route:  MP2=Direct MaxDisk=2000MB
 ----------------------------------------------------
 # b3lyp/6-31+G(d,p) int=ultrafine pop=(ReadRadii,MK)
 ----------------------------------------------------

 Warning!  SCF SP cutoffs with diffuse functions may be unreliable.
 Consider SCF=Tight

 1/38=1/1;
 2/17=6,18=5,40=1/2;
 3/5=1,6=6,7=111,11=2,16=1,25=1,30=1,74=-5,75=5/1,2,3;
 4//1;
 5/5=2,32=1,38=5/2;
 6/7=2,8=2,9=2,10=2,15=8,20=101,28=1/1,2;
 99/5=1,9=1/99;
 ----------------------------------------
 mol_17.29.52.pdbccc_plusQ.z58635.zip.xyz
 ----------------------------------------
 Symbolic Z-matrix:
 Charge =  1 Multiplicity = 1
 O                     3.95788  -1.23609  -0.03592 
 P                     4.84639   0.00807  -0.00113 
 O                     6.31714   0.01968  -0.00175 
 O                     3.93831   1.23796   0.03426 
 Ca                    1.91414  -0.01531   0.00034 
 Ca                   -1.89852  -0.00926   0.00535 
 O                    -4.047     0.05478  -0.7864 
 O                    -4.05101  -0.05516   0.78762 
 Ca                   -6.09654   0.01005  -0.00397 
 
                          Input orientation:                          
 ---------------------------------------------------------------------
 Center     Atomic     Atomic              Coordinates (Angstroms)
 Number     Number      Type              X           Y           Z
 ---------------------------------------------------------------------
    1          8             0        3.957880   -1.236090   -0.035920
    2         15             0        4.846390    0.008070   -0.001130
    3          8             0        6.317140    0.019680   -0.001750
    4          8             0        3.938310    1.237960    0.034260
    5         20             0        1.914140   -0.015310    0.000340
    6         20             0       -1.898520   -0.009260    0.005350
    7          8             0       -4.047000    0.054780   -0.786400
    8          8             0       -4.051010   -0.055160    0.787620
    9         20             0       -6.096540    0.010050   -0.003970
 ---------------------------------------------------------------------
                    Distance matrix (angstroms):
                    1          2          3          4          5
     1  O    0.000000
     2  P    1.529246   0.000000
     3  O    2.672870   1.470796   0.000000
     4  O    2.475123   1.529213   2.672889   0.000000
     5  Ca   2.380859   2.932344   4.403140   2.380987   0.000000
     6  Ca   5.983664   6.744935   8.215714   5.968666   3.812668
     7  O    8.142952   8.928114  10.393859   8.114097   6.013241
     8  O    8.137268   8.932517  10.398425   8.128281   6.017010
     9  Ca  10.131399  10.942931  12.413684  10.109769   8.010721
                    6          7          8          9
     6  Ca   0.000000
     7  O    2.290619   0.000000
     8  O    2.290691   1.577860   0.000000
     9  Ca   4.198075   2.194268   2.194325   0.000000
 Stoichiometry    Ca3O5P(1+)
 Framework group  C1[X(Ca3O5P)]
 Deg. of freedom    21
 Full point group                 C1
 Largest Abelian subgroup         C1      NOp   1
 Largest concise Abelian subgroup C1      NOp   1
                         Standard orientation:                         
 ---------------------------------------------------------------------
 Center     Atomic     Atomic              Coordinates (Angstroms)
 Number     Number      Type              X           Y           Z
 ---------------------------------------------------------------------
    1          8             0        3.957879   -1.236092   -0.035919
    2         15             0        4.846390    0.008068   -0.001129
    3          8             0        6.317140    0.019677   -0.001749
    4          8             0        3.938310    1.237958    0.034261
    5         20             0        1.914140   -0.015311    0.000341
    6         20             0       -1.898520   -0.009259    0.005351
    7          8             0       -4.047000    0.054781   -0.786399
    8          8             0       -4.051010   -0.055159    0.787621
    9         20             0       -6.096540    0.010052   -0.003969
 ---------------------------------------------------------------------
 Rotational constants (GHZ):      7.3318927      0.1207762      0.1199387
 Standard basis: 6-31+G(d,p) (6D, 7F)
 There are   199 symmetry adapted basis functions of A   symmetry.
 Integral buffers will be    131072 words long.
 Raffenetti 2 integral format.
 Two-electron integral symmetry is turned on.
   199 basis functions,   456 primitive gaussians,   199 cartesian basis functions
    57 alpha electrons       57 beta electrons
       nuclear repulsion energy       780.4498198367 Hartrees.
 NAtoms=    9 NActive=    9 NUniq=    9 SFac= 7.50D-01 NAtFMM=   80 NAOKFM=F Big=F
 One-electron integrals computed using PRISM.
 NBasis=   199 RedAO= T  NBF=   199
 NBsUse=   199 1.00D-06 NBFU=   199
 Harris functional with IExCor=  402 diagonalized for initial guess.
 ExpMin= 7.10D-03 ExpMax= 3.53D+04 ExpMxC= 5.30D+03 IAcc=3 IRadAn=         5 AccDes= 0.00D+00
 HarFok:  IExCor= 402 AccDes= 0.00D+00 IRadAn=         5 IDoV=1
 ScaDFX=  1.000000  1.000000  1.000000  1.000000
 Initial guess orbital symmetries:
       Occupied  (A) (A) (A) (A) (A) (A) (A) (A) (A) (A) (A) (A)
                 (A) (A) (A) (A) (A) (A) (A) (A) (A) (A) (A) (A)
                 (A) (A) (A) (A) (A) (A) (A) (A) (A) (A) (A) (A)
                 (A) (A) (A) (A) (A) (A) (A) (A) (A) (A) (A) (A)
                 (A) (A) (A) (A) (A) (A) (A) (A) (A)
       Virtual   (A) (A) (A) (A) (A) (A) (A) (A) (A) (A) (A) (A)
                 (A) (A) (A) (A) (A) (A) (A) (A) (A) (A) (A) (A)
                 (A) (A) (A) (A) (A) (A) (A) (A) (A) (A) (A) (A)
                 (A) (A) (A) (A) (A) (A) (A) (A) (A) (A) (A) (A)
                 (A) (A) (A) (A) (A) (A) (A) (A) (A) (A) (A) (A)
                 (A) (A) (A) (A) (A) (A) (A) (A) (A) (A) (A) (A)
                 (A) (A) (A) (A) (A) (A) (A) (A) (A) (A) (A) (A)
                 (A) (A) (A) (A) (A) (A) (A) (A) (A) (A) (A) (A)
                 (A) (A) (A) (A) (A) (A) (A) (A) (A) (A) (A) (A)
                 (A) (A) (A) (A) (A) (A) (A) (A) (A) (A) (A) (A)
                 (A) (A) (A) (A) (A) (A) (A) (A) (A) (A) (A) (A)
                 (A) (A) (A) (A) (A) (A) (A) (A) (A) (A)
 The electronic state of the initial guess is 1-A.
 Requested convergence on RMS density matrix=1.00D-04 within 128 cycles.
 Requested convergence on MAX density matrix=1.00D-02.
 Requested convergence on             energy=1.00D-02.
 No special actions if energy rises.
 EnCoef did     3 forward-backward iterations
 EnCoef did   100 forward-backward iterations
 EnCoef did     3 forward-backward iterations
 SCF Done:  E(RB+HF-LYP) =  -2750.08564560     A.U. after   13 cycles
             Convg  =    0.5652D-04             -V/T =  2.0029
             S**2   =   0.0000

 **********************************************************************

            Population analysis using the SCF density.

 **********************************************************************

 Orbital symmetries:
       Occupied  (A) (A) (A) (A) (A) (A) (A) (A) (A) (A) (A) (A)
                 (A) (A) (A) (A) (A) (A) (A) (A) (A) (A) (A) (A)
                 (A) (A) (A) (A) (A) (A) (A) (A) (A) (A) (A) (A)
                 (A) (A) (A) (A) (A) (A) (A) (A) (A) (A) (A) (A)
                 (A) (A) (A) (A) (A) (A) (A) (A) (A)
       Virtual   (A) (A) (A) (A) (A) (A) (A) (A) (A) (A) (A) (A)
                 (A) (A) (A) (A) (A) (A) (A) (A) (A) (A) (A) (A)
                 (A) (A) (A) (A) (A) (A) (A) (A) (A) (A) (A) (A)
                 (A) (A) (A) (A) (A) (A) (A) (A) (A) (A) (A) (A)
                 (A) (A) (A) (A) (A) (A) (A) (A) (A) (A) (A) (A)
                 (A) (A) (A) (A) (A) (A) (A) (A) (A) (A) (A) (A)
                 (A) (A) (A) (A) (A) (A) (A) (A) (A) (A) (A) (A)
                 (A) (A) (A) (A) (A) (A) (A) (A) (A) (A) (A) (A)
                 (A) (A) (A) (A) (A) (A) (A) (A) (A) (A) (A) (A)
                 (A) (A) (A) (A) (A) (A) (A) (A) (A) (A) (A) (A)
                 (A) (A) (A) (A) (A) (A) (A) (A) (A) (A) (A) (A)
                 (A) (A) (A) (A) (A) (A) (A) (A) (A) (A)
 The electronic state is 1-A.
 Alpha  occ. eigenvalues -- -145.57629-145.50444-145.49199 -77.30285 -19.26771
 Alpha  occ. eigenvalues --  -19.26733 -19.24489 -19.24486 -19.23249 -15.64455
 Alpha  occ. eigenvalues --  -15.57432 -15.56238 -12.77696 -12.77636 -12.77559
 Alpha  occ. eigenvalues --  -12.70670 -12.70607 -12.70493 -12.69468 -12.69424
 Alpha  occ. eigenvalues --  -12.69277  -6.75652  -4.92247  -4.91764  -4.91723
 Alpha  occ. eigenvalues --   -2.01384  -1.94622  -1.93541  -1.28972  -1.28941
 Alpha  occ. eigenvalues --   -1.28674  -1.22376  -1.22106  -1.22035  -1.21288
 Alpha  occ. eigenvalues --   -1.21095  -1.21080  -1.13349  -1.09159  -1.06045
 Alpha  occ. eigenvalues --   -1.05555  -0.90620  -0.61206  -0.52920  -0.51582
 Alpha  occ. eigenvalues --   -0.51280  -0.49971  -0.49352  -0.47129  -0.45529
 Alpha  occ. eigenvalues --   -0.41976  -0.41711  -0.40962  -0.38964  -0.38005
 Alpha  occ. eigenvalues --   -0.34760  -0.27719
 Alpha virt. eigenvalues --   -0.25120  -0.16335  -0.16074  -0.15534  -0.14479
 Alpha virt. eigenvalues --   -0.14301  -0.13092  -0.11658  -0.11625  -0.09620
 Alpha virt. eigenvalues --   -0.08642  -0.07739  -0.07703  -0.07518  -0.05921
 Alpha virt. eigenvalues --   -0.05817  -0.05392  -0.04963  -0.04946  -0.04561
 Alpha virt. eigenvalues --   -0.03517  -0.02860  -0.02760  -0.02454  -0.01473
 Alpha virt. eigenvalues --   -0.01236  -0.00326   0.00214   0.00322   0.00657
 Alpha virt. eigenvalues --    0.00791   0.01643   0.02229   0.02384   0.03289
 Alpha virt. eigenvalues --    0.03989   0.04108   0.04797   0.05234   0.05283
 Alpha virt. eigenvalues --    0.05611   0.05739   0.05750   0.06229   0.06464
 Alpha virt. eigenvalues --    0.07233   0.07428   0.08102   0.08607   0.08695
 Alpha virt. eigenvalues --    0.11098   0.12072   0.13191   0.14033   0.15039
 Alpha virt. eigenvalues --    0.15597   0.15989   0.16112   0.16931   0.16965
 Alpha virt. eigenvalues --    0.18644   0.19022   0.20035   0.21238   0.21602
 Alpha virt. eigenvalues --    0.21651   0.22426   0.23753   0.24396   0.25974
 Alpha virt. eigenvalues --    0.28315   0.28876   0.30060   0.30966   0.32223
 Alpha virt. eigenvalues --    0.34911   0.36454   0.37707   0.41430   0.42894
 Alpha virt. eigenvalues --    0.48412   0.56504   0.56781   0.56830   0.57687
 Alpha virt. eigenvalues --    0.58648   0.72611   0.83076   0.90982   0.97288
 Alpha virt. eigenvalues --    0.98036   1.02894   1.06849   1.07480   1.07719
 Alpha virt. eigenvalues --    1.12375   1.16002   1.16042   1.16269   1.16419
 Alpha virt. eigenvalues --    1.17767   1.19812   1.19847   1.23448   1.23629
 Alpha virt. eigenvalues --    1.26570   1.39246   1.44606   1.45378   1.47869
 Alpha virt. eigenvalues --    1.48016   1.51169   1.60002   1.68943   1.69242
 Alpha virt. eigenvalues --    1.69690   1.70957   1.71081   1.71141   1.75396
 Alpha virt. eigenvalues --    1.76260   1.80425   1.85460   1.86338   1.88429
 Alpha virt. eigenvalues --    1.93881   1.96538   2.05204   2.14525   2.16006
 Alpha virt. eigenvalues --    2.19174   2.21647   2.63830   2.75507   2.81529
 Alpha virt. eigenvalues --    2.98549   3.40248   3.87263   3.93879   3.94812
 Alpha virt. eigenvalues --    4.00300   4.02318
          Condensed to atoms (all electrons):
              1          2          3          4          5          6
     1  O    8.783899   0.255441  -0.159198  -0.222956  -0.009423   0.015148
     2  P    0.255441  13.104313   0.425717   0.261782   0.070563  -0.097915
     3  O   -0.159198   0.425717   8.488047  -0.159720   0.010530   0.000648
     4  O   -0.222956   0.261782  -0.159720   8.783708  -0.012350   0.013308
     5  Ca  -0.009423   0.070563   0.010530  -0.012350  20.014251  -0.120474
     6  Ca   0.015148  -0.097915   0.000648   0.013308  -0.120474  18.925058
     7  O    0.000001  -0.000015   0.000000   0.000001  -0.007773   0.084358
     8  O    0.000001  -0.000013   0.000000   0.000001  -0.007685   0.084979
     9  Ca   0.003599  -0.017174   0.000573   0.003586  -0.394795  -0.042518
              7          8          9
     1  O    0.000001   0.000001   0.003599
     2  P   -0.000015  -0.000013  -0.017174
     3  O    0.000000   0.000000   0.000573
     4  O    0.000001   0.000001   0.003586
     5  Ca  -0.007773  -0.007685  -0.394795
     6  Ca   0.084358   0.084979  -0.042518
     7  O    8.495931  -0.043124   0.121977
     8  O   -0.043124   8.494809   0.121710
     9  Ca   0.121977   0.121710  18.552405
 Mulliken atomic charges:
              1
     1  O   -0.666510
     2  P    0.997301
     3  O   -0.606597
     4  O   -0.667360
     5  Ca   0.457157
     6  Ca   1.137407
     7  O   -0.651356
     8  O   -0.650678
     9  Ca   1.650637
 Sum of Mulliken charges=   1.00000
 Atomic charges with hydrogens summed into heavy atoms:
              1
     1  O   -0.666510
     2  P    0.997301
     3  O   -0.606597
     4  O   -0.667360
     5  Ca   0.457157
     6  Ca   1.137407
     7  O   -0.651356
     8  O   -0.650678
     9  Ca   1.650637
 Sum of Mulliken charges=   1.00000
 Electronic spatial extent (au):  <R**2>=  7613.9885
 Charge=     1.0000 electrons
 Dipole moment (field-independent basis, Debye):
    X=   -28.8874    Y=    -0.0225    Z=    -0.0053  Tot=    28.8874
 Quadrupole moment (field-independent basis, Debye-Ang):
   XX=    50.4720   YY=   -90.4068   ZZ=   -83.3247
   XY=    -0.5381   XZ=     0.1373   YZ=    -0.0387
 Traceless Quadrupole moment (field-independent basis, Debye-Ang):
   XX=    91.5585   YY=   -49.3203   ZZ=   -42.2382
   XY=    -0.5381   XZ=     0.1373   YZ=    -0.0387
 Octapole moment (field-independent basis, Debye-Ang**2):
  XXX= -1538.0090  YYY=     0.1959  ZZZ=    -0.0790  XYY=   -54.0132
  XXY=     1.7559  XXZ=    -0.8730  XZZ=     6.8598  YZZ=     0.0790
  YYZ=    -0.0182  XYZ=    -2.4126
 Hexadecapole moment (field-independent basis, Debye-Ang**3):
 XXXX= -2474.8346 YYYY=  -254.4999 ZZZZ=  -169.6518 XXXY=   -19.8237
 XXXZ=     7.4886 YYYX=    -0.8847 YYYZ=     0.0181 ZZZX=     0.2046
 ZZZY=    -0.4473 XXYY= -1539.8763 XXZZ= -1419.7578 YYZZ=   -70.8141
 XXYZ=    -0.1381 YYXZ=     0.1149 ZZXY=    -0.2459
 N-N= 7.804498198367D+02 E-N=-8.059257315862D+03  KE= 2.742196858164D+03
 Merz-Kollman atomic radii used.
 Read replacement radii for each type of atom:
 Rad(20) =   1.188000000000D+00
 Atom Element Radius
    1     8    1.40
    2    15    1.80
    3     8    1.40
    4     8    1.40
    5    20    1.19
    6    20    1.19
    7     8    1.40
    8     8    1.40
    9    20    1.19

 **********************************************************************

            Electrostatic Properties Using The SCF Density

 **********************************************************************

       Atomic Center    1 is at   3.957879 -1.236092 -0.035919
       Atomic Center    2 is at   4.846390  0.008068 -0.001129
       Atomic Center    3 is at   6.317140  0.019677 -0.001749
       Atomic Center    4 is at   3.938310  1.237958  0.034261
       Atomic Center    5 is at   1.914140 -0.015311  0.000341
       Atomic Center    6 is at  -1.898520 -0.009259  0.005351
       Atomic Center    7 is at  -4.047000  0.054781 -0.786399
       Atomic Center    8 is at  -4.051010 -0.055159  0.787621
       Atomic Center    9 is at  -6.096540  0.010052 -0.003969
     967 points will be used for fitting atomic charges
 Fitting point charges to eletrostatic potential
 Charges from ESP fit, RMS=   0.02068 RRMS=   0.13949:
 Charge=   1.00000 Dipole=   -30.4708    -0.0424    -0.0017 Tot=    30.4708
              1
     1  O   -0.608811
     2  P    1.362358
     3  O   -0.680018
     4  O   -0.611587
     5  Ca   0.638525
     6  Ca   0.668955
     7  O   -0.581875
     8  O   -0.579937
     9  Ca   1.392390
 -----------------------------------------------------------------

              Electrostatic Properties (Atomic Units)

 -----------------------------------------------------------------
    Center     Electric         -------- Electric Field --------
               Potential          X             Y             Z
 -----------------------------------------------------------------
    1 Atom    -22.221151
    2 Atom    -53.905892
    3 Atom    -22.237395
    4 Atom    -22.221314
    5 Atom    -80.039691
    6 Atom    -80.051809
    7 Atom    -22.202740
    8 Atom    -22.201544
    9 Atom    -79.963305
 -----------------------------------------------------------------
 1\1\GINC-N030\SP\RB3LYP\6-31+G(d,p)\Ca3O5P1(1+)\TIMN\12-Jun-2015\0\\# 
 b3lyp/6-31+G(d,p) int=ultrafine pop=(ReadRadii,MK)\\mol_17.29.52.pdbcc
 c_plusQ.z58635.zip.xyz\\1,1\O,0,3.95788,-1.23609,-0.03592\P,0,4.84639,
 0.00807,-0.00113\O,0,6.31714,0.01968,-0.00175\O,0,3.93831,1.23796,0.03
 426\Ca,0,1.91414,-0.01531,0.00034\Ca,0,-1.89852,-0.00926,0.00535\O,0,-
 4.047,0.05478,-0.7864\O,0,-4.05101,-0.05516,0.78762\Ca,0,-6.09654,0.01
 005,-0.00397\\Version=EM64T-G03RevE.01\State=1-A\HF=-2750.0856456\RMSD
 =5.652e-05\Thermal=0.\Dipole=-11.3651717,-0.0088491,-0.0020674\PG=C01 
 [X(Ca3O5P1)]\\@


 MY DESCRIPTION OF EXPERIENCE IS NOT WHAT HAPPENS
 TO A MAN.  EXPERIENCE IS WHAT A MAN DOES WITH WHAT
 HAPPENS TO HIM.
                         - CHUCK KNOX, SEATTLE SEAHAWKS, 1985
 Job cpu time:  0 days  0 hours  2 minutes  8.5 seconds.
 File lengths (MBytes):  RWF=     36 Int=      0 D2E=      0 Chk=     11 Scr=      1
 Normal termination of Gaussian 03 at Fri Jun 12 18:13:13 2015.
