 Entering Gaussian System, Link 0=/home/timn/tmp/g03.e01/g03
 Input=mol_17.29.29.pdbcc_plusQ.z58610.zip.xyz.gjf
 Output=mol_17.29.29.pdbcc_plusQ.z58610.zip.xyz.out
 Initial command:
 /home/timn/tmp/g03.e01/l1.exe /home/timn/tmp/g03.e01/Gau-19099.inp -scrdir=/home/timn/tmp/g03.e01/
 Default is to use a total of   2 processors:
                                2 via shared-memory
                                1 via Linda
 Entering Link 1 = /home/timn/tmp/g03.e01/l1.exe PID=     19100.
  
 Copyright (c) 1988,1990,1992,1993,1995,1998,2003,2004,2007, Gaussian, Inc.
                  All Rights Reserved.
  
 This is the Gaussian(R) 03 program.  It is based on the
 the Gaussian(R) 98 system (copyright 1998, Gaussian, Inc.),
 the Gaussian(R) 94 system (copyright 1995, Gaussian, Inc.),
 the Gaussian 92(TM) system (copyright 1992, Gaussian, Inc.),
 the Gaussian 90(TM) system (copyright 1990, Gaussian, Inc.),
 the Gaussian 88(TM) system (copyright 1988, Gaussian, Inc.),
 the Gaussian 86(TM) system (copyright 1986, Carnegie Mellon
 University), and the Gaussian 82(TM) system (copyright 1983,
 Carnegie Mellon University). Gaussian is a federally registered
 trademark of Gaussian, Inc.
  
 This software contains proprietary and confidential information,
 including trade secrets, belonging to Gaussian, Inc.
  
 This software is provided under written license and may be
 used, copied, transmitted, or stored only in accord with that
 written license.
  
 The following legend is applicable only to US Government
 contracts under FAR:
  
                    RESTRICTED RIGHTS LEGEND
  
 Use, reproduction and disclosure by the US Government is
 subject to restrictions as set forth in subparagraphs (a)
 and (c) of the Commercial Computer Software - Restricted
 Rights clause in FAR 52.227-19.
  
 Gaussian, Inc.
 340 Quinnipiac St., Bldg. 40, Wallingford CT 06492
  
  
 ---------------------------------------------------------------
 Warning -- This program may not be used in any manner that
 competes with the business of Gaussian, Inc. or will provide
 assistance to any competitor of Gaussian, Inc.  The licensee
 of this program is prohibited from giving any competitor of
 Gaussian, Inc. access to this program.  By using this program,
 the user acknowledges that Gaussian, Inc. is engaged in the
 business of creating and licensing software in the field of
 computational chemistry and represents and warrants to the
 licensee that it is not a competitor of Gaussian, Inc. and that
 it will not use this program in any manner prohibited above.
 ---------------------------------------------------------------
  

 Cite this work as:
 Gaussian 03, Revision E.01,
 M. J. Frisch, G. W. Trucks, H. B. Schlegel, G. E. Scuseria, 
 M. A. Robb, J. R. Cheeseman, J. A. Montgomery, Jr., T. Vreven, 
 K. N. Kudin, J. C. Burant, J. M. Millam, S. S. Iyengar, J. Tomasi, 
 V. Barone, B. Mennucci, M. Cossi, G. Scalmani, N. Rega, 
 G. A. Petersson, H. Nakatsuji, M. Hada, M. Ehara, K. Toyota, 
 R. Fukuda, J. Hasegawa, M. Ishida, T. Nakajima, Y. Honda, O. Kitao, 
 H. Nakai, M. Klene, X. Li, J. E. Knox, H. P. Hratchian, J. B. Cross, 
 V. Bakken, C. Adamo, J. Jaramillo, R. Gomperts, R. E. Stratmann, 
 O. Yazyev, A. J. Austin, R. Cammi, C. Pomelli, J. W. Ochterski, 
 P. Y. Ayala, K. Morokuma, G. A. Voth, P. Salvador, J. J. Dannenberg, 
 V. G. Zakrzewski, S. Dapprich, A. D. Daniels, M. C. Strain, 
 O. Farkas, D. K. Malick, A. D. Rabuck, K. Raghavachari, 
 J. B. Foresman, J. V. Ortiz, Q. Cui, A. G. Baboul, S. Clifford, 
 J. Cioslowski, B. B. Stefanov, G. Liu, A. Liashenko, P. Piskorz, 
 I. Komaromi, R. L. Martin, D. J. Fox, T. Keith, M. A. Al-Laham, 
 C. Y. Peng, A. Nanayakkara, M. Challacombe, P. M. W. Gill, 
 B. Johnson, W. Chen, M. W. Wong, C. Gonzalez, and J. A. Pople, 
 Gaussian, Inc., Wallingford CT, 2004.
 
 ******************************************
 Gaussian 03:  EM64T-G03RevE.01 11-Sep-2007
                12-Jun-2015 
 ******************************************
 %nproc=2
 Will use up to    2 processors via shared memory.
 Default route:  MP2=Direct MaxDisk=2000MB
 ----------------------------------------------------
 # b3lyp/6-31+G(d,p) int=ultrafine pop=(ReadRadii,MK)
 ----------------------------------------------------

 Warning!  SCF SP cutoffs with diffuse functions may be unreliable.
 Consider SCF=Tight

 1/38=1/1;
 2/17=6,18=5,40=1/2;
 3/5=1,6=6,7=111,11=2,16=1,25=1,30=1,74=-5,75=5/1,2,3;
 4//1;
 5/5=2,32=1,38=5/2;
 6/7=2,8=2,9=2,10=2,15=8,20=101,28=1/1,2;
 99/5=1,9=1/99;
 ---------------------------------------
 mol_17.29.29.pdbcc_plusQ.z58610.zip.xyz
 ---------------------------------------
 Symbolic Z-matrix:
 Charge =  1 Multiplicity = 1
 Ca                    2.01601  -1.74556  -0.01886 
 O                     2.87531   0.1764    0.25487 
 Ca                    1.71378   1.94615   0.10541 
 P                    -0.44513  -0.06919  -0.94457 
 O                    -2.11353  -0.3004   -1.21438 
 O                    -3.11439   0.67164  -0.62382 
 O                    -0.25123  -1.3632    0.08525 
 Ca                   -2.18405  -0.27253   1.1525 
 O                    -0.42589   1.12512   0.17151 
 
                          Input orientation:                          
 ---------------------------------------------------------------------
 Center     Atomic     Atomic              Coordinates (Angstroms)
 Number     Number      Type              X           Y           Z
 ---------------------------------------------------------------------
    1         20             0        2.016010   -1.745560   -0.018860
    2          8             0        2.875310    0.176400    0.254870
    3         20             0        1.713780    1.946150    0.105410
    4         15             0       -0.445130   -0.069190   -0.944570
    5          8             0       -2.113530   -0.300400   -1.214380
    6          8             0       -3.114390    0.671640   -0.623820
    7          8             0       -0.251230   -1.363200    0.085250
    8         20             0       -2.184050   -0.272530    1.152500
    9          8             0       -0.425890    1.125120    0.171510
 ---------------------------------------------------------------------
                    Distance matrix (angstroms):
                    1          2          3          4          5
     1  Ca   0.000000
     2  O    2.123030   0.000000
     3  Ca   3.706145   2.122146   0.000000
     4  P    3.118391   3.538968   3.134477   0.000000
     5  O    4.535511   5.222505   4.630025   1.705818   0.000000
     6  O    5.703493   6.074032   5.046521   2.788666   1.515039
     7  O    2.301611   3.489182   3.848827   1.665109   2.507338
     8  Ca   4.602435   5.157945   4.605651   2.731830   2.368094
     9  O    3.773582   3.435832   2.292738   1.634742   2.607859
                    6          7          8          9
     6  O    0.000000
     7  O    3.583440   0.000000
     8  Ca   2.216371   2.462596   0.000000
     9  O    2.840110   2.495933   2.450896   0.000000
 Stoichiometry    Ca3O5P(1+)
 Framework group  C1[X(Ca3O5P)]
 Deg. of freedom    21
 Full point group                 C1
 Largest Abelian subgroup         C1      NOp   1
 Largest concise Abelian subgroup C1      NOp   1
                         Standard orientation:                         
 ---------------------------------------------------------------------
 Center     Atomic     Atomic              Coordinates (Angstroms)
 Number     Number      Type              X           Y           Z
 ---------------------------------------------------------------------
    1         20             0        2.016012   -1.745557   -0.018859
    2          8             0        2.875310    0.176404    0.254871
    3         20             0        1.713778    1.946153    0.105411
    4         15             0       -0.445130   -0.069189   -0.944569
    5          8             0       -2.113530   -0.300400   -1.214379
    6          8             0       -3.114391    0.671639   -0.623819
    7          8             0       -0.251229   -1.363199    0.085251
    8         20             0       -2.184050   -0.272531    1.152501
    9          8             0       -0.425891    1.125121    0.171511
 ---------------------------------------------------------------------
 Rotational constants (GHZ):      1.1281394      0.5309168      0.4302348
 Standard basis: 6-31+G(d,p) (6D, 7F)
 There are   199 symmetry adapted basis functions of A   symmetry.
 Integral buffers will be    131072 words long.
 Raffenetti 2 integral format.
 Two-electron integral symmetry is turned on.
   199 basis functions,   456 primitive gaussians,   199 cartesian basis functions
    57 alpha electrons       57 beta electrons
       nuclear repulsion energy      1004.8757102290 Hartrees.
 NAtoms=    9 NActive=    9 NUniq=    9 SFac= 7.50D-01 NAtFMM=   80 NAOKFM=F Big=F
 One-electron integrals computed using PRISM.
 NBasis=   199 RedAO= T  NBF=   199
 NBsUse=   199 1.00D-06 NBFU=   199
 Harris functional with IExCor=  402 diagonalized for initial guess.
 ExpMin= 7.10D-03 ExpMax= 3.53D+04 ExpMxC= 5.30D+03 IAcc=3 IRadAn=         5 AccDes= 0.00D+00
 HarFok:  IExCor= 402 AccDes= 0.00D+00 IRadAn=         5 IDoV=1
 ScaDFX=  1.000000  1.000000  1.000000  1.000000
 Initial guess orbital symmetries:
       Occupied  (A) (A) (A) (A) (A) (A) (A) (A) (A) (A) (A) (A)
                 (A) (A) (A) (A) (A) (A) (A) (A) (A) (A) (A) (A)
                 (A) (A) (A) (A) (A) (A) (A) (A) (A) (A) (A) (A)
                 (A) (A) (A) (A) (A) (A) (A) (A) (A) (A) (A) (A)
                 (A) (A) (A) (A) (A) (A) (A) (A) (A)
       Virtual   (A) (A) (A) (A) (A) (A) (A) (A) (A) (A) (A) (A)
                 (A) (A) (A) (A) (A) (A) (A) (A) (A) (A) (A) (A)
                 (A) (A) (A) (A) (A) (A) (A) (A) (A) (A) (A) (A)
                 (A) (A) (A) (A) (A) (A) (A) (A) (A) (A) (A) (A)
                 (A) (A) (A) (A) (A) (A) (A) (A) (A) (A) (A) (A)
                 (A) (A) (A) (A) (A) (A) (A) (A) (A) (A) (A) (A)
                 (A) (A) (A) (A) (A) (A) (A) (A) (A) (A) (A) (A)
                 (A) (A) (A) (A) (A) (A) (A) (A) (A) (A) (A) (A)
                 (A) (A) (A) (A) (A) (A) (A) (A) (A) (A) (A) (A)
                 (A) (A) (A) (A) (A) (A) (A) (A) (A) (A) (A) (A)
                 (A) (A) (A) (A) (A) (A) (A) (A) (A) (A) (A) (A)
                 (A) (A) (A) (A) (A) (A) (A) (A) (A) (A)
 The electronic state of the initial guess is 1-A.
 Requested convergence on RMS density matrix=1.00D-04 within 128 cycles.
 Requested convergence on MAX density matrix=1.00D-02.
 Requested convergence on             energy=1.00D-02.
 No special actions if energy rises.
 EnCoef did     4 forward-backward iterations
 EnCoef did     1 forward-backward iterations
 EnCoef did     1 forward-backward iterations
 SCF Done:  E(RB+HF-LYP) =  -2750.11774721     A.U. after    9 cycles
             Convg  =    0.4751D-04             -V/T =  2.0029
             S**2   =   0.0000

 **********************************************************************

            Population analysis using the SCF density.

 **********************************************************************

 Orbital symmetries:
       Occupied  (A) (A) (A) (A) (A) (A) (A) (A) (A) (A) (A) (A)
                 (A) (A) (A) (A) (A) (A) (A) (A) (A) (A) (A) (A)
                 (A) (A) (A) (A) (A) (A) (A) (A) (A) (A) (A) (A)
                 (A) (A) (A) (A) (A) (A) (A) (A) (A) (A) (A) (A)
                 (A) (A) (A) (A) (A) (A) (A) (A) (A)
       Virtual   (A) (A) (A) (A) (A) (A) (A) (A) (A) (A) (A) (A)
                 (A) (A) (A) (A) (A) (A) (A) (A) (A) (A) (A) (A)
                 (A) (A) (A) (A) (A) (A) (A) (A) (A) (A) (A) (A)
                 (A) (A) (A) (A) (A) (A) (A) (A) (A) (A) (A) (A)
                 (A) (A) (A) (A) (A) (A) (A) (A) (A) (A) (A) (A)
                 (A) (A) (A) (A) (A) (A) (A) (A) (A) (A) (A) (A)
                 (A) (A) (A) (A) (A) (A) (A) (A) (A) (A) (A) (A)
                 (A) (A) (A) (A) (A) (A) (A) (A) (A) (A) (A) (A)
                 (A) (A) (A) (A) (A) (A) (A) (A) (A) (A) (A) (A)
                 (A) (A) (A) (A) (A) (A) (A) (A) (A) (A) (A) (A)
                 (A) (A) (A) (A) (A) (A) (A) (A) (A) (A) (A) (A)
                 (A) (A) (A) (A) (A) (A) (A) (A) (A) (A)
 The electronic state is 1-A.
 Alpha  occ. eigenvalues -- -145.52030-145.50135-145.50000 -77.26819 -19.27041
 Alpha  occ. eigenvalues --  -19.23363 -19.23087 -19.21555 -19.13356 -15.58789
 Alpha  occ. eigenvalues --  -15.57007 -15.56883 -12.72008 -12.71999 -12.71908
 Alpha  occ. eigenvalues --  -12.70262 -12.70187 -12.70137 -12.70077 -12.70066
 Alpha  occ. eigenvalues --  -12.69948  -6.72118  -4.88491  -4.88433  -4.87949
 Alpha  occ. eigenvalues --   -1.95843  -1.94210  -1.94096  -1.24335  -1.23293
 Alpha  occ. eigenvalues --   -1.22956  -1.22081  -1.21964  -1.21852  -1.21618
 Alpha  occ. eigenvalues --   -1.21251  -1.20761  -1.12238  -1.06807  -1.02503
 Alpha  occ. eigenvalues --   -0.89737  -0.87636  -0.64499  -0.53849  -0.52076
 Alpha  occ. eigenvalues --   -0.51863  -0.46760  -0.45782  -0.42945  -0.42774
 Alpha  occ. eigenvalues --   -0.38459  -0.35819  -0.33768  -0.32243  -0.31972
 Alpha  occ. eigenvalues --   -0.31709  -0.30414
 Alpha virt. eigenvalues --   -0.20010  -0.18998  -0.18428  -0.12841  -0.12140
 Alpha virt. eigenvalues --   -0.11162  -0.10331  -0.10085  -0.09329  -0.08690
 Alpha virt. eigenvalues --   -0.07751  -0.07644  -0.07113  -0.06323  -0.05694
 Alpha virt. eigenvalues --   -0.05061  -0.04873  -0.04575  -0.04310  -0.04195
 Alpha virt. eigenvalues --   -0.03961  -0.03756  -0.03498  -0.03189  -0.03141
 Alpha virt. eigenvalues --   -0.02920  -0.01605  -0.01000   0.00062   0.01438
 Alpha virt. eigenvalues --    0.01914   0.02494   0.03483   0.03936   0.04125
 Alpha virt. eigenvalues --    0.04578   0.05241   0.05531   0.06148   0.06403
 Alpha virt. eigenvalues --    0.06685   0.07098   0.07686   0.08303   0.08718
 Alpha virt. eigenvalues --    0.09586   0.09963   0.10046   0.11190   0.12147
 Alpha virt. eigenvalues --    0.12637   0.13357   0.13921   0.15350   0.17089
 Alpha virt. eigenvalues --    0.18506   0.19215   0.20266   0.21192   0.21671
 Alpha virt. eigenvalues --    0.22686   0.23722   0.24069   0.25038   0.26023
 Alpha virt. eigenvalues --    0.26230   0.26841   0.28287   0.28698   0.31193
 Alpha virt. eigenvalues --    0.31771   0.34728   0.38051   0.38408   0.40012
 Alpha virt. eigenvalues --    0.40328   0.42817   0.45600   0.49164   0.52335
 Alpha virt. eigenvalues --    0.53181   0.57990   0.59051   0.64375   0.67553
 Alpha virt. eigenvalues --    0.71074   0.74270   0.86307   0.90752   0.91941
 Alpha virt. eigenvalues --    0.96083   1.09627   1.12169   1.14427   1.15823
 Alpha virt. eigenvalues --    1.16278   1.17818   1.19676   1.20743   1.21860
 Alpha virt. eigenvalues --    1.23113   1.24843   1.26837   1.27472   1.30779
 Alpha virt. eigenvalues --    1.33372   1.45925   1.48254   1.54970   1.56468
 Alpha virt. eigenvalues --    1.60561   1.64725   1.68835   1.74922   1.75874
 Alpha virt. eigenvalues --    1.78277   1.79143   1.81834   1.82589   1.83635
 Alpha virt. eigenvalues --    1.84094   1.84626   1.85913   1.88473   1.91500
 Alpha virt. eigenvalues --    1.92984   1.95326   1.95836   2.00518   2.03251
 Alpha virt. eigenvalues --    2.24024   2.25455   2.38471   2.52925   2.58726
 Alpha virt. eigenvalues --    3.09608   3.50833   3.95613   3.98347   4.09411
 Alpha virt. eigenvalues --    4.10621   4.28679
          Condensed to atoms (all electrons):
              1          2          3          4          5          6
     1  Ca  18.286943   0.223311  -0.013758  -0.065312   0.006915   0.004611
     2  O    0.223311   8.761032   0.220491  -0.056822   0.003889   0.000377
     3  Ca  -0.013758   0.220491  18.278168  -0.017910   0.004220   0.001009
     4  P   -0.065312  -0.056822  -0.017910  15.326427  -0.097240  -0.083692
     5  O    0.006915   0.003889   0.004220  -0.097240   8.411733   0.066916
     6  O    0.004611   0.000377   0.001009  -0.083692   0.066916   8.316076
     7  O    0.107349   0.011996   0.015111  -0.457582   0.004489   0.023843
     8  Ca  -0.015398   0.001512  -0.011555   0.031581   0.058629   0.153559
     9  O    0.025856   0.012691   0.093970  -0.358850   0.032314   0.009834
              7          8          9
     1  Ca   0.107349  -0.015398   0.025856
     2  O    0.011996   0.001512   0.012691
     3  Ca   0.015111  -0.011555   0.093970
     4  P   -0.457582   0.031581  -0.358850
     5  O    0.004489   0.058629   0.032314
     6  O    0.023843   0.153559   0.009834
     7  O    9.110727   0.053156   0.079553
     8  Ca   0.053156  18.293257   0.034952
     9  O    0.079553   0.034952   9.007608
 Mulliken atomic charges:
              1
     1  Ca   1.439483
     2  O   -1.178477
     3  Ca   1.430255
     4  P    0.779400
     5  O   -0.491866
     6  O   -0.492532
     7  O   -0.948642
     8  Ca   1.400308
     9  O   -0.937928
 Sum of Mulliken charges=   1.00000
 Atomic charges with hydrogens summed into heavy atoms:
              1
     1  Ca   1.439483
     2  O   -1.178477
     3  Ca   1.430255
     4  P    0.779400
     5  O   -0.491866
     6  O   -0.492532
     7  O   -0.948642
     8  Ca   1.400308
     9  O   -0.937928
 Sum of Mulliken charges=   1.00000
 Electronic spatial extent (au):  <R**2>=  2430.4773
 Charge=     1.0000 electrons
 Dipole moment (field-independent basis, Debye):
    X=     4.9678    Y=    -1.7034    Z=     8.6782  Tot=    10.1436
 Quadrupole moment (field-independent basis, Debye-Ang):
   XX=   -75.2049   YY=   -34.6913   ZZ=   -68.0814
   XY=     4.3927   XZ=   -29.7822   YZ=    -0.7704
 Traceless Quadrupole moment (field-independent basis, Debye-Ang):
   XX=   -15.8790   YY=    24.6346   ZZ=    -8.7555
   XY=     4.3927   XZ=   -29.7822   YZ=    -0.7704
 Octapole moment (field-independent basis, Debye-Ang**2):
  XXX=   -31.2810  YYY=    20.0378  ZZZ=    41.4061  XYY=   113.4141
  XXY=   -46.8996  XXZ=    63.0547  XZZ=   -20.1530  YZZ=    -3.2063
  YYZ=     9.4387  XYZ=     7.1765
 Hexadecapole moment (field-independent basis, Debye-Ang**3):
 XXXX= -2125.1045 YYYY=  -429.0592 ZZZZ=  -293.0670 XXXY=     3.9879
 XXXZ=  -255.1987 YYYX=    25.3012 YYYZ=     6.0289 ZZZX=   -85.6679
 ZZZY=    -5.1880 XXYY=  -199.0801 XXZZ=  -304.6683 YYZZ=  -144.6760
 XXYZ=    -3.4555 YYXZ=   -16.8836 ZZXY=     8.2599
 N-N= 1.004875710229D+03 E-N=-8.510932377423D+03  KE= 2.742148476147D+03
 Merz-Kollman atomic radii used.
 Read replacement radii for each type of atom:
 Rad(20) =   1.188000000000D+00
 Atom Element Radius
    1    20    1.19
    2     8    1.40
    3    20    1.19
    4    15    1.80
    5     8    1.40
    6     8    1.40
    7     8    1.40
    8    20    1.19
    9     8    1.40

 **********************************************************************

            Electrostatic Properties Using The SCF Density

 **********************************************************************

       Atomic Center    1 is at   2.016012 -1.745557 -0.018859
       Atomic Center    2 is at   2.875310  0.176404  0.254871
       Atomic Center    3 is at   1.713778  1.946153  0.105411
       Atomic Center    4 is at  -0.445130 -0.069189 -0.944569
       Atomic Center    5 is at  -2.113530 -0.300400 -1.214379
       Atomic Center    6 is at  -3.114391  0.671639 -0.623819
       Atomic Center    7 is at  -0.251229 -1.363199  0.085251
       Atomic Center    8 is at  -2.184050 -0.272531  1.152501
       Atomic Center    9 is at  -0.425891  1.125121  0.171511
     765 points will be used for fitting atomic charges
 Fitting point charges to eletrostatic potential
 Charges from ESP fit, RMS=   0.00703 RRMS=   0.04465:
 Charge=   1.00000 Dipole=     5.0092    -1.8972     8.7400 Tot=    10.2508
              1
     1  Ca   1.707877
     2  O   -1.555525
     3  Ca   1.690556
     4  P    0.130986
     5  O   -0.129594
     6  O   -0.614847
     7  O   -1.004422
     8  Ca   1.636711
     9  O   -0.861742
 -----------------------------------------------------------------

              Electrostatic Properties (Atomic Units)

 -----------------------------------------------------------------
    Center     Electric         -------- Electric Field --------
               Potential          X             Y             Z
 -----------------------------------------------------------------
    1 Atom    -80.040608
    2 Atom    -22.326705
    3 Atom    -80.039476
    4 Atom    -53.945314
    5 Atom    -22.200169
    6 Atom    -22.259507
    7 Atom    -22.228799
    8 Atom    -80.021312
    9 Atom    -22.231482
 -----------------------------------------------------------------
 1\1\GINC-N025\SP\RB3LYP\6-31+G(d,p)\Ca3O5P1(1+)\TIMN\12-Jun-2015\0\\# 
 b3lyp/6-31+G(d,p) int=ultrafine pop=(ReadRadii,MK)\\mol_17.29.29.pdbcc
 _plusQ.z58610.zip.xyz\\1,1\Ca,0,2.01601,-1.74556,-0.01886\O,0,2.87531,
 0.1764,0.25487\Ca,0,1.71378,1.94615,0.10541\P,0,-0.44513,-0.06919,-0.9
 4457\O,0,-2.11353,-0.3004,-1.21438\O,0,-3.11439,0.67164,-0.62382\O,0,-
 0.25123,-1.3632,0.08525\Ca,0,-2.18405,-0.27253,1.1525\O,0,-0.42589,1.1
 2512,0.17151\\Version=EM64T-G03RevE.01\State=1-A\HF=-2750.1177472\RMSD
 =4.751e-05\Thermal=0.\Dipole=1.9544859,-0.6701563,3.4142731\PG=C01 [X(
 Ca3O5P1)]\\@


 This summer one third of the nation will be ill-housed
 ill-nourished and ill-clad. Only they call it a vacation.
 -- Jonas Salk
 Job cpu time:  0 days  0 hours  2 minutes 19.1 seconds.
 File lengths (MBytes):  RWF=     36 Int=      0 D2E=      0 Chk=     11 Scr=      1
 Normal termination of Gaussian 03 at Fri Jun 12 18:12:55 2015.
