 Entering Gaussian System, Link 0=/home/timn/tmp/g03.e01/g03
 Input=mol_17.26.12.pdbcc_plusQ.z58371.zip.xyz.gjf
 Output=mol_17.26.12.pdbcc_plusQ.z58371.zip.xyz.out
 Initial command:
 /home/timn/tmp/g03.e01/l1.exe /home/timn/tmp/g03.e01/Gau-14978.inp -scrdir=/home/timn/tmp/g03.e01/
 Default is to use a total of   2 processors:
                                2 via shared-memory
                                1 via Linda
 Entering Link 1 = /home/timn/tmp/g03.e01/l1.exe PID=     14979.
  
 Copyright (c) 1988,1990,1992,1993,1995,1998,2003,2004,2007, Gaussian, Inc.
                  All Rights Reserved.
  
 This is the Gaussian(R) 03 program.  It is based on the
 the Gaussian(R) 98 system (copyright 1998, Gaussian, Inc.),
 the Gaussian(R) 94 system (copyright 1995, Gaussian, Inc.),
 the Gaussian 92(TM) system (copyright 1992, Gaussian, Inc.),
 the Gaussian 90(TM) system (copyright 1990, Gaussian, Inc.),
 the Gaussian 88(TM) system (copyright 1988, Gaussian, Inc.),
 the Gaussian 86(TM) system (copyright 1986, Carnegie Mellon
 University), and the Gaussian 82(TM) system (copyright 1983,
 Carnegie Mellon University). Gaussian is a federally registered
 trademark of Gaussian, Inc.
  
 This software contains proprietary and confidential information,
 including trade secrets, belonging to Gaussian, Inc.
  
 This software is provided under written license and may be
 used, copied, transmitted, or stored only in accord with that
 written license.
  
 The following legend is applicable only to US Government
 contracts under FAR:
  
                    RESTRICTED RIGHTS LEGEND
  
 Use, reproduction and disclosure by the US Government is
 subject to restrictions as set forth in subparagraphs (a)
 and (c) of the Commercial Computer Software - Restricted
 Rights clause in FAR 52.227-19.
  
 Gaussian, Inc.
 340 Quinnipiac St., Bldg. 40, Wallingford CT 06492
  
  
 ---------------------------------------------------------------
 Warning -- This program may not be used in any manner that
 competes with the business of Gaussian, Inc. or will provide
 assistance to any competitor of Gaussian, Inc.  The licensee
 of this program is prohibited from giving any competitor of
 Gaussian, Inc. access to this program.  By using this program,
 the user acknowledges that Gaussian, Inc. is engaged in the
 business of creating and licensing software in the field of
 computational chemistry and represents and warrants to the
 licensee that it is not a competitor of Gaussian, Inc. and that
 it will not use this program in any manner prohibited above.
 ---------------------------------------------------------------
  

 Cite this work as:
 Gaussian 03, Revision E.01,
 M. J. Frisch, G. W. Trucks, H. B. Schlegel, G. E. Scuseria, 
 M. A. Robb, J. R. Cheeseman, J. A. Montgomery, Jr., T. Vreven, 
 K. N. Kudin, J. C. Burant, J. M. Millam, S. S. Iyengar, J. Tomasi, 
 V. Barone, B. Mennucci, M. Cossi, G. Scalmani, N. Rega, 
 G. A. Petersson, H. Nakatsuji, M. Hada, M. Ehara, K. Toyota, 
 R. Fukuda, J. Hasegawa, M. Ishida, T. Nakajima, Y. Honda, O. Kitao, 
 H. Nakai, M. Klene, X. Li, J. E. Knox, H. P. Hratchian, J. B. Cross, 
 V. Bakken, C. Adamo, J. Jaramillo, R. Gomperts, R. E. Stratmann, 
 O. Yazyev, A. J. Austin, R. Cammi, C. Pomelli, J. W. Ochterski, 
 P. Y. Ayala, K. Morokuma, G. A. Voth, P. Salvador, J. J. Dannenberg, 
 V. G. Zakrzewski, S. Dapprich, A. D. Daniels, M. C. Strain, 
 O. Farkas, D. K. Malick, A. D. Rabuck, K. Raghavachari, 
 J. B. Foresman, J. V. Ortiz, Q. Cui, A. G. Baboul, S. Clifford, 
 J. Cioslowski, B. B. Stefanov, G. Liu, A. Liashenko, P. Piskorz, 
 I. Komaromi, R. L. Martin, D. J. Fox, T. Keith, M. A. Al-Laham, 
 C. Y. Peng, A. Nanayakkara, M. Challacombe, P. M. W. Gill, 
 B. Johnson, W. Chen, M. W. Wong, C. Gonzalez, and J. A. Pople, 
 Gaussian, Inc., Wallingford CT, 2004.
 
 ******************************************
 Gaussian 03:  EM64T-G03RevE.01 11-Sep-2007
                12-Jun-2015 
 ******************************************
 %nproc=2
 Will use up to    2 processors via shared memory.
 Default route:  MP2=Direct MaxDisk=2000MB
 ----------------------------------------------------
 # b3lyp/6-31+G(d,p) int=ultrafine pop=(ReadRadii,MK)
 ----------------------------------------------------

 Warning!  SCF SP cutoffs with diffuse functions may be unreliable.
 Consider SCF=Tight

 1/38=1/1;
 2/17=6,18=5,40=1/2;
 3/5=1,6=6,7=111,11=2,16=1,25=1,30=1,74=-5,75=5/1,2,3;
 4//1;
 5/5=2,32=1,38=5/2;
 6/7=2,8=2,9=2,10=2,15=8,20=101,28=1/1,2;
 99/5=1,9=1/99;
 ---------------------------------------
 mol_17.26.12.pdbcc_plusQ.z58371.zip.xyz
 ---------------------------------------
 Symbolic Z-matrix:
 Charge =  1 Multiplicity = 1
 O                     0.75638  -1.24958  -0.03382 
 O                     0.75845   1.2504   -0.03564 
 P                     0.97261   0.00107   1.11046 
 O                     2.54291  -0.00015   1.2451 
 Ca                    2.53402  -0.00166  -1.02155 
 Ca                   -1.43997   1.80074  -0.04436 
 O                    -2.37839   0.00033  -1.01572 
 O                    -2.63306   0.00086   0.53137 
 Ca                   -1.44202  -1.80063  -0.04345 
 
                          Input orientation:                          
 ---------------------------------------------------------------------
 Center     Atomic     Atomic              Coordinates (Angstroms)
 Number     Number      Type              X           Y           Z
 ---------------------------------------------------------------------
    1          8             0        0.756380   -1.249580   -0.033820
    2          8             0        0.758450    1.250400   -0.035640
    3         15             0        0.972610    0.001070    1.110460
    4          8             0        2.542910   -0.000150    1.245100
    5         20             0        2.534020   -0.001660   -1.021550
    6         20             0       -1.439970    1.800740   -0.044360
    7          8             0       -2.378390    0.000330   -1.015720
    8          8             0       -2.633060    0.000860    0.531370
    9         20             0       -1.442020   -1.800630   -0.043450
 ---------------------------------------------------------------------
                    Distance matrix (angstroms):
                    1          2          3          4          5
     1  O    0.000000
     2  O    2.499982   0.000000
     3  P    1.708876   1.708870   0.000000
     4  O    2.527529   2.527542   1.576062   0.000000
     5  Ca   2.385984   2.385859   2.642627   2.266668   0.000000
     6  Ca   3.758792   2.266275   3.223812   4.557329   4.471705
     7  O    3.514710   3.516105   3.968607   5.415764   4.912414
     8  O    3.656685   3.658578   3.651876   5.224948   5.395395
     9  Ca   2.266431   3.761770   3.226154   4.558701   4.472345
                    6          7          8          9
     6  Ca   0.000000
     7  O    2.250700   0.000000
     8  O    2.234837   1.567911   0.000000
     9  Ca   3.601371   2.250679   2.234807   0.000000
 Stoichiometry    Ca3O5P(1+)
 Framework group  C1[X(Ca3O5P)]
 Deg. of freedom    21
 Full point group                 C1
 Largest Abelian subgroup         C1      NOp   1
 Largest concise Abelian subgroup C1      NOp   1
                         Standard orientation:                         
 ---------------------------------------------------------------------
 Center     Atomic     Atomic              Coordinates (Angstroms)
 Number     Number      Type              X           Y           Z
 ---------------------------------------------------------------------
    1          8             0        0.756377   -1.249581   -0.033820
    2          8             0        0.758451    1.250399   -0.035640
    3         15             0        0.972609    0.001069    1.110460
    4          8             0        2.542909   -0.000153    1.245100
    5         20             0        2.534019   -0.001663   -1.021550
    6         20             0       -1.439968    1.800743   -0.044360
    7          8             0       -2.378391    0.000334   -1.015720
    8          8             0       -2.633061    0.000865    0.531370
    9         20             0       -1.442023   -1.800627   -0.043450
 ---------------------------------------------------------------------
 Rotational constants (GHZ):      1.1616948      0.5609581      0.4661473
 Standard basis: 6-31+G(d,p) (6D, 7F)
 There are   199 symmetry adapted basis functions of A   symmetry.
 Integral buffers will be    131072 words long.
 Raffenetti 2 integral format.
 Two-electron integral symmetry is turned on.
   199 basis functions,   456 primitive gaussians,   199 cartesian basis functions
    57 alpha electrons       57 beta electrons
       nuclear repulsion energy      1021.6008417033 Hartrees.
 NAtoms=    9 NActive=    9 NUniq=    9 SFac= 7.50D-01 NAtFMM=   80 NAOKFM=F Big=F
 One-electron integrals computed using PRISM.
 NBasis=   199 RedAO= T  NBF=   199
 NBsUse=   199 1.00D-06 NBFU=   199
 Harris functional with IExCor=  402 diagonalized for initial guess.
 ExpMin= 7.10D-03 ExpMax= 3.53D+04 ExpMxC= 5.30D+03 IAcc=3 IRadAn=         5 AccDes= 0.00D+00
 HarFok:  IExCor= 402 AccDes= 0.00D+00 IRadAn=         5 IDoV=1
 ScaDFX=  1.000000  1.000000  1.000000  1.000000
 Initial guess orbital symmetries:
       Occupied  (A) (A) (A) (A) (A) (A) (A) (A) (A) (A) (A) (A)
                 (A) (A) (A) (A) (A) (A) (A) (A) (A) (A) (A) (A)
                 (A) (A) (A) (A) (A) (A) (A) (A) (A) (A) (A) (A)
                 (A) (A) (A) (A) (A) (A) (A) (A) (A) (A) (A) (A)
                 (A) (A) (A) (A) (A) (A) (A) (A) (A)
       Virtual   (A) (A) (A) (A) (A) (A) (A) (A) (A) (A) (A) (A)
                 (A) (A) (A) (A) (A) (A) (A) (A) (A) (A) (A) (A)
                 (A) (A) (A) (A) (A) (A) (A) (A) (A) (A) (A) (A)
                 (A) (A) (A) (A) (A) (A) (A) (A) (A) (A) (A) (A)
                 (A) (A) (A) (A) (A) (A) (A) (A) (A) (A) (A) (A)
                 (A) (A) (A) (A) (A) (A) (A) (A) (A) (A) (A) (A)
                 (A) (A) (A) (A) (A) (A) (A) (A) (A) (A) (A) (A)
                 (A) (A) (A) (A) (A) (A) (A) (A) (A) (A) (A) (A)
                 (A) (A) (A) (A) (A) (A) (A) (A) (A) (A) (A) (A)
                 (A) (A) (A) (A) (A) (A) (A) (A) (A) (A) (A) (A)
                 (A) (A) (A) (A) (A) (A) (A) (A) (A) (A) (A) (A)
                 (A) (A) (A) (A) (A) (A) (A) (A) (A) (A)
 The electronic state of the initial guess is 1-A.
 Requested convergence on RMS density matrix=1.00D-04 within 128 cycles.
 Requested convergence on MAX density matrix=1.00D-02.
 Requested convergence on             energy=1.00D-02.
 No special actions if energy rises.
 SCF Done:  E(RB+HF-LYP) =  -2750.19821009     A.U. after    7 cycles
             Convg  =    0.3783D-04             -V/T =  2.0029
             S**2   =   0.0000

 **********************************************************************

            Population analysis using the SCF density.

 **********************************************************************

 Orbital symmetries:
       Occupied  (A) (A) (A) (A) (A) (A) (A) (A) (A) (A) (A) (A)
                 (A) (A) (A) (A) (A) (A) (A) (A) (A) (A) (A) (A)
                 (A) (A) (A) (A) (A) (A) (A) (A) (A) (A) (A) (A)
                 (A) (A) (A) (A) (A) (A) (A) (A) (A) (A) (A) (A)
                 (A) (A) (A) (A) (A) (A) (A) (A) (A)
       Virtual   (A) (A) (A) (A) (A) (A) (A) (A) (A) (A) (A) (A)
                 (A) (A) (A) (A) (A) (A) (A) (A) (A) (A) (A) (A)
                 (A) (A) (A) (A) (A) (A) (A) (A) (A) (A) (A) (A)
                 (A) (A) (A) (A) (A) (A) (A) (A) (A) (A) (A) (A)
                 (A) (A) (A) (A) (A) (A) (A) (A) (A) (A) (A) (A)
                 (A) (A) (A) (A) (A) (A) (A) (A) (A) (A) (A) (A)
                 (A) (A) (A) (A) (A) (A) (A) (A) (A) (A) (A) (A)
                 (A) (A) (A) (A) (A) (A) (A) (A) (A) (A) (A) (A)
                 (A) (A) (A) (A) (A) (A) (A) (A) (A) (A) (A) (A)
                 (A) (A) (A) (A) (A) (A) (A) (A) (A) (A) (A) (A)
                 (A) (A) (A) (A) (A) (A) (A) (A) (A) (A) (A) (A)
                 (A) (A) (A) (A) (A) (A) (A) (A) (A) (A)
 The electronic state is 1-A.
 Alpha  occ. eigenvalues -- -145.52887-145.49504-145.49496 -77.24301 -19.22794
 Alpha  occ. eigenvalues --  -19.22507 -19.21327 -19.21324 -19.19021 -15.59679
 Alpha  occ. eigenvalues --  -15.56366 -15.56358 -12.72862 -12.72858 -12.72845
 Alpha  occ. eigenvalues --  -12.69593 -12.69584 -12.69567 -12.69559 -12.69456
 Alpha  occ. eigenvalues --  -12.69448  -6.69589  -4.85970  -4.85894  -4.85453
 Alpha  occ. eigenvalues --   -1.96714  -1.93609  -1.93574  -1.24677  -1.23979
 Alpha  occ. eigenvalues --   -1.23940  -1.22275  -1.21280  -1.21228  -1.21052
 Alpha  occ. eigenvalues --   -1.21027  -1.20594  -1.06715  -1.05361  -0.99868
 Alpha  occ. eigenvalues --   -0.99597  -0.86449  -0.61783  -0.49597  -0.49236
 Alpha  occ. eigenvalues --   -0.48396  -0.46090  -0.44983  -0.43562  -0.42567
 Alpha  occ. eigenvalues --   -0.41980  -0.37838  -0.37836  -0.34588  -0.33872
 Alpha  occ. eigenvalues --   -0.32214  -0.31069
 Alpha virt. eigenvalues --   -0.20490  -0.17974  -0.17402  -0.13048  -0.12114
 Alpha virt. eigenvalues --   -0.11133  -0.09670  -0.08664  -0.08334  -0.07573
 Alpha virt. eigenvalues --   -0.06945  -0.06821  -0.06582  -0.06264  -0.05324
 Alpha virt. eigenvalues --   -0.05148  -0.04820  -0.04472  -0.04468  -0.04014
 Alpha virt. eigenvalues --   -0.03941  -0.03763  -0.03231  -0.03169  -0.02968
 Alpha virt. eigenvalues --   -0.02685  -0.01945  -0.00441   0.00559   0.01167
 Alpha virt. eigenvalues --    0.02331   0.02490   0.03648   0.04437   0.04807
 Alpha virt. eigenvalues --    0.04976   0.05024   0.05610   0.06119   0.06243
 Alpha virt. eigenvalues --    0.07164   0.07740   0.07854   0.08484   0.08961
 Alpha virt. eigenvalues --    0.09239   0.09949   0.10313   0.10781   0.10823
 Alpha virt. eigenvalues --    0.14424   0.14431   0.15134   0.15490   0.17005
 Alpha virt. eigenvalues --    0.18159   0.19204   0.20543   0.21564   0.21605
 Alpha virt. eigenvalues --    0.22781   0.22881   0.25157   0.25498   0.26934
 Alpha virt. eigenvalues --    0.28231   0.28249   0.29200   0.32229   0.33092
 Alpha virt. eigenvalues --    0.33402   0.34934   0.37595   0.37882   0.39088
 Alpha virt. eigenvalues --    0.40798   0.45280   0.46835   0.47673   0.53193
 Alpha virt. eigenvalues --    0.57460   0.58561   0.62388   0.66978   0.67844
 Alpha virt. eigenvalues --    0.73398   0.76083   0.88127   0.89061   0.94177
 Alpha virt. eigenvalues --    1.00748   1.12055   1.14049   1.14901   1.15032
 Alpha virt. eigenvalues --    1.17229   1.18759   1.19110   1.19487   1.19929
 Alpha virt. eigenvalues --    1.22528   1.23273   1.27807   1.28763   1.29181
 Alpha virt. eigenvalues --    1.35371   1.52140   1.52981   1.55318   1.56126
 Alpha virt. eigenvalues --    1.56698   1.64419   1.73000   1.73308   1.77169
 Alpha virt. eigenvalues --    1.77668   1.78431   1.79855   1.80524   1.80891
 Alpha virt. eigenvalues --    1.83342   1.84893   1.84944   1.87141   1.88458
 Alpha virt. eigenvalues --    1.90140   1.95337   1.97370   2.02599   2.10429
 Alpha virt. eigenvalues --    2.19639   2.21208   2.39277   2.49180   2.70226
 Alpha virt. eigenvalues --    3.04158   3.51732   4.03094   4.05731   4.10355
 Alpha virt. eigenvalues --    4.15823   4.19118
          Condensed to atoms (all electrons):
              1          2          3          4          5          6
     1  O    9.109105   0.086077  -0.429960   0.016736   0.024518   0.032617
     2  O    0.086077   9.108334  -0.429575   0.016698   0.024589   0.116306
     3  P   -0.429960  -0.429575  15.061079   0.009141   0.207286  -0.076642
     4  O    0.016736   0.016698   0.009141   8.693312   0.102333   0.014756
     5  Ca   0.024518   0.024589   0.207286   0.102333  18.326358  -0.020699
     6  Ca   0.032617   0.116306  -0.076642   0.014756  -0.020699  18.264104
     7  O    0.014328   0.014357  -0.048153  -0.000588  -0.000043   0.105833
     8  O    0.002533   0.002486  -0.020459   0.002740  -0.000957   0.104590
     9  Ca   0.116097   0.032490  -0.076508   0.014717  -0.020661  -0.025925
              7          8          9
     1  O    0.014328   0.002533   0.116097
     2  O    0.014357   0.002486   0.032490
     3  P   -0.048153  -0.020459  -0.076508
     4  O   -0.000588   0.002740   0.014717
     5  Ca  -0.000043  -0.000957  -0.020661
     6  Ca   0.105833   0.104590  -0.025925
     7  O    8.472284  -0.004062   0.105831
     8  O   -0.004062   8.466604   0.104607
     9  Ca   0.105831   0.104607  18.263959
 Mulliken atomic charges:
              1
     1  O   -0.972050
     2  O   -0.971760
     3  P    0.803791
     4  O   -0.869845
     5  Ca   1.357277
     6  Ca   1.485061
     7  O   -0.659786
     8  O   -0.658080
     9  Ca   1.485392
 Sum of Mulliken charges=   1.00000
 Atomic charges with hydrogens summed into heavy atoms:
              1
     1  O   -0.972050
     2  O   -0.971760
     3  P    0.803791
     4  O   -0.869845
     5  Ca   1.357277
     6  Ca   1.485061
     7  O   -0.659786
     8  O   -0.658080
     9  Ca   1.485392
 Sum of Mulliken charges=   1.00000
 Electronic spatial extent (au):  <R**2>=  2287.9210
 Charge=     1.0000 electrons
 Dipole moment (field-independent basis, Debye):
    X=     1.3290    Y=    -0.0171    Z=    -8.1482  Tot=     8.2559
 Quadrupole moment (field-independent basis, Debye-Ang):
   XX=   -62.1201   YY=   -36.3265   ZZ=   -75.9307
   XY=    -0.0010   XZ=   -28.8081   YZ=     0.0088
 Traceless Quadrupole moment (field-independent basis, Debye-Ang):
   XX=    -3.9944   YY=    21.7992   ZZ=   -17.8049
   XY=    -0.0010   XZ=   -28.8081   YZ=     0.0088
 Octapole moment (field-independent basis, Debye-Ang**2):
  XXX=   117.7609  YYY=    -0.0350  ZZZ=   -33.8296  XYY=   -94.8272
  XXY=    -0.2175  XXZ=   -76.7096  XZZ=    20.1093  YZZ=    -0.0340
  YYZ=    -7.5858  XYZ=     0.0712
 Hexadecapole moment (field-independent basis, Debye-Ang**3):
 XXXX= -1595.2488 YYYY=  -390.1967 ZZZZ=  -361.1277 XXXY=     0.0386
 XXXZ=  -265.2468 YYYX=     0.0584 YYYZ=    -0.0263 ZZZX=   -88.6318
 ZZZY=    -0.0053 XXYY=  -243.9283 XXZZ=  -320.9761 YYZZ=  -148.1179
 XXYZ=     0.0767 YYXZ=   -11.4879 ZZXY=    -0.0244
 N-N= 1.021600841703D+03 E-N=-8.544932133620D+03  KE= 2.742223837738D+03
 Merz-Kollman atomic radii used.
 Read replacement radii for each type of atom:
 Rad(20) =   1.188000000000D+00
 Atom Element Radius
    1     8    1.40
    2     8    1.40
    3    15    1.80
    4     8    1.40
    5    20    1.19
    6    20    1.19
    7     8    1.40
    8     8    1.40
    9    20    1.19

 **********************************************************************

            Electrostatic Properties Using The SCF Density

 **********************************************************************

       Atomic Center    1 is at   0.756377 -1.249581 -0.033820
       Atomic Center    2 is at   0.758451  1.250399 -0.035640
       Atomic Center    3 is at   0.972609  0.001069  1.110460
       Atomic Center    4 is at   2.542909 -0.000153  1.245100
       Atomic Center    5 is at   2.534019 -0.001663 -1.021550
       Atomic Center    6 is at  -1.439968  1.800743 -0.044360
       Atomic Center    7 is at  -2.378391  0.000334 -1.015720
       Atomic Center    8 is at  -2.633061  0.000865  0.531370
       Atomic Center    9 is at  -1.442023 -1.800627 -0.043450
     768 points will be used for fitting atomic charges
 Fitting point charges to eletrostatic potential
 Charges from ESP fit, RMS=   0.00687 RRMS=   0.04475:
 Charge=   1.00000 Dipole=     1.7760    -0.0171    -8.3184 Tot=     8.5059
              1
     1  O   -1.069999
     2  O   -1.069350
     3  P    0.280022
     4  O   -0.568098
     5  Ca   1.605755
     6  Ca   1.716971
     7  O   -0.800356
     8  O   -0.812163
     9  Ca   1.717218
 -----------------------------------------------------------------

              Electrostatic Properties (Atomic Units)

 -----------------------------------------------------------------
    Center     Electric         -------- Electric Field --------
               Potential          X             Y             Z
 -----------------------------------------------------------------
    1 Atom    -22.250105
    2 Atom    -22.250147
    3 Atom    -53.968846
    4 Atom    -22.276031
    5 Atom    -80.013558
    6 Atom    -80.045442
    7 Atom    -22.240001
    8 Atom    -22.247546
    9 Atom    -80.045355
 -----------------------------------------------------------------
 1\1\GINC-N030\SP\RB3LYP\6-31+G(d,p)\Ca3O5P1(1+)\TIMN\12-Jun-2015\0\\# 
 b3lyp/6-31+G(d,p) int=ultrafine pop=(ReadRadii,MK)\\mol_17.26.12.pdbcc
 _plusQ.z58371.zip.xyz\\1,1\O,0,0.75638,-1.24958,-0.03382\O,0,0.75845,1
 .2504,-0.03564\P,0,0.97261,0.00107,1.11046\O,0,2.54291,-0.00015,1.2451
 \Ca,0,2.53402,-0.00166,-1.02155\Ca,0,-1.43997,1.80074,-0.04436\O,0,-2.
 37839,0.00033,-1.01572\O,0,-2.63306,0.00086,0.53137\Ca,0,-1.44202,-1.8
 0063,-0.04345\\Version=EM64T-G03RevE.01\State=1-A\HF=-2750.1982101\RMS
 D=3.783e-05\Thermal=0.\Dipole=0.5228698,-0.0067137,-3.2057447\PG=C01 [
 X(Ca3O5P1)]\\@


 MAN IS A SINGULAR CREATURE.  HE HAS A SET OF GIFTS
 WHICH MAKE HIM UNIQUE AMONG THE ANIMALS: SO THAT, 
 UNLIKE THEM, HE IS NOT A FIGURE IN THE LANDSCAPE --
 HE IS A SHAPER OF THE LANDSCAPE.

                       -- JACOB BRONOWSKI
 Job cpu time:  0 days  0 hours  1 minutes 49.5 seconds.
 File lengths (MBytes):  RWF=     36 Int=      0 D2E=      0 Chk=     11 Scr=      1
 Normal termination of Gaussian 03 at Fri Jun 12 17:59:28 2015.
