 Entering Gaussian System, Link 0=/home/timn/tmp/g03.e01/g03
 Input=mol_17.24.18.pdbccc_plusQ.z58273.zip.xyz.gjf
 Output=mol_17.24.18.pdbccc_plusQ.z58273.zip.xyz.out
 Initial command:
 /home/timn/tmp/g03.e01/l1.exe /home/timn/tmp/g03.e01/Gau-19090.inp -scrdir=/home/timn/tmp/g03.e01/
 Default is to use a total of   2 processors:
                                2 via shared-memory
                                1 via Linda
 Entering Link 1 = /home/timn/tmp/g03.e01/l1.exe PID=     19091.
  
 Copyright (c) 1988,1990,1992,1993,1995,1998,2003,2004,2007, Gaussian, Inc.
                  All Rights Reserved.
  
 This is the Gaussian(R) 03 program.  It is based on the
 the Gaussian(R) 98 system (copyright 1998, Gaussian, Inc.),
 the Gaussian(R) 94 system (copyright 1995, Gaussian, Inc.),
 the Gaussian 92(TM) system (copyright 1992, Gaussian, Inc.),
 the Gaussian 90(TM) system (copyright 1990, Gaussian, Inc.),
 the Gaussian 88(TM) system (copyright 1988, Gaussian, Inc.),
 the Gaussian 86(TM) system (copyright 1986, Carnegie Mellon
 University), and the Gaussian 82(TM) system (copyright 1983,
 Carnegie Mellon University). Gaussian is a federally registered
 trademark of Gaussian, Inc.
  
 This software contains proprietary and confidential information,
 including trade secrets, belonging to Gaussian, Inc.
  
 This software is provided under written license and may be
 used, copied, transmitted, or stored only in accord with that
 written license.
  
 The following legend is applicable only to US Government
 contracts under FAR:
  
                    RESTRICTED RIGHTS LEGEND
  
 Use, reproduction and disclosure by the US Government is
 subject to restrictions as set forth in subparagraphs (a)
 and (c) of the Commercial Computer Software - Restricted
 Rights clause in FAR 52.227-19.
  
 Gaussian, Inc.
 340 Quinnipiac St., Bldg. 40, Wallingford CT 06492
  
  
 ---------------------------------------------------------------
 Warning -- This program may not be used in any manner that
 competes with the business of Gaussian, Inc. or will provide
 assistance to any competitor of Gaussian, Inc.  The licensee
 of this program is prohibited from giving any competitor of
 Gaussian, Inc. access to this program.  By using this program,
 the user acknowledges that Gaussian, Inc. is engaged in the
 business of creating and licensing software in the field of
 computational chemistry and represents and warrants to the
 licensee that it is not a competitor of Gaussian, Inc. and that
 it will not use this program in any manner prohibited above.
 ---------------------------------------------------------------
  

 Cite this work as:
 Gaussian 03, Revision E.01,
 M. J. Frisch, G. W. Trucks, H. B. Schlegel, G. E. Scuseria, 
 M. A. Robb, J. R. Cheeseman, J. A. Montgomery, Jr., T. Vreven, 
 K. N. Kudin, J. C. Burant, J. M. Millam, S. S. Iyengar, J. Tomasi, 
 V. Barone, B. Mennucci, M. Cossi, G. Scalmani, N. Rega, 
 G. A. Petersson, H. Nakatsuji, M. Hada, M. Ehara, K. Toyota, 
 R. Fukuda, J. Hasegawa, M. Ishida, T. Nakajima, Y. Honda, O. Kitao, 
 H. Nakai, M. Klene, X. Li, J. E. Knox, H. P. Hratchian, J. B. Cross, 
 V. Bakken, C. Adamo, J. Jaramillo, R. Gomperts, R. E. Stratmann, 
 O. Yazyev, A. J. Austin, R. Cammi, C. Pomelli, J. W. Ochterski, 
 P. Y. Ayala, K. Morokuma, G. A. Voth, P. Salvador, J. J. Dannenberg, 
 V. G. Zakrzewski, S. Dapprich, A. D. Daniels, M. C. Strain, 
 O. Farkas, D. K. Malick, A. D. Rabuck, K. Raghavachari, 
 J. B. Foresman, J. V. Ortiz, Q. Cui, A. G. Baboul, S. Clifford, 
 J. Cioslowski, B. B. Stefanov, G. Liu, A. Liashenko, P. Piskorz, 
 I. Komaromi, R. L. Martin, D. J. Fox, T. Keith, M. A. Al-Laham, 
 C. Y. Peng, A. Nanayakkara, M. Challacombe, P. M. W. Gill, 
 B. Johnson, W. Chen, M. W. Wong, C. Gonzalez, and J. A. Pople, 
 Gaussian, Inc., Wallingford CT, 2004.
 
 ******************************************
 Gaussian 03:  EM64T-G03RevE.01 11-Sep-2007
                12-Jun-2015 
 ******************************************
 %nproc=2
 Will use up to    2 processors via shared memory.
 Default route:  MP2=Direct MaxDisk=2000MB
 ----------------------------------------------------
 # b3lyp/6-31+G(d,p) int=ultrafine pop=(ReadRadii,MK)
 ----------------------------------------------------

 Warning!  SCF SP cutoffs with diffuse functions may be unreliable.
 Consider SCF=Tight

 1/38=1/1;
 2/17=6,18=5,40=1/2;
 3/5=1,6=6,7=111,11=2,16=1,25=1,30=1,74=-5,75=5/1,2,3;
 4//1;
 5/5=2,32=1,38=5/2;
 6/7=2,8=2,9=2,10=2,15=8,20=101,28=1/1,2;
 99/5=1,9=1/99;
 ----------------------------------------
 mol_17.24.18.pdbccc_plusQ.z58273.zip.xyz
 ----------------------------------------
 Symbolic Z-matrix:
 Charge =  1 Multiplicity = 1
 O                     3.59202   0.53453  -0.00255 
 O                    -0.62488   1.10493  -0.00057 
 Ca                    1.48144   1.56871   0.00192 
 P                     3.2502   -0.96606  -0.00191 
 O                     1.68711  -1.03969   0.00331 
 Ca                   -0.67948  -1.2779    0.00072 
 Ca                   -2.87144   1.03788  -0.00151 
 O                    -2.78718  -1.05587  -0.78398 
 O                    -2.78748  -1.05427   0.78456 
 
                          Input orientation:                          
 ---------------------------------------------------------------------
 Center     Atomic     Atomic              Coordinates (Angstroms)
 Number     Number      Type              X           Y           Z
 ---------------------------------------------------------------------
    1          8             0        3.592020    0.534530   -0.002550
    2          8             0       -0.624880    1.104930   -0.000570
    3         20             0        1.481440    1.568710    0.001920
    4         15             0        3.250200   -0.966060   -0.001910
    5          8             0        1.687110   -1.039690    0.003310
    6         20             0       -0.679480   -1.277900    0.000720
    7         20             0       -2.871440    1.037880   -0.001510
    8          8             0       -2.787180   -1.055870   -0.783980
    9          8             0       -2.787480   -1.054270    0.784560
 ---------------------------------------------------------------------
                    Distance matrix (angstroms):
                    1          2          3          4          5
     1  O    0.000000
     2  O    4.255303   0.000000
     3  Ca   2.350340   2.156776   0.000000
     4  P    1.539029   4.393774   3.090888   0.000000
     5  O    2.471211   3.153523   2.616496   1.564832   0.000000
     6  Ca   4.640110   2.383456   3.573901   3.942035   2.378550
     7  Ca   6.483030   2.247561   4.385129   6.441293   5.009661
     8  O    6.620740   3.155682   5.072196   6.088486   4.543056
     9  O    6.621318   3.155220   5.071117   6.089326   4.542303
                    6          7          8          9
     6  Ca   0.000000
     7  Ca   3.188657   0.000000
     8  O    2.259967   2.236772   0.000000
     9  O    2.260106   2.236526   1.568541   0.000000
 Stoichiometry    Ca3O5P(1+)
 Framework group  C1[X(Ca3O5P)]
 Deg. of freedom    21
 Full point group                 C1
 Largest Abelian subgroup         C1      NOp   1
 Largest concise Abelian subgroup C1      NOp   1
                         Standard orientation:                         
 ---------------------------------------------------------------------
 Center     Atomic     Atomic              Coordinates (Angstroms)
 Number     Number      Type              X           Y           Z
 ---------------------------------------------------------------------
    1          8             0        3.592019    0.534530   -0.002551
    2          8             0       -0.624881    1.104931   -0.000571
    3         20             0        1.481439    1.568710    0.001919
    4         15             0        3.250199   -0.966060   -0.001911
    5          8             0        1.687109   -1.039690    0.003309
    6         20             0       -0.679481   -1.277899    0.000719
    7         20             0       -2.871441    1.037881   -0.001511
    8          8             0       -2.787181   -1.055869   -0.783981
    9          8             0       -2.787481   -1.054269    0.784559
 ---------------------------------------------------------------------
 Rotational constants (GHZ):      1.5212309      0.3920161      0.3194471
 Standard basis: 6-31+G(d,p) (6D, 7F)
 There are   199 symmetry adapted basis functions of A   symmetry.
 Integral buffers will be    131072 words long.
 Raffenetti 2 integral format.
 Two-electron integral symmetry is turned on.
   199 basis functions,   456 primitive gaussians,   199 cartesian basis functions
    57 alpha electrons       57 beta electrons
       nuclear repulsion energy       956.5771668136 Hartrees.
 NAtoms=    9 NActive=    9 NUniq=    9 SFac= 7.50D-01 NAtFMM=   80 NAOKFM=F Big=F
 One-electron integrals computed using PRISM.
 NBasis=   199 RedAO= T  NBF=   199
 NBsUse=   199 1.00D-06 NBFU=   199
 Harris functional with IExCor=  402 diagonalized for initial guess.
 ExpMin= 7.10D-03 ExpMax= 3.53D+04 ExpMxC= 5.30D+03 IAcc=3 IRadAn=         5 AccDes= 0.00D+00
 HarFok:  IExCor= 402 AccDes= 0.00D+00 IRadAn=         5 IDoV=1
 ScaDFX=  1.000000  1.000000  1.000000  1.000000
 Initial guess orbital symmetries:
       Occupied  (A) (A) (A) (A) (A) (A) (A) (A) (A) (A) (A) (A)
                 (A) (A) (A) (A) (A) (A) (A) (A) (A) (A) (A) (A)
                 (A) (A) (A) (A) (A) (A) (A) (A) (A) (A) (A) (A)
                 (A) (A) (A) (A) (A) (A) (A) (A) (A) (A) (A) (A)
                 (A) (A) (A) (A) (A) (A) (A) (A) (A)
       Virtual   (A) (A) (A) (A) (A) (A) (A) (A) (A) (A) (A) (A)
                 (A) (A) (A) (A) (A) (A) (A) (A) (A) (A) (A) (A)
                 (A) (A) (A) (A) (A) (A) (A) (A) (A) (A) (A) (A)
                 (A) (A) (A) (A) (A) (A) (A) (A) (A) (A) (A) (A)
                 (A) (A) (A) (A) (A) (A) (A) (A) (A) (A) (A) (A)
                 (A) (A) (A) (A) (A) (A) (A) (A) (A) (A) (A) (A)
                 (A) (A) (A) (A) (A) (A) (A) (A) (A) (A) (A) (A)
                 (A) (A) (A) (A) (A) (A) (A) (A) (A) (A) (A) (A)
                 (A) (A) (A) (A) (A) (A) (A) (A) (A) (A) (A) (A)
                 (A) (A) (A) (A) (A) (A) (A) (A) (A) (A) (A) (A)
                 (A) (A) (A) (A) (A) (A) (A) (A) (A) (A) (A) (A)
                 (A) (A) (A) (A) (A) (A) (A) (A) (A) (A)
 The electronic state of the initial guess is 1-A.
 Requested convergence on RMS density matrix=1.00D-04 within 128 cycles.
 Requested convergence on MAX density matrix=1.00D-02.
 Requested convergence on             energy=1.00D-02.
 No special actions if energy rises.
 EnCoef did     2 forward-backward iterations
 SCF Done:  E(RB+HF-LYP) =  -2750.21059023     A.U. after    9 cycles
             Convg  =    0.7415D-04             -V/T =  2.0029
             S**2   =   0.0000

 **********************************************************************

            Population analysis using the SCF density.

 **********************************************************************

 Orbital symmetries:
       Occupied  (A) (A) (A) (A) (A) (A) (A) (A) (A) (A) (A) (A)
                 (A) (A) (A) (A) (A) (A) (A) (A) (A) (A) (A) (A)
                 (A) (A) (A) (A) (A) (A) (A) (A) (A) (A) (A) (A)
                 (A) (A) (A) (A) (A) (A) (A) (A) (A) (A) (A) (A)
                 (A) (A) (A) (A) (A) (A) (A) (A) (A)
       Virtual   (A) (A) (A) (A) (A) (A) (A) (A) (A) (A) (A) (A)
                 (A) (A) (A) (A) (A) (A) (A) (A) (A) (A) (A) (A)
                 (A) (A) (A) (A) (A) (A) (A) (A) (A) (A) (A) (A)
                 (A) (A) (A) (A) (A) (A) (A) (A) (A) (A) (A) (A)
                 (A) (A) (A) (A) (A) (A) (A) (A) (A) (A) (A) (A)
                 (A) (A) (A) (A) (A) (A) (A) (A) (A) (A) (A) (A)
                 (A) (A) (A) (A) (A) (A) (A) (A) (A) (A) (A) (A)
                 (A) (A) (A) (A) (A) (A) (A) (A) (A) (A) (A) (A)
                 (A) (A) (A) (A) (A) (A) (A) (A) (A) (A) (A) (A)
                 (A) (A) (A) (A) (A) (A) (A) (A) (A) (A) (A) (A)
                 (A) (A) (A) (A) (A) (A) (A) (A) (A) (A) (A) (A)
                 (A) (A) (A) (A) (A) (A) (A) (A) (A) (A)
 The electronic state is 1-A.
 Alpha  occ. eigenvalues -- -145.52558-145.47910-145.45921 -77.31434 -19.29697
 Alpha  occ. eigenvalues --  -19.28905 -19.20247 -19.20242 -19.17091 -15.59457
 Alpha  occ. eigenvalues --  -15.54777 -15.52785 -12.72722 -12.72680 -12.72478
 Alpha  occ. eigenvalues --  -12.67987 -12.67957 -12.67886 -12.66022 -12.65984
 Alpha  occ. eigenvalues --  -12.65869  -6.77034  -4.93464  -4.93239  -4.92820
 Alpha  occ. eigenvalues --   -1.96690  -1.92081  -1.90153  -1.24614  -1.24613
 Alpha  occ. eigenvalues --   -1.23575  -1.20507  -1.19690  -1.19277  -1.18004
 Alpha  occ. eigenvalues --   -1.17952  -1.17607  -1.15369  -1.09607  -1.02813
 Alpha  occ. eigenvalues --   -0.91871  -0.84020  -0.68625  -0.57621  -0.54924
 Alpha  occ. eigenvalues --   -0.54235  -0.46667  -0.45219  -0.43701  -0.42880
 Alpha  occ. eigenvalues --   -0.41972  -0.41273  -0.37523  -0.36618  -0.35912
 Alpha  occ. eigenvalues --   -0.30789  -0.29139
 Alpha virt. eigenvalues --   -0.21351  -0.20119  -0.17699  -0.14554  -0.13028
 Alpha virt. eigenvalues --   -0.11137  -0.10813  -0.10362  -0.09099  -0.08477
 Alpha virt. eigenvalues --   -0.07857  -0.07111  -0.06764  -0.06248  -0.05623
 Alpha virt. eigenvalues --   -0.05188  -0.04719  -0.04683  -0.04463  -0.04345
 Alpha virt. eigenvalues --   -0.04003  -0.03716  -0.03702  -0.03625  -0.03171
 Alpha virt. eigenvalues --   -0.02778  -0.02662  -0.02450  -0.01921  -0.00111
 Alpha virt. eigenvalues --    0.01318   0.02751   0.03373   0.03462   0.03667
 Alpha virt. eigenvalues --    0.04876   0.05034   0.05907   0.05977   0.06289
 Alpha virt. eigenvalues --    0.06567   0.07099   0.07284   0.08208   0.08738
 Alpha virt. eigenvalues --    0.09189   0.10300   0.10756   0.10901   0.11387
 Alpha virt. eigenvalues --    0.11449   0.13514   0.15040   0.15052   0.16478
 Alpha virt. eigenvalues --    0.17259   0.17694   0.19056   0.19834   0.20082
 Alpha virt. eigenvalues --    0.21548   0.22357   0.23471   0.24144   0.26706
 Alpha virt. eigenvalues --    0.27515   0.28808   0.30334   0.31206   0.31257
 Alpha virt. eigenvalues --    0.32413   0.33481   0.34884   0.36804   0.38060
 Alpha virt. eigenvalues --    0.40604   0.42567   0.45777   0.46806   0.52515
 Alpha virt. eigenvalues --    0.52871   0.54093   0.57482   0.60743   0.64092
 Alpha virt. eigenvalues --    0.65167   0.85571   0.92293   0.94294   1.05084
 Alpha virt. eigenvalues --    1.07476   1.07511   1.10995   1.12561   1.14745
 Alpha virt. eigenvalues --    1.16118   1.16292   1.17430   1.19991   1.20580
 Alpha virt. eigenvalues --    1.21710   1.22830   1.25531   1.28478   1.32393
 Alpha virt. eigenvalues --    1.37936   1.41092   1.48246   1.53847   1.54181
 Alpha virt. eigenvalues --    1.54813   1.63715   1.66321   1.68679   1.69451
 Alpha virt. eigenvalues --    1.72705   1.73061   1.76777   1.78368   1.80073
 Alpha virt. eigenvalues --    1.80383   1.83372   1.84206   1.85140   1.86549
 Alpha virt. eigenvalues --    1.89066   1.92108   1.95266   2.01475   2.05564
 Alpha virt. eigenvalues --    2.12199   2.21778   2.24113   2.51059   2.67683
 Alpha virt. eigenvalues --    3.06846   3.38672   3.86002   3.88088   3.95567
 Alpha virt. eigenvalues --    4.10910   4.14268
          Condensed to atoms (all electrons):
              1          2          3          4          5          6
     1  O    8.555043  -0.000428   0.076925   0.091444  -0.075088   0.005432
     2  O   -0.000428   8.991785   0.196320  -0.008602  -0.012875   0.055053
     3  Ca   0.076925   0.196320  18.254160  -0.019976   0.017705  -0.005220
     4  P    0.091444  -0.008602  -0.019976  14.409574  -0.144396   0.004718
     5  O   -0.075088  -0.012875   0.017705  -0.144396   8.914863   0.037168
     6  Ca   0.005432   0.055053  -0.005220   0.004718   0.037168  18.343281
     7  Ca   0.002346   0.109018  -0.013897  -0.012695   0.005408  -0.047310
     8  O    0.000005  -0.003739  -0.001012  -0.000101  -0.001588   0.106894
     9  O    0.000005  -0.003694  -0.000976  -0.000074  -0.001578   0.106679
              7          8          9
     1  O    0.002346   0.000005   0.000005
     2  O    0.109018  -0.003739  -0.003694
     3  Ca  -0.013897  -0.001012  -0.000976
     4  P   -0.012695  -0.000101  -0.000074
     5  O    0.005408  -0.001588  -0.001578
     6  Ca  -0.047310   0.106894   0.106679
     7  Ca  18.302973   0.098454   0.098455
     8  O    0.098454   8.485729  -0.030333
     9  O    0.098455  -0.030333   8.485700
 Mulliken atomic charges:
              1
     1  O   -0.655684
     2  O   -1.322838
     3  Ca   1.495970
     4  P    0.680108
     5  O   -0.739618
     6  Ca   1.393308
     7  Ca   1.457248
     8  O   -0.654310
     9  O   -0.654184
 Sum of Mulliken charges=   1.00000
 Atomic charges with hydrogens summed into heavy atoms:
              1
     1  O   -0.655684
     2  O   -1.322838
     3  Ca   1.495970
     4  P    0.680108
     5  O   -0.739618
     6  Ca   1.393308
     7  Ca   1.457248
     8  O   -0.654310
     9  O   -0.654184
 Sum of Mulliken charges=   1.00000
 Electronic spatial extent (au):  <R**2>=  2984.8452
 Charge=     1.0000 electrons
 Dipole moment (field-independent basis, Debye):
    X=     1.5301    Y=     9.0234    Z=     0.0046  Tot=     9.1522
 Quadrupole moment (field-independent basis, Debye-Ang):
   XX=   -64.0401   YY=   -51.7209   ZZ=   -77.1273
   XY=   -21.8863   XZ=     0.0611   YZ=     0.0240
 Traceless Quadrupole moment (field-independent basis, Debye-Ang):
   XX=     0.2560   YY=    12.5752   ZZ=   -12.8312
   XY=   -21.8863   XZ=     0.0611   YZ=     0.0240
 Octapole moment (field-independent basis, Debye-Ang**2):
  XXX=   -95.3914  YYY=    45.4943  ZZZ=     0.0208  XYY=     9.0110
  XXY=   118.3541  XXZ=    -0.0089  XZZ=     9.7474  YZZ=    10.9537
  YYZ=     0.0525  XYZ=     0.1182
 Hexadecapole moment (field-independent basis, Debye-Ang**3):
 XXXX= -2682.4634 YYYY=  -563.3412 ZZZZ=  -128.6056 XXXY=  -454.7861
 XXXZ=     0.8708 YYYX=    22.0428 YYYZ=     0.0520 ZZZX=     0.1508
 ZZZY=     0.0337 XXYY=  -492.2873 XXZZ=  -482.1704 YYZZ=  -129.5923
 XXYZ=    -0.0051 YYXZ=     0.1325 ZZXY=   -17.0462
 N-N= 9.565771668136D+02 E-N=-8.414325215457D+03  KE= 2.742251493090D+03
 Merz-Kollman atomic radii used.
 Read replacement radii for each type of atom:
 Rad(20) =   1.188000000000D+00
 Atom Element Radius
    1     8    1.40
    2     8    1.40
    3    20    1.19
    4    15    1.80
    5     8    1.40
    6    20    1.19
    7    20    1.19
    8     8    1.40
    9     8    1.40

 **********************************************************************

            Electrostatic Properties Using The SCF Density

 **********************************************************************

       Atomic Center    1 is at   3.592019  0.534530 -0.002551
       Atomic Center    2 is at  -0.624881  1.104931 -0.000571
       Atomic Center    3 is at   1.481439  1.568710  0.001919
       Atomic Center    4 is at   3.250199 -0.966060 -0.001911
       Atomic Center    5 is at   1.687109 -1.039690  0.003309
       Atomic Center    6 is at  -0.679481 -1.277899  0.000719
       Atomic Center    7 is at  -2.871441  1.037881 -0.001511
       Atomic Center    8 is at  -2.787181 -1.055869 -0.783981
       Atomic Center    9 is at  -2.787481 -1.054269  0.784559
     881 points will be used for fitting atomic charges
 Fitting point charges to eletrostatic potential
 Charges from ESP fit, RMS=   0.00471 RRMS=   0.03200:
 Charge=   1.00000 Dipole=     1.5281     9.2100     0.0030 Tot=     9.3359
              1
     1  O   -0.661212
     2  O   -1.750894
     3  Ca   1.744954
     4  P    0.602907
     5  O   -0.747904
     6  Ca   1.665332
     7  Ca   1.699077
     8  O   -0.776154
     9  O   -0.776107
 -----------------------------------------------------------------

              Electrostatic Properties (Atomic Units)

 -----------------------------------------------------------------
    Center     Electric         -------- Electric Field --------
               Potential          X             Y             Z
 -----------------------------------------------------------------
    1 Atom    -22.177637
    2 Atom    -22.293157
    3 Atom    -80.015433
    4 Atom    -53.901555
    5 Atom    -22.167412
    6 Atom    -80.080983
    7 Atom    -80.062012
    8 Atom    -22.273328
    9 Atom    -22.273335
 -----------------------------------------------------------------
 1\1\GINC-N027\SP\RB3LYP\6-31+G(d,p)\Ca3O5P1(1+)\TIMN\12-Jun-2015\0\\# 
 b3lyp/6-31+G(d,p) int=ultrafine pop=(ReadRadii,MK)\\mol_17.24.18.pdbcc
 c_plusQ.z58273.zip.xyz\\1,1\O,0,3.59202,0.53453,-0.00255\O,0,-0.62488,
 1.10493,-0.00057\Ca,0,1.48144,1.56871,0.00192\P,0,3.2502,-0.96606,-0.0
 0191\O,0,1.68711,-1.03969,0.00331\Ca,0,-0.67948,-1.2779,0.00072\Ca,0,-
 2.87144,1.03788,-0.00151\O,0,-2.78718,-1.05587,-0.78398\O,0,-2.78748,-
 1.05427,0.78456\\Version=EM64T-G03RevE.01\State=1-A\HF=-2750.2105902\R
 MSD=7.415e-05\Thermal=0.\Dipole=0.6019892,3.5500742,0.0017908\PG=C01 [
 X(Ca3O5P1)]\\@


 IMAGINATION WILL OFTEN CARRY US TO WORLDS THAT NEVER WERE.
 BUT WITHOUT IT, WE GO NOWHERE. -- CARL SAGAN (COSMOS)
 Job cpu time:  0 days  0 hours  2 minutes  5.8 seconds.
 File lengths (MBytes):  RWF=     36 Int=      0 D2E=      0 Chk=     11 Scr=      1
 Normal termination of Gaussian 03 at Fri Jun 12 17:55:08 2015.
