 Entering Gaussian System, Link 0=/home/timn/tmp/g03.e01/g03
 Input=mol_17.23.21.pdbccc_plusQ.z58222.zip.xyz.gjf
 Output=mol_17.23.21.pdbccc_plusQ.z58222.zip.xyz.out
 Initial command:
 /home/timn/tmp/g03.e01/l1.exe /home/timn/tmp/g03.e01/Gau-12727.inp -scrdir=/home/timn/tmp/g03.e01/
 Default is to use a total of   2 processors:
                                2 via shared-memory
                                1 via Linda
 Entering Link 1 = /home/timn/tmp/g03.e01/l1.exe PID=     12728.
  
 Copyright (c) 1988,1990,1992,1993,1995,1998,2003,2004,2007, Gaussian, Inc.
                  All Rights Reserved.
  
 This is the Gaussian(R) 03 program.  It is based on the
 the Gaussian(R) 98 system (copyright 1998, Gaussian, Inc.),
 the Gaussian(R) 94 system (copyright 1995, Gaussian, Inc.),
 the Gaussian 92(TM) system (copyright 1992, Gaussian, Inc.),
 the Gaussian 90(TM) system (copyright 1990, Gaussian, Inc.),
 the Gaussian 88(TM) system (copyright 1988, Gaussian, Inc.),
 the Gaussian 86(TM) system (copyright 1986, Carnegie Mellon
 University), and the Gaussian 82(TM) system (copyright 1983,
 Carnegie Mellon University). Gaussian is a federally registered
 trademark of Gaussian, Inc.
  
 This software contains proprietary and confidential information,
 including trade secrets, belonging to Gaussian, Inc.
  
 This software is provided under written license and may be
 used, copied, transmitted, or stored only in accord with that
 written license.
  
 The following legend is applicable only to US Government
 contracts under FAR:
  
                    RESTRICTED RIGHTS LEGEND
  
 Use, reproduction and disclosure by the US Government is
 subject to restrictions as set forth in subparagraphs (a)
 and (c) of the Commercial Computer Software - Restricted
 Rights clause in FAR 52.227-19.
  
 Gaussian, Inc.
 340 Quinnipiac St., Bldg. 40, Wallingford CT 06492
  
  
 ---------------------------------------------------------------
 Warning -- This program may not be used in any manner that
 competes with the business of Gaussian, Inc. or will provide
 assistance to any competitor of Gaussian, Inc.  The licensee
 of this program is prohibited from giving any competitor of
 Gaussian, Inc. access to this program.  By using this program,
 the user acknowledges that Gaussian, Inc. is engaged in the
 business of creating and licensing software in the field of
 computational chemistry and represents and warrants to the
 licensee that it is not a competitor of Gaussian, Inc. and that
 it will not use this program in any manner prohibited above.
 ---------------------------------------------------------------
  

 Cite this work as:
 Gaussian 03, Revision E.01,
 M. J. Frisch, G. W. Trucks, H. B. Schlegel, G. E. Scuseria, 
 M. A. Robb, J. R. Cheeseman, J. A. Montgomery, Jr., T. Vreven, 
 K. N. Kudin, J. C. Burant, J. M. Millam, S. S. Iyengar, J. Tomasi, 
 V. Barone, B. Mennucci, M. Cossi, G. Scalmani, N. Rega, 
 G. A. Petersson, H. Nakatsuji, M. Hada, M. Ehara, K. Toyota, 
 R. Fukuda, J. Hasegawa, M. Ishida, T. Nakajima, Y. Honda, O. Kitao, 
 H. Nakai, M. Klene, X. Li, J. E. Knox, H. P. Hratchian, J. B. Cross, 
 V. Bakken, C. Adamo, J. Jaramillo, R. Gomperts, R. E. Stratmann, 
 O. Yazyev, A. J. Austin, R. Cammi, C. Pomelli, J. W. Ochterski, 
 P. Y. Ayala, K. Morokuma, G. A. Voth, P. Salvador, J. J. Dannenberg, 
 V. G. Zakrzewski, S. Dapprich, A. D. Daniels, M. C. Strain, 
 O. Farkas, D. K. Malick, A. D. Rabuck, K. Raghavachari, 
 J. B. Foresman, J. V. Ortiz, Q. Cui, A. G. Baboul, S. Clifford, 
 J. Cioslowski, B. B. Stefanov, G. Liu, A. Liashenko, P. Piskorz, 
 I. Komaromi, R. L. Martin, D. J. Fox, T. Keith, M. A. Al-Laham, 
 C. Y. Peng, A. Nanayakkara, M. Challacombe, P. M. W. Gill, 
 B. Johnson, W. Chen, M. W. Wong, C. Gonzalez, and J. A. Pople, 
 Gaussian, Inc., Wallingford CT, 2004.
 
 ******************************************
 Gaussian 03:  EM64T-G03RevE.01 11-Sep-2007
                12-Jun-2015 
 ******************************************
 %nproc=2
 Will use up to    2 processors via shared memory.
 Default route:  MP2=Direct MaxDisk=2000MB
 ----------------------------------------------------
 # b3lyp/6-31+G(d,p) int=ultrafine pop=(ReadRadii,MK)
 ----------------------------------------------------

 Warning!  SCF SP cutoffs with diffuse functions may be unreliable.
 Consider SCF=Tight

 1/38=1/1;
 2/17=6,18=5,40=1/2;
 3/5=1,6=6,7=111,11=2,16=1,25=1,30=1,74=-5,75=5/1,2,3;
 4//1;
 5/5=2,32=1,38=5/2;
 6/7=2,8=2,9=2,10=2,15=8,20=101,28=1/1,2;
 99/5=1,9=1/99;
 ----------------------------------------
 mol_17.23.21.pdbccc_plusQ.z58222.zip.xyz
 ----------------------------------------
 Symbolic Z-matrix:
 Charge =  1 Multiplicity = 1
 Ca                    2.52963  -0.92821  -0.15321 
 O                     2.52289   1.16259  -0.53177 
 Ca                    0.62368   1.8983    0.14629 
 O                     0.50538  -0.27085   1.3391 
 P                    -0.44534  -1.1354    0.45788 
 O                     0.41577  -2.00486  -0.4839 
 O                    -1.0101    0.28751  -0.79196 
 O                    -1.70651   1.37922   0.02136 
 Ca                   -3.11028  -0.33998  -0.15763 
 
                          Input orientation:                          
 ---------------------------------------------------------------------
 Center     Atomic     Atomic              Coordinates (Angstroms)
 Number     Number      Type              X           Y           Z
 ---------------------------------------------------------------------
    1         20             0        2.529630   -0.928210   -0.153210
    2          8             0        2.522890    1.162590   -0.531770
    3         20             0        0.623680    1.898300    0.146290
    4          8             0        0.505380   -0.270850    1.339100
    5         15             0       -0.445340   -1.135400    0.457880
    6          8             0        0.415770   -2.004860   -0.483900
    7          8             0       -1.010100    0.287510   -0.791960
    8          8             0       -1.706510    1.379220    0.021360
    9         20             0       -3.110280   -0.339980   -0.157630
 ---------------------------------------------------------------------
                    Distance matrix (angstroms):
                    1          2          3          4          5
     1  Ca   0.000000
     2  O    2.124805   0.000000
     3  Ca   3.422208   2.146633   0.000000
     4  O    2.599365   3.102459   2.478306   0.000000
     5  P    3.044143   3.882081   3.231598   1.558160   0.000000
     6  O    2.395190   3.804601   3.959170   2.517568   1.544157
     7  O    3.796797   3.649039   2.478749   2.673923   1.976291
     8  O    4.826965   4.270914   2.390573   3.058043   2.846825
     9  Ca   5.670504   5.842114   4.364026   3.913819   2.848412
                    6          7          8          9
     6  O    0.000000
     7  O    2.717161   0.000000
     8  O    4.026333   1.529152   0.000000
     9  Ca   3.912966   2.281858   2.226714   0.000000
 Stoichiometry    Ca3O5P(1+)
 Framework group  C1[X(Ca3O5P)]
 Deg. of freedom    21
 Full point group                 C1
 Largest Abelian subgroup         C1      NOp   1
 Largest concise Abelian subgroup C1      NOp   1
                         Standard orientation:                         
 ---------------------------------------------------------------------
 Center     Atomic     Atomic              Coordinates (Angstroms)
 Number     Number      Type              X           Y           Z
 ---------------------------------------------------------------------
    1         20             0        2.529631   -0.928210   -0.153209
    2          8             0        2.522890    1.162590   -0.531769
    3         20             0        0.623680    1.898299    0.146291
    4          8             0        0.505381   -0.270851    1.339101
    5         15             0       -0.445339   -1.135401    0.457881
    6          8             0        0.415771   -2.004861   -0.483899
    7          8             0       -1.010100    0.287509   -0.791959
    8          8             0       -1.706510    1.379219    0.021361
    9         20             0       -3.110279   -0.339981   -0.157629
 ---------------------------------------------------------------------
 Rotational constants (GHZ):      1.2695397      0.5666792      0.4292438
 Standard basis: 6-31+G(d,p) (6D, 7F)
 There are   199 symmetry adapted basis functions of A   symmetry.
 Integral buffers will be    131072 words long.
 Raffenetti 2 integral format.
 Two-electron integral symmetry is turned on.
   199 basis functions,   456 primitive gaussians,   199 cartesian basis functions
    57 alpha electrons       57 beta electrons
       nuclear repulsion energy      1019.6816386187 Hartrees.
 NAtoms=    9 NActive=    9 NUniq=    9 SFac= 7.50D-01 NAtFMM=   80 NAOKFM=F Big=F
 One-electron integrals computed using PRISM.
 NBasis=   199 RedAO= T  NBF=   199
 NBsUse=   199 1.00D-06 NBFU=   199
 Harris functional with IExCor=  402 diagonalized for initial guess.
 ExpMin= 7.10D-03 ExpMax= 3.53D+04 ExpMxC= 5.30D+03 IAcc=3 IRadAn=         5 AccDes= 0.00D+00
 HarFok:  IExCor= 402 AccDes= 0.00D+00 IRadAn=         5 IDoV=1
 ScaDFX=  1.000000  1.000000  1.000000  1.000000
 Initial guess orbital symmetries:
       Occupied  (A) (A) (A) (A) (A) (A) (A) (A) (A) (A) (A) (A)
                 (A) (A) (A) (A) (A) (A) (A) (A) (A) (A) (A) (A)
                 (A) (A) (A) (A) (A) (A) (A) (A) (A) (A) (A) (A)
                 (A) (A) (A) (A) (A) (A) (A) (A) (A) (A) (A) (A)
                 (A) (A) (A) (A) (A) (A) (A) (A) (A)
       Virtual   (A) (A) (A) (A) (A) (A) (A) (A) (A) (A) (A) (A)
                 (A) (A) (A) (A) (A) (A) (A) (A) (A) (A) (A) (A)
                 (A) (A) (A) (A) (A) (A) (A) (A) (A) (A) (A) (A)
                 (A) (A) (A) (A) (A) (A) (A) (A) (A) (A) (A) (A)
                 (A) (A) (A) (A) (A) (A) (A) (A) (A) (A) (A) (A)
                 (A) (A) (A) (A) (A) (A) (A) (A) (A) (A) (A) (A)
                 (A) (A) (A) (A) (A) (A) (A) (A) (A) (A) (A) (A)
                 (A) (A) (A) (A) (A) (A) (A) (A) (A) (A) (A) (A)
                 (A) (A) (A) (A) (A) (A) (A) (A) (A) (A) (A) (A)
                 (A) (A) (A) (A) (A) (A) (A) (A) (A) (A) (A) (A)
                 (A) (A) (A) (A) (A) (A) (A) (A) (A) (A) (A) (A)
                 (A) (A) (A) (A) (A) (A) (A) (A) (A) (A)
 The electronic state of the initial guess is 1-A.
 Requested convergence on RMS density matrix=1.00D-04 within 128 cycles.
 Requested convergence on MAX density matrix=1.00D-02.
 Requested convergence on             energy=1.00D-02.
 No special actions if energy rises.
 EnCoef did     6 forward-backward iterations
 EnCoef did     1 forward-backward iterations
 SCF Done:  E(RB+HF-LYP) =  -2750.14476522     A.U. after   10 cycles
             Convg  =    0.7427D-04             -V/T =  2.0029
             S**2   =   0.0000

 **********************************************************************

            Population analysis using the SCF density.

 **********************************************************************

 Orbital symmetries:
       Occupied  (A) (A) (A) (A) (A) (A) (A) (A) (A) (A) (A) (A)
                 (A) (A) (A) (A) (A) (A) (A) (A) (A) (A) (A) (A)
                 (A) (A) (A) (A) (A) (A) (A) (A) (A) (A) (A) (A)
                 (A) (A) (A) (A) (A) (A) (A) (A) (A) (A) (A) (A)
                 (A) (A) (A) (A) (A) (A) (A) (A) (A)
       Virtual   (A) (A) (A) (A) (A) (A) (A) (A) (A) (A) (A) (A)
                 (A) (A) (A) (A) (A) (A) (A) (A) (A) (A) (A) (A)
                 (A) (A) (A) (A) (A) (A) (A) (A) (A) (A) (A) (A)
                 (A) (A) (A) (A) (A) (A) (A) (A) (A) (A) (A) (A)
                 (A) (A) (A) (A) (A) (A) (A) (A) (A) (A) (A) (A)
                 (A) (A) (A) (A) (A) (A) (A) (A) (A) (A) (A) (A)
                 (A) (A) (A) (A) (A) (A) (A) (A) (A) (A) (A) (A)
                 (A) (A) (A) (A) (A) (A) (A) (A) (A) (A) (A) (A)
                 (A) (A) (A) (A) (A) (A) (A) (A) (A) (A) (A) (A)
                 (A) (A) (A) (A) (A) (A) (A) (A) (A) (A) (A) (A)
                 (A) (A) (A) (A) (A) (A) (A) (A) (A) (A) (A) (A)
                 (A) (A) (A) (A) (A) (A) (A) (A) (A) (A)
 The electronic state is 1-A.
 Alpha  occ. eigenvalues -- -145.58539-145.46495-145.44791 -77.27969 -19.31189
 Alpha  occ. eigenvalues --  -19.28373 -19.23387 -19.23308 -19.09174 -15.65316
 Alpha  occ. eigenvalues --  -15.53358 -15.51650 -12.78540 -12.78504 -12.78448
 Alpha  occ. eigenvalues --  -12.66588 -12.66569 -12.66424 -12.64893 -12.64873
 Alpha  occ. eigenvalues --  -12.64697  -6.73382  -4.89915  -4.89591  -4.89230
 Alpha  occ. eigenvalues --   -2.02227  -1.90565  -1.88963  -1.30059  -1.29653
 Alpha  occ. eigenvalues --   -1.29435  -1.18675  -1.18259  -1.17991  -1.17566
 Alpha  occ. eigenvalues --   -1.16748  -1.16137  -1.13682  -1.09839  -1.04311
 Alpha  occ. eigenvalues --   -0.93641  -0.83344  -0.65071  -0.55665  -0.53638
 Alpha  occ. eigenvalues --   -0.53333  -0.50784  -0.49218  -0.44998  -0.41437
 Alpha  occ. eigenvalues --   -0.40604  -0.39750  -0.38781  -0.35544  -0.29125
 Alpha  occ. eigenvalues --   -0.27500  -0.27262
 Alpha virt. eigenvalues --   -0.24090  -0.16233  -0.15749  -0.14716  -0.13761
 Alpha virt. eigenvalues --   -0.12046  -0.11437  -0.09909  -0.09061  -0.07994
 Alpha virt. eigenvalues --   -0.07705  -0.07418  -0.06499  -0.05908  -0.05444
 Alpha virt. eigenvalues --   -0.05347  -0.05037  -0.04690  -0.04442  -0.03935
 Alpha virt. eigenvalues --   -0.03743  -0.03597  -0.03324  -0.03004  -0.02672
 Alpha virt. eigenvalues --   -0.02202  -0.02056  -0.01749  -0.00252  -0.00136
 Alpha virt. eigenvalues --    0.00554   0.02164   0.02216   0.02756   0.03508
 Alpha virt. eigenvalues --    0.04350   0.04883   0.05292   0.05459   0.05871
 Alpha virt. eigenvalues --    0.07113   0.07285   0.08270   0.09071   0.10147
 Alpha virt. eigenvalues --    0.10462   0.11253   0.11514   0.12113   0.12448
 Alpha virt. eigenvalues --    0.13349   0.13894   0.14638   0.15764   0.17251
 Alpha virt. eigenvalues --    0.17619   0.18706   0.19892   0.20928   0.21200
 Alpha virt. eigenvalues --    0.21923   0.22888   0.24628   0.25663   0.27003
 Alpha virt. eigenvalues --    0.27386   0.28312   0.28864   0.29819   0.31196
 Alpha virt. eigenvalues --    0.32535   0.35337   0.35951   0.37541   0.39727
 Alpha virt. eigenvalues --    0.41413   0.42523   0.44715   0.48430   0.53273
 Alpha virt. eigenvalues --    0.56902   0.57819   0.61908   0.62828   0.69824
 Alpha virt. eigenvalues --    0.72692   0.77035   0.82456   0.87550   0.96443
 Alpha virt. eigenvalues --    1.02168   1.07245   1.12121   1.15228   1.15762
 Alpha virt. eigenvalues --    1.17728   1.19956   1.20264   1.20817   1.22099
 Alpha virt. eigenvalues --    1.23609   1.25363   1.26624   1.28222   1.29224
 Alpha virt. eigenvalues --    1.34819   1.45005   1.49066   1.51986   1.53162
 Alpha virt. eigenvalues --    1.59996   1.62904   1.67871   1.72248   1.73701
 Alpha virt. eigenvalues --    1.75496   1.76811   1.78356   1.79413   1.82459
 Alpha virt. eigenvalues --    1.85097   1.87911   1.89833   1.91235   1.92423
 Alpha virt. eigenvalues --    1.94969   1.96776   2.00672   2.07200   2.08409
 Alpha virt. eigenvalues --    2.11916   2.19511   2.21470   2.64735   2.73187
 Alpha virt. eigenvalues --    3.04240   3.43524   3.99423   4.02360   4.08539
 Alpha virt. eigenvalues --    4.14209   4.26508
          Condensed to atoms (all electrons):
              1          2          3          4          5          6
     1  Ca  18.306332   0.221998  -0.016577   0.030391   0.021405   0.043352
     2  O    0.221998   8.725540   0.202779  -0.000677  -0.002691  -0.001058
     3  Ca  -0.016577   0.202779  18.306790   0.032866   0.000771   0.005288
     4  O    0.030391  -0.000677   0.032866   8.801433  -0.002611  -0.069202
     5  P    0.021405  -0.002691   0.000771  -0.002611  14.831076  -0.055587
     6  O    0.043352  -0.001058   0.005288  -0.069202  -0.055587   8.749117
     7  O   -0.004623   0.016187   0.034560   0.058553  -0.422098   0.078717
     8  O    0.003953  -0.009431   0.038632   0.014458  -0.124486   0.014946
     9  Ca   0.000895  -0.001695  -0.013787  -0.001333   0.124862   0.001398
              7          8          9
     1  Ca  -0.004623   0.003953   0.000895
     2  O    0.016187  -0.009431  -0.001695
     3  Ca   0.034560   0.038632  -0.013787
     4  O    0.058553   0.014458  -0.001333
     5  P   -0.422098  -0.124486   0.124862
     6  O    0.078717   0.014946   0.001398
     7  O    8.636648   0.023731   0.049218
     8  O    0.023731   8.521344   0.133739
     9  Ca   0.049218   0.133739  18.268037
 Mulliken atomic charges:
              1
     1  Ca   1.392876
     2  O   -1.150951
     3  Ca   1.408678
     4  O   -0.863878
     5  P    0.629359
     6  O   -0.766973
     7  O   -0.470891
     8  O   -0.616886
     9  Ca   1.438666
 Sum of Mulliken charges=   1.00000
 Atomic charges with hydrogens summed into heavy atoms:
              1
     1  Ca   1.392876
     2  O   -1.150951
     3  Ca   1.408678
     4  O   -0.863878
     5  P    0.629359
     6  O   -0.766973
     7  O   -0.470891
     8  O   -0.616886
     9  Ca   1.438666
 Sum of Mulliken charges=   1.00000
 Electronic spatial extent (au):  <R**2>=  2320.0053
 Charge=     1.0000 electrons
 Dipole moment (field-independent basis, Debye):
    X=   -11.2146    Y=    -2.2685    Z=     1.3564  Tot=    11.5218
 Quadrupole moment (field-independent basis, Debye-Ang):
   XX=    -8.7722   YY=   -66.1758   ZZ=   -84.6272
   XY=   -11.4739   XZ=     8.4838   YZ=     5.7230
 Traceless Quadrupole moment (field-independent basis, Debye-Ang):
   XX=    44.4195   YY=   -12.9840   ZZ=   -31.4355
   XY=   -11.4739   XZ=     8.4838   YZ=     5.7230
 Octapole moment (field-independent basis, Debye-Ang**2):
  XXX=  -211.4746  YYY=    62.4556  ZZZ=    -6.2202  XYY=    13.1941
  XXY=  -124.1862  XXZ=    -1.2406  XZZ=   -11.3413  YZZ=     1.1520
  YYZ=    15.1142  XYZ=     9.1130
 Hexadecapole moment (field-independent basis, Debye-Ang**3):
 XXXX=  -756.4619 YYYY=  -697.2111 ZZZZ=  -240.8735 XXXY=  -184.4840
 XXXZ=    94.9902 YYYX=   -14.7936 YYYZ=    16.9889 ZZZX=    17.5826
 ZZZY=    19.4835 XXYY=  -401.5485 XXZZ=  -303.7485 YYZZ=  -162.5167
 XXYZ=    48.7625 YYXZ=    21.9892 ZZXY=   -16.1256
 N-N= 1.019681638619D+03 E-N=-8.540307574916D+03  KE= 2.742187306812D+03
 Merz-Kollman atomic radii used.
 Read replacement radii for each type of atom:
 Rad(20) =   1.188000000000D+00
 Atom Element Radius
    1    20    1.19
    2     8    1.40
    3    20    1.19
    4     8    1.40
    5    15    1.80
    6     8    1.40
    7     8    1.40
    8     8    1.40
    9    20    1.19

 **********************************************************************

            Electrostatic Properties Using The SCF Density

 **********************************************************************

       Atomic Center    1 is at   2.529631 -0.928210 -0.153209
       Atomic Center    2 is at   2.522890  1.162590 -0.531769
       Atomic Center    3 is at   0.623680  1.898299  0.146291
       Atomic Center    4 is at   0.505381 -0.270851  1.339101
       Atomic Center    5 is at  -0.445339 -1.135401  0.457881
       Atomic Center    6 is at   0.415771 -2.004861 -0.483899
       Atomic Center    7 is at  -1.010100  0.287509 -0.791959
       Atomic Center    8 is at  -1.706510  1.379219  0.021361
       Atomic Center    9 is at  -3.110279 -0.339981 -0.157629
     774 points will be used for fitting atomic charges
 Fitting point charges to eletrostatic potential
 Charges from ESP fit, RMS=   0.00715 RRMS=   0.04617:
 Charge=   1.00000 Dipole=   -11.2106    -2.2796     1.3502 Tot=    11.5194
              1
     1  Ca   1.656506
     2  O   -1.514660
     3  Ca   1.690920
     4  O   -0.646849
     5  P   -0.005833
     6  O   -0.572716
     7  O   -0.429421
     8  O   -0.763754
     9  Ca   1.585806
 -----------------------------------------------------------------

              Electrostatic Properties (Atomic Units)

 -----------------------------------------------------------------
    Center     Electric         -------- Electric Field --------
               Potential          X             Y             Z
 -----------------------------------------------------------------
    1 Atom    -80.076024
    2 Atom    -22.368722
    3 Atom    -80.091253
    4 Atom    -22.230868
    5 Atom    -53.935045
    6 Atom    -22.232076
    7 Atom    -22.163373
    8 Atom    -22.184450
    9 Atom    -79.956856
 -----------------------------------------------------------------
 1\1\GINC-N034\SP\RB3LYP\6-31+G(d,p)\Ca3O5P1(1+)\TIMN\12-Jun-2015\0\\# 
 b3lyp/6-31+G(d,p) int=ultrafine pop=(ReadRadii,MK)\\mol_17.23.21.pdbcc
 c_plusQ.z58222.zip.xyz\\1,1\Ca,0,2.52963,-0.92821,-0.15321\O,0,2.52289
 ,1.16259,-0.53177\Ca,0,0.62368,1.8983,0.14629\O,0,0.50538,-0.27085,1.3
 391\P,0,-0.44534,-1.1354,0.45788\O,0,0.41577,-2.00486,-0.4839\O,0,-1.0
 101,0.28751,-0.79196\O,0,-1.70651,1.37922,0.02136\Ca,0,-3.11028,-0.339
 98,-0.15763\\Version=EM64T-G03RevE.01\State=1-A\HF=-2750.1447652\RMSD=
 7.427e-05\Thermal=0.\Dipole=-4.4121652,-0.8924814,0.5336324\PG=C01 [X(
 Ca3O5P1)]\\@


            THE IRISH PIG
 'TWAS AN EVENING IN NOVEMBER,
 AS I VERY WELL REMEMBER
 I WAS STROLLING DOWN THE STREET IN DRUNKEN PRIDE,
 BUT MY KNEES WERE ALL A'FLUTTER
 SO I LANDED IN THE GUTTER,
 AND A PIG CAME UP AND LAY DOWN BY MY SIDE.

 YES, I LAY THERE IN THE GUTTER
 THINKING THOUGHTS I COULD NOT UTTER
 WHEN A COLLEEN PASSING BY DID SOFTLY SAY,
 'YE CAN TELL A MAN THAT BOOZES
 BY THE COMPANY THAT HE CHOOSES.' -
 AT THAT, THE PIG GOT UP AND WALKED AWAY!
     -- THE ECONOMIST, AUGUST 23, 1986
 Job cpu time:  0 days  0 hours  2 minutes 36.0 seconds.
 File lengths (MBytes):  RWF=     36 Int=      0 D2E=      0 Chk=     11 Scr=      1
 Normal termination of Gaussian 03 at Fri Jun 12 17:53:04 2015.
