 Entering Gaussian System, Link 0=/home/timn/tmp/g03.e01/g03
 Input=mol_17.25.46.pdbcccc_plusQ.z58351.zip.xyz.gjf
 Output=mol_17.25.46.pdbcccc_plusQ.z58351.zip.xyz.out
 Initial command:
 /home/timn/tmp/g03.e01/l1.exe /home/timn/tmp/g03.e01/Gau-17273.inp -scrdir=/home/timn/tmp/g03.e01/
 Default is to use a total of   2 processors:
                                2 via shared-memory
                                1 via Linda
 Entering Link 1 = /home/timn/tmp/g03.e01/l1.exe PID=     17274.
  
 Copyright (c) 1988,1990,1992,1993,1995,1998,2003,2004,2007, Gaussian, Inc.
                  All Rights Reserved.
  
 This is the Gaussian(R) 03 program.  It is based on the
 the Gaussian(R) 98 system (copyright 1998, Gaussian, Inc.),
 the Gaussian(R) 94 system (copyright 1995, Gaussian, Inc.),
 the Gaussian 92(TM) system (copyright 1992, Gaussian, Inc.),
 the Gaussian 90(TM) system (copyright 1990, Gaussian, Inc.),
 the Gaussian 88(TM) system (copyright 1988, Gaussian, Inc.),
 the Gaussian 86(TM) system (copyright 1986, Carnegie Mellon
 University), and the Gaussian 82(TM) system (copyright 1983,
 Carnegie Mellon University). Gaussian is a federally registered
 trademark of Gaussian, Inc.
  
 This software contains proprietary and confidential information,
 including trade secrets, belonging to Gaussian, Inc.
  
 This software is provided under written license and may be
 used, copied, transmitted, or stored only in accord with that
 written license.
  
 The following legend is applicable only to US Government
 contracts under FAR:
  
                    RESTRICTED RIGHTS LEGEND
  
 Use, reproduction and disclosure by the US Government is
 subject to restrictions as set forth in subparagraphs (a)
 and (c) of the Commercial Computer Software - Restricted
 Rights clause in FAR 52.227-19.
  
 Gaussian, Inc.
 340 Quinnipiac St., Bldg. 40, Wallingford CT 06492
  
  
 ---------------------------------------------------------------
 Warning -- This program may not be used in any manner that
 competes with the business of Gaussian, Inc. or will provide
 assistance to any competitor of Gaussian, Inc.  The licensee
 of this program is prohibited from giving any competitor of
 Gaussian, Inc. access to this program.  By using this program,
 the user acknowledges that Gaussian, Inc. is engaged in the
 business of creating and licensing software in the field of
 computational chemistry and represents and warrants to the
 licensee that it is not a competitor of Gaussian, Inc. and that
 it will not use this program in any manner prohibited above.
 ---------------------------------------------------------------
  

 Cite this work as:
 Gaussian 03, Revision E.01,
 M. J. Frisch, G. W. Trucks, H. B. Schlegel, G. E. Scuseria, 
 M. A. Robb, J. R. Cheeseman, J. A. Montgomery, Jr., T. Vreven, 
 K. N. Kudin, J. C. Burant, J. M. Millam, S. S. Iyengar, J. Tomasi, 
 V. Barone, B. Mennucci, M. Cossi, G. Scalmani, N. Rega, 
 G. A. Petersson, H. Nakatsuji, M. Hada, M. Ehara, K. Toyota, 
 R. Fukuda, J. Hasegawa, M. Ishida, T. Nakajima, Y. Honda, O. Kitao, 
 H. Nakai, M. Klene, X. Li, J. E. Knox, H. P. Hratchian, J. B. Cross, 
 V. Bakken, C. Adamo, J. Jaramillo, R. Gomperts, R. E. Stratmann, 
 O. Yazyev, A. J. Austin, R. Cammi, C. Pomelli, J. W. Ochterski, 
 P. Y. Ayala, K. Morokuma, G. A. Voth, P. Salvador, J. J. Dannenberg, 
 V. G. Zakrzewski, S. Dapprich, A. D. Daniels, M. C. Strain, 
 O. Farkas, D. K. Malick, A. D. Rabuck, K. Raghavachari, 
 J. B. Foresman, J. V. Ortiz, Q. Cui, A. G. Baboul, S. Clifford, 
 J. Cioslowski, B. B. Stefanov, G. Liu, A. Liashenko, P. Piskorz, 
 I. Komaromi, R. L. Martin, D. J. Fox, T. Keith, M. A. Al-Laham, 
 C. Y. Peng, A. Nanayakkara, M. Challacombe, P. M. W. Gill, 
 B. Johnson, W. Chen, M. W. Wong, C. Gonzalez, and J. A. Pople, 
 Gaussian, Inc., Wallingford CT, 2004.
 
 ******************************************
 Gaussian 03:  EM64T-G03RevE.01 11-Sep-2007
                12-Jun-2015 
 ******************************************
 %nproc=2
 Will use up to    2 processors via shared memory.
 Default route:  MP2=Direct MaxDisk=2000MB
 ----------------------------------------------------
 # b3lyp/6-31+G(d,p) int=ultrafine pop=(ReadRadii,MK)
 ----------------------------------------------------

 Warning!  SCF SP cutoffs with diffuse functions may be unreliable.
 Consider SCF=Tight

 1/38=1/1;
 2/17=6,18=5,40=1/2;
 3/5=1,6=6,7=111,11=2,16=1,25=1,30=1,74=-5,75=5/1,2,3;
 4//1;
 5/5=2,32=1,38=5/2;
 6/7=2,8=2,9=2,10=2,15=8,20=101,28=1/1,2;
 99/5=1,9=1/99;
 -----------------------------------------
 mol_17.25.46.pdbcccc_plusQ.z58351.zip.xyz
 -----------------------------------------
 Symbolic Z-matrix:
 Charge =  1 Multiplicity = 1
 O                    -1.33389  -2.04025  -0.00022 
 O                    -2.59531   0.16493   0.00021 
 P                    -2.72728  -1.36968  -0.00028 
 Ca                   -1.83157   2.33627   0.00012 
 Ca                    1.84725   1.77205  -0.00026 
 O                     1.94321  -0.25162  -1.19604 
 O                     2.81516  -0.47638   0.00014 
 O                     1.94263  -0.2512    1.19618 
 Ca                    0.92106  -1.93926   0.00024 
 
                          Input orientation:                          
 ---------------------------------------------------------------------
 Center     Atomic     Atomic              Coordinates (Angstroms)
 Number     Number      Type              X           Y           Z
 ---------------------------------------------------------------------
    1          8             0       -1.333890   -2.040250   -0.000220
    2          8             0       -2.595310    0.164930    0.000210
    3         15             0       -2.727280   -1.369680   -0.000280
    4         20             0       -1.831570    2.336270    0.000120
    5         20             0        1.847250    1.772050   -0.000260
    6          8             0        1.943210   -0.251620   -1.196040
    7          8             0        2.815160   -0.476380    0.000140
    8          8             0        1.942630   -0.251200    1.196180
    9         20             0        0.921060   -1.939260    0.000240
 ---------------------------------------------------------------------
                    Distance matrix (angstroms):
                    1          2          3          4          5
     1  O    0.000000
     2  O    2.540472   0.000000
     3  P    1.546350   1.540274   0.000000
     4  Ca   4.404726   2.301742   3.812658   0.000000
     5  Ca   4.965207   4.724317   5.549486   3.721836   0.000000
     6  O    3.920276   4.711973   4.949078   4.730427   2.352517
     7  O    4.433994   5.448345   5.613967   5.431676   2.447915
     8  O    3.920160   4.711306   4.948795   4.729709   2.352468
     9  Ca   2.257210   4.097862   3.692534   5.084991   3.825134
                    6          7          8          9
     6  O    0.000000
     7  O    1.497218   0.000000
     8  O    2.392220   1.497507   0.000000
     9  Ca   2.307381   2.393247   2.307255   0.000000
 Stoichiometry    Ca3O5P(1+)
 Framework group  C1[X(Ca3O5P)]
 Deg. of freedom    21
 Full point group                 C1
 Largest Abelian subgroup         C1      NOp   1
 Largest concise Abelian subgroup C1      NOp   1
                         Standard orientation:                         
 ---------------------------------------------------------------------
 Center     Atomic     Atomic              Coordinates (Angstroms)
 Number     Number      Type              X           Y           Z
 ---------------------------------------------------------------------
    1          8             0       -1.333887   -2.040251   -0.000220
    2          8             0       -2.595310    0.164927    0.000210
    3         15             0       -2.727278   -1.369683   -0.000280
    4         20             0       -1.831574    2.336268    0.000120
    5         20             0        1.847247    1.772054   -0.000260
    6          8             0        1.943210   -0.251615   -1.196040
    7          8             0        2.815161   -0.476374    0.000140
    8          8             0        1.942630   -0.251195    1.196180
    9         20             0        0.921063   -1.939257    0.000240
 ---------------------------------------------------------------------
 Rotational constants (GHZ):      0.7538625      0.5241367      0.3275166
 Standard basis: 6-31+G(d,p) (6D, 7F)
 There are   199 symmetry adapted basis functions of A   symmetry.
 Integral buffers will be    131072 words long.
 Raffenetti 2 integral format.
 Two-electron integral symmetry is turned on.
   199 basis functions,   456 primitive gaussians,   199 cartesian basis functions
    57 alpha electrons       57 beta electrons
       nuclear repulsion energy       920.4531951082 Hartrees.
 NAtoms=    9 NActive=    9 NUniq=    9 SFac= 7.50D-01 NAtFMM=   80 NAOKFM=F Big=F
 One-electron integrals computed using PRISM.
 NBasis=   199 RedAO= T  NBF=   199
 NBsUse=   199 1.00D-06 NBFU=   199
 Harris functional with IExCor=  402 diagonalized for initial guess.
 ExpMin= 7.10D-03 ExpMax= 3.53D+04 ExpMxC= 5.30D+03 IAcc=3 IRadAn=         5 AccDes= 0.00D+00
 HarFok:  IExCor= 402 AccDes= 0.00D+00 IRadAn=         5 IDoV=1
 ScaDFX=  1.000000  1.000000  1.000000  1.000000
 Initial guess orbital symmetries:
       Occupied  (A) (A) (A) (A) (A) (A) (A) (A) (A) (A) (A) (A)
                 (A) (A) (A) (A) (A) (A) (A) (A) (A) (A) (A) (A)
                 (A) (A) (A) (A) (A) (A) (A) (A) (A) (A) (A) (A)
                 (A) (A) (A) (A) (A) (A) (A) (A) (A) (A) (A) (A)
                 (A) (A) (A) (A) (A) (A) (A) (A) (A)
       Virtual   (A) (A) (A) (A) (A) (A) (A) (A) (A) (A) (A) (A)
                 (A) (A) (A) (A) (A) (A) (A) (A) (A) (A) (A) (A)
                 (A) (A) (A) (A) (A) (A) (A) (A) (A) (A) (A) (A)
                 (A) (A) (A) (A) (A) (A) (A) (A) (A) (A) (A) (A)
                 (A) (A) (A) (A) (A) (A) (A) (A) (A) (A) (A) (A)
                 (A) (A) (A) (A) (A) (A) (A) (A) (A) (A) (A) (A)
                 (A) (A) (A) (A) (A) (A) (A) (A) (A) (A) (A) (A)
                 (A) (A) (A) (A) (A) (A) (A) (A) (A) (A) (A) (A)
                 (A) (A) (A) (A) (A) (A) (A) (A) (A) (A) (A) (A)
                 (A) (A) (A) (A) (A) (A) (A) (A) (A) (A) (A) (A)
                 (A) (A) (A) (A) (A) (A) (A) (A) (A) (A) (A) (A)
                 (A) (A) (A) (A) (A) (A) (A) (A) (A) (A)
 The electronic state of the initial guess is 1-A.
 Requested convergence on RMS density matrix=1.00D-04 within 128 cycles.
 Requested convergence on MAX density matrix=1.00D-02.
 Requested convergence on             energy=1.00D-02.
 No special actions if energy rises.
 EnCoef did     4 forward-backward iterations
 EnCoef did   100 forward-backward iterations
 SCF Done:  E(RB+HF-LYP) =  -2750.06911263     A.U. after   10 cycles
             Convg  =    0.9490D-04             -V/T =  2.0029
             S**2   =   0.0000

 **********************************************************************

            Population analysis using the SCF density.

 **********************************************************************

 Orbital symmetries:
       Occupied  (A) (A) (A) (A) (A) (A) (A) (A) (A) (A) (A) (A)
                 (A) (A) (A) (A) (A) (A) (A) (A) (A) (A) (A) (A)
                 (A) (A) (A) (A) (A) (A) (A) (A) (A) (A) (A) (A)
                 (A) (A) (A) (A) (A) (A) (A) (A) (A) (A) (A) (A)
                 (A) (A) (A) (A) (A) (A) (A) (A) (A)
       Virtual   (A) (A) (A) (A) (A) (A) (A) (A) (A) (A) (A) (A)
                 (A) (A) (A) (A) (A) (A) (A) (A) (A) (A) (A) (A)
                 (A) (A) (A) (A) (A) (A) (A) (A) (A) (A) (A) (A)
                 (A) (A) (A) (A) (A) (A) (A) (A) (A) (A) (A) (A)
                 (A) (A) (A) (A) (A) (A) (A) (A) (A) (A) (A) (A)
                 (A) (A) (A) (A) (A) (A) (A) (A) (A) (A) (A) (A)
                 (A) (A) (A) (A) (A) (A) (A) (A) (A) (A) (A) (A)
                 (A) (A) (A) (A) (A) (A) (A) (A) (A) (A) (A) (A)
                 (A) (A) (A) (A) (A) (A) (A) (A) (A) (A) (A) (A)
                 (A) (A) (A) (A) (A) (A) (A) (A) (A) (A) (A) (A)
                 (A) (A) (A) (A) (A) (A) (A) (A) (A) (A) (A) (A)
                 (A) (A) (A) (A) (A) (A) (A) (A) (A) (A)
 The electronic state is 1-A.
 Alpha  occ. eigenvalues -- -145.52262-145.51791-145.50965 -77.29696 -19.37622
 Alpha  occ. eigenvalues --  -19.28152 -19.28151 -19.27630 -19.27352 -15.59064
 Alpha  occ. eigenvalues --  -15.58769 -15.57898 -12.72299 -12.72271 -12.72168
 Alpha  occ. eigenvalues --  -12.71966 -12.71948 -12.71842 -12.71111 -12.71074
 Alpha  occ. eigenvalues --  -12.70997  -6.75174  -4.91619  -4.91401  -4.90951
 Alpha  occ. eigenvalues --   -1.96188  -1.95880  -1.95051  -1.27014  -1.23869
 Alpha  occ. eigenvalues --   -1.23702  -1.23383  -1.23306  -1.23028  -1.22824
 Alpha  occ. eigenvalues --   -1.22518  -1.22439  -1.19078  -1.13498  -1.08177
 Alpha  occ. eigenvalues --   -1.03901  -0.88806  -0.67514  -0.57907  -0.57306
 Alpha  occ. eigenvalues --   -0.56298  -0.55888  -0.52318  -0.52177  -0.45421
 Alpha  occ. eigenvalues --   -0.44236  -0.43617  -0.42136  -0.40198  -0.39508
 Alpha  occ. eigenvalues --   -0.36789  -0.27635
 Alpha virt. eigenvalues --   -0.19452  -0.18926  -0.17823  -0.14939  -0.14681
 Alpha virt. eigenvalues --   -0.13303  -0.12238  -0.11258  -0.10013  -0.09132
 Alpha virt. eigenvalues --   -0.07995  -0.07830  -0.07760  -0.06845  -0.06779
 Alpha virt. eigenvalues --   -0.05752  -0.05463  -0.05411  -0.05324  -0.05049
 Alpha virt. eigenvalues --   -0.04544  -0.04451  -0.04273  -0.04171  -0.03376
 Alpha virt. eigenvalues --   -0.03218  -0.03022  -0.02906  -0.02710  -0.01620
 Alpha virt. eigenvalues --   -0.00862  -0.00394   0.01614   0.01997   0.03171
 Alpha virt. eigenvalues --    0.03515   0.03580   0.04066   0.04382   0.05044
 Alpha virt. eigenvalues --    0.05554   0.05768   0.06380   0.06504   0.06907
 Alpha virt. eigenvalues --    0.07838   0.08230   0.08530   0.08561   0.09492
 Alpha virt. eigenvalues --    0.09988   0.10010   0.10517   0.11926   0.13703
 Alpha virt. eigenvalues --    0.13977   0.14506   0.14996   0.16144   0.16801
 Alpha virt. eigenvalues --    0.17529   0.18104   0.19198   0.20316   0.22627
 Alpha virt. eigenvalues --    0.23017   0.23297   0.26310   0.26606   0.27689
 Alpha virt. eigenvalues --    0.29809   0.31344   0.32796   0.34516   0.34868
 Alpha virt. eigenvalues --    0.35651   0.37148   0.40306   0.46181   0.46827
 Alpha virt. eigenvalues --    0.48424   0.48467   0.57670   0.59106   0.60031
 Alpha virt. eigenvalues --    0.61402   0.75929   0.83275   0.90566   0.94025
 Alpha virt. eigenvalues --    0.99645   1.05303   1.05965   1.06159   1.08379
 Alpha virt. eigenvalues --    1.08693   1.10699   1.11316   1.11971   1.14443
 Alpha virt. eigenvalues --    1.15699   1.19953   1.20597   1.23588   1.24683
 Alpha virt. eigenvalues --    1.29356   1.37602   1.39243   1.41314   1.43080
 Alpha virt. eigenvalues --    1.50364   1.57385   1.60409   1.65712   1.66136
 Alpha virt. eigenvalues --    1.66334   1.68390   1.71715   1.72657   1.73209
 Alpha virt. eigenvalues --    1.78792   1.80509   1.82623   1.85367   1.86535
 Alpha virt. eigenvalues --    1.86940   1.88780   1.93535   2.08992   2.20897
 Alpha virt. eigenvalues --    2.21433   2.42329   2.53876   2.68666   3.03005
 Alpha virt. eigenvalues --    3.05169   3.40315   3.81951   3.91922   3.98318
 Alpha virt. eigenvalues --    4.04238   4.23437
          Condensed to atoms (all electrons):
              1          2          3          4          5          6
     1  O    8.858201  -0.067508  -0.161803   0.009171  -0.010885   0.003774
     2  O   -0.067508   8.930980  -0.163981  -0.043174  -0.033067   0.001816
     3  P   -0.161803  -0.163981  14.743188  -0.094851   0.059023   0.000692
     4  Ca   0.009171  -0.043174  -0.094851  19.170467   0.305947  -0.019265
     5  Ca  -0.010885  -0.033067   0.059023   0.305947  18.713952   0.046242
     6  O    0.003774   0.001816   0.000692  -0.019265   0.046242   8.430383
     7  O   -0.005170  -0.000251  -0.000782   0.001163   0.009351   0.038196
     8  O    0.003771   0.001819   0.000688  -0.019276   0.046222   0.011483
     9  Ca   0.080322   0.000053  -0.067104   0.061637   0.001677   0.092578
              7          8          9
     1  O   -0.005170   0.003771   0.080322
     2  O   -0.000251   0.001819   0.000053
     3  P   -0.000782   0.000688  -0.067104
     4  Ca   0.001163  -0.019276   0.061637
     5  Ca   0.009351   0.046222   0.001677
     6  O    0.038196   0.011483   0.092578
     7  O    7.933798   0.038223   0.032427
     8  O    0.038223   8.430360   0.092602
     9  Ca   0.032427   0.092602  18.285150
 Mulliken atomic charges:
              1
     1  O   -0.709873
     2  O   -0.626687
     3  P    0.684932
     4  Ca   0.628181
     5  Ca   0.861537
     6  O   -0.605900
     7  O   -0.046955
     8  O   -0.605893
     9  Ca   1.420658
 Sum of Mulliken charges=   1.00000
 Atomic charges with hydrogens summed into heavy atoms:
              1
     1  O   -0.709873
     2  O   -0.626687
     3  P    0.684932
     4  Ca   0.628181
     5  Ca   0.861537
     6  O   -0.605900
     7  O   -0.046955
     8  O   -0.605893
     9  Ca   1.420658
 Sum of Mulliken charges=   1.00000
 Electronic spatial extent (au):  <R**2>=  2970.1380
 Charge=     1.0000 electrons
 Dipole moment (field-independent basis, Debye):
    X=     0.2356    Y=     1.6169    Z=     0.0004  Tot=     1.6340
 Quadrupole moment (field-independent basis, Debye-Ang):
   XX=   -65.9600   YY=   -43.3250   ZZ=   -89.4191
   XY=    -9.0895   XZ=    -0.0021   YZ=    -0.0055
 Traceless Quadrupole moment (field-independent basis, Debye-Ang):
   XX=     0.2748   YY=    22.9097   ZZ=   -23.1844
   XY=    -9.0895   XZ=    -0.0021   YZ=    -0.0055
 Octapole moment (field-independent basis, Debye-Ang**2):
  XXX=     4.4599  YYY=   -61.5664  ZZZ=     0.0023  XYY=    34.5581
  XXY=    57.4420  XXZ=    -0.0013  XZZ=    -9.5419  YZZ=   -16.2566
  YYZ=     0.0181  XYZ=    -0.0132
 Hexadecapole moment (field-independent basis, Debye-Ang**3):
 XXXX= -2038.4453 YYYY= -1437.2191 ZZZZ=  -251.8859 XXXY=    19.7867
 XXXZ=    -0.0089 YYYX=  -156.8209 YYYZ=    -0.0189 ZZZX=    -0.0092
 ZZZY=    -0.0049 XXYY=  -390.2306 XXZZ=  -403.5151 YYZZ=  -297.1257
 XXYZ=    -0.0216 YYXZ=    -0.0175 ZZXY=     2.6541
 N-N= 9.204531951082D+02 E-N=-8.338177147149D+03  KE= 2.742194476063D+03
 Merz-Kollman atomic radii used.
 Read replacement radii for each type of atom:
 Rad(20) =   1.188000000000D+00
 Atom Element Radius
    1     8    1.40
    2     8    1.40
    3    15    1.80
    4    20    1.19
    5    20    1.19
    6     8    1.40
    7     8    1.40
    8     8    1.40
    9    20    1.19

 **********************************************************************

            Electrostatic Properties Using The SCF Density

 **********************************************************************

       Atomic Center    1 is at  -1.333887 -2.040251 -0.000220
       Atomic Center    2 is at  -2.595310  0.164927  0.000210
       Atomic Center    3 is at  -2.727278 -1.369683 -0.000280
       Atomic Center    4 is at  -1.831574  2.336268  0.000120
       Atomic Center    5 is at   1.847247  1.772054 -0.000260
       Atomic Center    6 is at   1.943210 -0.251615 -1.196040
       Atomic Center    7 is at   2.815161 -0.476374  0.000140
       Atomic Center    8 is at   1.942630 -0.251195  1.196180
       Atomic Center    9 is at   0.921063 -1.939257  0.000240
     903 points will be used for fitting atomic charges
 Fitting point charges to eletrostatic potential
 Charges from ESP fit, RMS=   0.02513 RRMS=   0.16821:
 Charge=   1.00000 Dipole=     0.5374     4.0454    -0.0001 Tot=     4.0809
              1
     1  O   -0.546637
     2  O   -0.105579
     3  P    0.163260
     4  Ca   0.499197
     5  Ca   0.849079
     6  O   -0.823562
     7  O    0.239464
     8  O   -0.823735
     9  Ca   1.548513
 -----------------------------------------------------------------

              Electrostatic Properties (Atomic Units)

 -----------------------------------------------------------------
    Center     Electric         -------- Electric Field --------
               Potential          X             Y             Z
 -----------------------------------------------------------------
    1 Atom    -22.189938
    2 Atom    -22.190587
    3 Atom    -53.919524
    4 Atom    -80.026972
    5 Atom    -80.030339
    6 Atom    -22.192560
    7 Atom    -22.103101
    8 Atom    -22.192589
    9 Atom    -80.019072
 -----------------------------------------------------------------
 1\1\GINC-N028\SP\RB3LYP\6-31+G(d,p)\Ca3O5P1(1+)\TIMN\12-Jun-2015\0\\# 
 b3lyp/6-31+G(d,p) int=ultrafine pop=(ReadRadii,MK)\\mol_17.25.46.pdbcc
 cc_plusQ.z58351.zip.xyz\\1,1\O,0,-1.33389,-2.04025,-0.00022\O,0,-2.595
 31,0.16493,0.00021\P,0,-2.72728,-1.36968,-0.00028\Ca,0,-1.83157,2.3362
 7,0.00012\Ca,0,1.84725,1.77205,-0.00026\O,0,1.94321,-0.25162,-1.19604\
 O,0,2.81516,-0.47638,0.00014\O,0,1.94263,-0.2512,1.19618\Ca,0,0.92106,
 -1.93926,0.00024\\Version=EM64T-G03RevE.01\State=1-A\HF=-2750.0691126\
 RMSD=9.490e-05\Thermal=0.\Dipole=0.0926839,0.6361456,0.0001468\PG=C01 
 [X(Ca3O5P1)]\\@


 THE ENLIGHTENED ONE, BECAUSE HE SAW MANKIND DROWNING  
 IN THE GREAT SEA OF BIRTH, DEATH, AND SORROW, LONGED TO SAVE 
 THEM, FOR THIS HE WAS MOVED TO PITY.                         
 BECAUSE HE SAW MEN OF THE WORLD STRAYING IN FALSE PATHS, AND 
 NONE TO GUIDE THEM, FOR THIS HE WAS MOVED TO PITY.           
                     ..................                       
 BECAUSE HE SAW THE MEN OF THE WORLD PLOUGHING THEIR FIELDS,  
 SOWING THE SEED, TRAFFICKING, HUCKSTERING, BUYING, SELLING,  
 AND AT THE END WINNOWING NOTHING BUT BITTERNESS,             
 FOR THIS HE WAS MOVED TO PITY......                   
                   BUDAH'S PITY - UPSAKA SILA SUTRA           
 Job cpu time:  0 days  0 hours  2 minutes 17.8 seconds.
 File lengths (MBytes):  RWF=     36 Int=      0 D2E=      0 Chk=     11 Scr=      1
 Normal termination of Gaussian 03 at Fri Jun 12 17:58:27 2015.
