 Entering Gaussian System, Link 0=/home/timn/tmp/g03.e01/g03
 Input=mol_17.24.41.pdbcc_plusQ.z58294.zip.xyz.gjf
 Output=mol_17.24.41.pdbcc_plusQ.z58294.zip.xyz.out
 Initial command:
 /home/timn/tmp/g03.e01/l1.exe /home/timn/tmp/g03.e01/Gau-20061.inp -scrdir=/home/timn/tmp/g03.e01/
 Default is to use a total of   2 processors:
                                2 via shared-memory
                                1 via Linda
 Entering Link 1 = /home/timn/tmp/g03.e01/l1.exe PID=     20062.
  
 Copyright (c) 1988,1990,1992,1993,1995,1998,2003,2004,2007, Gaussian, Inc.
                  All Rights Reserved.
  
 This is the Gaussian(R) 03 program.  It is based on the
 the Gaussian(R) 98 system (copyright 1998, Gaussian, Inc.),
 the Gaussian(R) 94 system (copyright 1995, Gaussian, Inc.),
 the Gaussian 92(TM) system (copyright 1992, Gaussian, Inc.),
 the Gaussian 90(TM) system (copyright 1990, Gaussian, Inc.),
 the Gaussian 88(TM) system (copyright 1988, Gaussian, Inc.),
 the Gaussian 86(TM) system (copyright 1986, Carnegie Mellon
 University), and the Gaussian 82(TM) system (copyright 1983,
 Carnegie Mellon University). Gaussian is a federally registered
 trademark of Gaussian, Inc.
  
 This software contains proprietary and confidential information,
 including trade secrets, belonging to Gaussian, Inc.
  
 This software is provided under written license and may be
 used, copied, transmitted, or stored only in accord with that
 written license.
  
 The following legend is applicable only to US Government
 contracts under FAR:
  
                    RESTRICTED RIGHTS LEGEND
  
 Use, reproduction and disclosure by the US Government is
 subject to restrictions as set forth in subparagraphs (a)
 and (c) of the Commercial Computer Software - Restricted
 Rights clause in FAR 52.227-19.
  
 Gaussian, Inc.
 340 Quinnipiac St., Bldg. 40, Wallingford CT 06492
  
  
 ---------------------------------------------------------------
 Warning -- This program may not be used in any manner that
 competes with the business of Gaussian, Inc. or will provide
 assistance to any competitor of Gaussian, Inc.  The licensee
 of this program is prohibited from giving any competitor of
 Gaussian, Inc. access to this program.  By using this program,
 the user acknowledges that Gaussian, Inc. is engaged in the
 business of creating and licensing software in the field of
 computational chemistry and represents and warrants to the
 licensee that it is not a competitor of Gaussian, Inc. and that
 it will not use this program in any manner prohibited above.
 ---------------------------------------------------------------
  

 Cite this work as:
 Gaussian 03, Revision E.01,
 M. J. Frisch, G. W. Trucks, H. B. Schlegel, G. E. Scuseria, 
 M. A. Robb, J. R. Cheeseman, J. A. Montgomery, Jr., T. Vreven, 
 K. N. Kudin, J. C. Burant, J. M. Millam, S. S. Iyengar, J. Tomasi, 
 V. Barone, B. Mennucci, M. Cossi, G. Scalmani, N. Rega, 
 G. A. Petersson, H. Nakatsuji, M. Hada, M. Ehara, K. Toyota, 
 R. Fukuda, J. Hasegawa, M. Ishida, T. Nakajima, Y. Honda, O. Kitao, 
 H. Nakai, M. Klene, X. Li, J. E. Knox, H. P. Hratchian, J. B. Cross, 
 V. Bakken, C. Adamo, J. Jaramillo, R. Gomperts, R. E. Stratmann, 
 O. Yazyev, A. J. Austin, R. Cammi, C. Pomelli, J. W. Ochterski, 
 P. Y. Ayala, K. Morokuma, G. A. Voth, P. Salvador, J. J. Dannenberg, 
 V. G. Zakrzewski, S. Dapprich, A. D. Daniels, M. C. Strain, 
 O. Farkas, D. K. Malick, A. D. Rabuck, K. Raghavachari, 
 J. B. Foresman, J. V. Ortiz, Q. Cui, A. G. Baboul, S. Clifford, 
 J. Cioslowski, B. B. Stefanov, G. Liu, A. Liashenko, P. Piskorz, 
 I. Komaromi, R. L. Martin, D. J. Fox, T. Keith, M. A. Al-Laham, 
 C. Y. Peng, A. Nanayakkara, M. Challacombe, P. M. W. Gill, 
 B. Johnson, W. Chen, M. W. Wong, C. Gonzalez, and J. A. Pople, 
 Gaussian, Inc., Wallingford CT, 2004.
 
 ******************************************
 Gaussian 03:  EM64T-G03RevE.01 11-Sep-2007
                12-Jun-2015 
 ******************************************
 %nproc=2
 Will use up to    2 processors via shared memory.
 Default route:  MP2=Direct MaxDisk=2000MB
 ----------------------------------------------------
 # b3lyp/6-31+G(d,p) int=ultrafine pop=(ReadRadii,MK)
 ----------------------------------------------------

 Warning!  SCF SP cutoffs with diffuse functions may be unreliable.
 Consider SCF=Tight

 1/38=1/1;
 2/17=6,18=5,40=1/2;
 3/5=1,6=6,7=111,11=2,16=1,25=1,30=1,74=-5,75=5/1,2,3;
 4//1;
 5/5=2,32=1,38=5/2;
 6/7=2,8=2,9=2,10=2,15=8,20=101,28=1/1,2;
 99/5=1,9=1/99;
 ---------------------------------------
 mol_17.24.41.pdbcc_plusQ.z58294.zip.xyz
 ---------------------------------------
 Symbolic Z-matrix:
 Charge =  1 Multiplicity = 1
 O                     2.81204   0.81913  -0.55389 
 O                     0.07268  -1.56369  -0.73446 
 P                    -0.57468  -0.60072   0.28071 
 O                     0.52191  -0.16951   1.30364 
 O                    -1.95364  -1.09834   0.82904 
 Ca                   -3.18323   0.27232  -0.36964 
 O                    -1.00661   0.83399  -0.44374 
 Ca                    1.11702   1.88178   0.17614 
 Ca                    2.31868  -1.23219  -0.17726 
 
                          Input orientation:                          
 ---------------------------------------------------------------------
 Center     Atomic     Atomic              Coordinates (Angstroms)
 Number     Number      Type              X           Y           Z
 ---------------------------------------------------------------------
    1          8             0        2.812040    0.819130   -0.553890
    2          8             0        0.072680   -1.563690   -0.734460
    3         15             0       -0.574680   -0.600720    0.280710
    4          8             0        0.521910   -0.169510    1.303640
    5          8             0       -1.953640   -1.098340    0.829040
    6         20             0       -3.183230    0.272320   -0.369640
    7          8             0       -1.006610    0.833990   -0.443740
    8         20             0        1.117020    1.881780    0.176140
    9         20             0        2.318680   -1.232190   -0.177260
 ---------------------------------------------------------------------
                    Distance matrix (angstroms):
                    1          2          3          4          5
     1  O    0.000000
     2  O    3.635179   0.000000
     3  P    3.765953   1.541738   0.000000
     4  O    3.110068   2.509860   1.560397   0.000000
     5  O    5.319858   2.601356   1.565191   2.686321   0.000000
     6  Ca   6.022974   3.755659   2.826603   4.089394   2.197142
     7  O    3.820267   2.645421   1.664267   2.529174   2.500147
     8  Ca   2.129615   3.713637   3.005926   2.415202   4.328550
     9  Ca   2.143168   2.337708   2.996669   2.559441   4.391272
                    6          7          8          9
     6  Ca   0.000000
     7  O    2.249142   0.000000
     8  Ca   4.623893   2.447840   0.000000
     9  Ca   5.707151   3.923986   3.356440   0.000000
 Stoichiometry    Ca3O5P(1+)
 Framework group  C1[X(Ca3O5P)]
 Deg. of freedom    21
 Full point group                 C1
 Largest Abelian subgroup         C1      NOp   1
 Largest concise Abelian subgroup C1      NOp   1
                         Standard orientation:                         
 ---------------------------------------------------------------------
 Center     Atomic     Atomic              Coordinates (Angstroms)
 Number     Number      Type              X           Y           Z
 ---------------------------------------------------------------------
    1          8             0        2.812039    0.819126   -0.553891
    2          8             0        0.072676   -1.563690   -0.734461
    3         15             0       -0.574683   -0.600720    0.280709
    4          8             0        0.521908   -0.169511    1.303639
    5          8             0       -1.953643   -1.098338    0.829039
    6         20             0       -3.183232    0.272323   -0.369641
    7          8             0       -1.006611    0.833991   -0.443741
    8         20             0        1.117020    1.881778    0.176139
    9         20             0        2.318676   -1.232193   -0.177261
 ---------------------------------------------------------------------
 Rotational constants (GHZ):      1.3949015      0.5301285      0.4264426
 Standard basis: 6-31+G(d,p) (6D, 7F)
 There are   199 symmetry adapted basis functions of A   symmetry.
 Integral buffers will be    131072 words long.
 Raffenetti 2 integral format.
 Two-electron integral symmetry is turned on.
   199 basis functions,   456 primitive gaussians,   199 cartesian basis functions
    57 alpha electrons       57 beta electrons
       nuclear repulsion energy      1034.5663578210 Hartrees.
 NAtoms=    9 NActive=    9 NUniq=    9 SFac= 7.50D-01 NAtFMM=   80 NAOKFM=F Big=F
 One-electron integrals computed using PRISM.
 NBasis=   199 RedAO= T  NBF=   199
 NBsUse=   199 1.00D-06 NBFU=   199
 Harris functional with IExCor=  402 diagonalized for initial guess.
 ExpMin= 7.10D-03 ExpMax= 3.53D+04 ExpMxC= 5.30D+03 IAcc=3 IRadAn=         5 AccDes= 0.00D+00
 HarFok:  IExCor= 402 AccDes= 0.00D+00 IRadAn=         5 IDoV=1
 ScaDFX=  1.000000  1.000000  1.000000  1.000000
 Initial guess orbital symmetries:
       Occupied  (A) (A) (A) (A) (A) (A) (A) (A) (A) (A) (A) (A)
                 (A) (A) (A) (A) (A) (A) (A) (A) (A) (A) (A) (A)
                 (A) (A) (A) (A) (A) (A) (A) (A) (A) (A) (A) (A)
                 (A) (A) (A) (A) (A) (A) (A) (A) (A) (A) (A) (A)
                 (A) (A) (A) (A) (A) (A) (A) (A) (A)
       Virtual   (A) (A) (A) (A) (A) (A) (A) (A) (A) (A) (A) (A)
                 (A) (A) (A) (A) (A) (A) (A) (A) (A) (A) (A) (A)
                 (A) (A) (A) (A) (A) (A) (A) (A) (A) (A) (A) (A)
                 (A) (A) (A) (A) (A) (A) (A) (A) (A) (A) (A) (A)
                 (A) (A) (A) (A) (A) (A) (A) (A) (A) (A) (A) (A)
                 (A) (A) (A) (A) (A) (A) (A) (A) (A) (A) (A) (A)
                 (A) (A) (A) (A) (A) (A) (A) (A) (A) (A) (A) (A)
                 (A) (A) (A) (A) (A) (A) (A) (A) (A) (A) (A) (A)
                 (A) (A) (A) (A) (A) (A) (A) (A) (A) (A) (A) (A)
                 (A) (A) (A) (A) (A) (A) (A) (A) (A) (A) (A) (A)
                 (A) (A) (A) (A) (A) (A) (A) (A) (A) (A) (A) (A)
                 (A) (A) (A) (A) (A) (A) (A) (A) (A) (A)
 The electronic state of the initial guess is 1-A.
 Requested convergence on RMS density matrix=1.00D-04 within 128 cycles.
 Requested convergence on MAX density matrix=1.00D-02.
 Requested convergence on             energy=1.00D-02.
 No special actions if energy rises.
 EnCoef did     4 forward-backward iterations
 EnCoef did     3 forward-backward iterations
 EnCoef did     4 forward-backward iterations
 EnCoef did     3 forward-backward iterations
 EnCoef did    16 forward-backward iterations
 SCF Done:  E(RB+HF-LYP) =  -2750.26915531     A.U. after    8 cycles
             Convg  =    0.7043D-04             -V/T =  2.0026
             S**2   =   0.0000

 **********************************************************************

            Population analysis using the SCF density.

 **********************************************************************

 Orbital symmetries:
       Occupied  (A) (A) (A) (A) (A) (A) (A) (A) (A) (A) (A) (A)
                 (A) (A) (A) (A) (A) (A) (A) (A) (A) (A) (A) (A)
                 (A) (A) (A) (A) (A) (A) (A) (A) (A) (A) (A) (A)
                 (A) (A) (A) (A) (A) (A) (A) (A) (A) (A) (A) (A)
                 (A) (A) (A) (A) (A) (A) (A) (A) (A)
       Virtual   (A) (A) (A) (A) (A) (A) (A) (A) (A) (A) (A) (A)
                 (A) (A) (A) (A) (A) (A) (A) (A) (A) (A) (A) (A)
                 (A) (A) (A) (A) (A) (A) (A) (A) (A) (A) (A) (A)
                 (A) (A) (A) (A) (A) (A) (A) (A) (A) (A) (A) (A)
                 (A) (A) (A) (A) (A) (A) (A) (A) (A) (A) (A) (A)
                 (A) (A) (A) (A) (A) (A) (A) (A) (A) (A) (A) (A)
                 (A) (A) (A) (A) (A) (A) (A) (A) (A) (A) (A) (A)
                 (A) (A) (A) (A) (A) (A) (A) (A) (A) (A) (A) (A)
                 (A) (A) (A) (A) (A) (A) (A) (A) (A) (A) (A) (A)
                 (A) (A) (A) (A) (A) (A) (A) (A) (A) (A) (A) (A)
                 (A) (A) (A) (A) (A) (A) (A) (A) (A) (A) (A) (A)
                 (A) (A) (A) (A) (A) (A) (A) (A) (A) (A)
 The electronic state is 1-A.
 Alpha  occ. eigenvalues -- -145.53880-145.50358-145.49121 -77.31099 -19.24082
 Alpha  occ. eigenvalues --  -19.23751 -19.22020 -19.20898 -19.18554 -15.60764
 Alpha  occ. eigenvalues --  -15.57177 -15.55977 -12.73992 -12.73921 -12.73886
 Alpha  occ. eigenvalues --  -12.70406 -12.70390 -12.70266 -12.69204 -12.69176
 Alpha  occ. eigenvalues --  -12.69066  -6.75468  -4.91909  -4.91791  -4.91748
 Alpha  occ. eigenvalues --   -1.97916  -1.94292  -1.93217  -1.25689  -1.25501
 Alpha  occ. eigenvalues --   -1.25193  -1.22335  -1.21888  -1.21580  -1.20988
 Alpha  occ. eigenvalues --   -1.20834  -1.20337  -1.12678  -1.04549  -1.03706
 Alpha  occ. eigenvalues --   -1.02513  -0.91598  -0.62599  -0.54021  -0.53470
 Alpha  occ. eigenvalues --   -0.52644  -0.46942  -0.44745  -0.44038  -0.42407
 Alpha  occ. eigenvalues --   -0.41944  -0.39393  -0.38034  -0.37124  -0.36557
 Alpha  occ. eigenvalues --   -0.34866  -0.34597
 Alpha virt. eigenvalues --   -0.21764  -0.18344  -0.17050  -0.12962  -0.12133
 Alpha virt. eigenvalues --   -0.10104  -0.10035  -0.09176  -0.08492  -0.07811
 Alpha virt. eigenvalues --   -0.07107  -0.06541  -0.05569  -0.05317  -0.04892
 Alpha virt. eigenvalues --   -0.04582  -0.04211  -0.04057  -0.03948  -0.03849
 Alpha virt. eigenvalues --   -0.03639  -0.03261  -0.03112  -0.02650  -0.01685
 Alpha virt. eigenvalues --   -0.00971  -0.00218   0.00927   0.01470   0.02227
 Alpha virt. eigenvalues --    0.02510   0.02989   0.03747   0.04253   0.04281
 Alpha virt. eigenvalues --    0.04765   0.04895   0.05546   0.05699   0.06640
 Alpha virt. eigenvalues --    0.07083   0.07517   0.07839   0.08029   0.09228
 Alpha virt. eigenvalues --    0.09649   0.09977   0.10317   0.10648   0.12098
 Alpha virt. eigenvalues --    0.12508   0.14236   0.15322   0.16374   0.17304
 Alpha virt. eigenvalues --    0.17747   0.18072   0.18891   0.21138   0.21767
 Alpha virt. eigenvalues --    0.22607   0.23435   0.23975   0.24741   0.25644
 Alpha virt. eigenvalues --    0.26522   0.26991   0.28976   0.30281   0.31250
 Alpha virt. eigenvalues --    0.31768   0.33939   0.34696   0.37019   0.38759
 Alpha virt. eigenvalues --    0.41523   0.46306   0.50176   0.51012   0.54734
 Alpha virt. eigenvalues --    0.56035   0.57275   0.59541   0.63693   0.68410
 Alpha virt. eigenvalues --    0.76857   0.87113   0.92997   0.98326   0.99369
 Alpha virt. eigenvalues --    1.06218   1.11480   1.12933   1.16096   1.16308
 Alpha virt. eigenvalues --    1.19116   1.19633   1.19975   1.20856   1.21452
 Alpha virt. eigenvalues --    1.24317   1.26127   1.27338   1.29056   1.29358
 Alpha virt. eigenvalues --    1.33327   1.41500   1.49300   1.53859   1.59246
 Alpha virt. eigenvalues --    1.67791   1.69110   1.70210   1.70779   1.73268
 Alpha virt. eigenvalues --    1.74575   1.76281   1.77223   1.80696   1.81953
 Alpha virt. eigenvalues --    1.82468   1.85021   1.85355   1.88403   1.89811
 Alpha virt. eigenvalues --    1.92784   1.98731   1.99857   2.03524   2.08957
 Alpha virt. eigenvalues --    2.14564   2.20997   2.46227   2.66726   2.73196
 Alpha virt. eigenvalues --    2.79032   3.48514   3.94115   4.02852   4.06371
 Alpha virt. eigenvalues --    4.09715   4.13950
          Condensed to atoms (all electrons):
              1          2          3          4          5          6
     1  O    8.996563   0.001159  -0.000860   0.016916  -0.000417   0.000845
     2  O    0.001159   8.805132   0.237861  -0.136894  -0.098340  -0.002534
     3  P   -0.000860   0.237861  12.658830   0.066229   0.142950   0.008615
     4  O    0.016916  -0.136894   0.066229   9.015077  -0.037998   0.006366
     5  O   -0.000417  -0.098340   0.142950  -0.037998   8.838147   0.130896
     6  Ca   0.000845  -0.002534   0.008615   0.006366   0.130896  18.209274
     7  O   -0.001335   0.026513   0.057370  -0.010195  -0.111063   0.063921
     8  Ca   0.165562  -0.012004   0.013084   0.077511   0.003981  -0.005611
     9  Ca   0.166954   0.069718   0.015757   0.042000   0.013263   0.001104
              7          8          9
     1  O   -0.001335   0.165562   0.166954
     2  O    0.026513  -0.012004   0.069718
     3  P    0.057370   0.013084   0.015757
     4  O   -0.010195   0.077511   0.042000
     5  O   -0.111063   0.003981   0.013263
     6  Ca   0.063921  -0.005611   0.001104
     7  O    9.056647   0.042106  -0.000635
     8  Ca   0.042106  18.277081  -0.017635
     9  Ca  -0.000635  -0.017635  18.272929
 Mulliken atomic charges:
              1
     1  O   -1.345386
     2  O   -0.890611
     3  P    1.800164
     4  O   -1.039013
     5  O   -0.881419
     6  Ca   1.587124
     7  O   -1.123329
     8  Ca   1.455925
     9  Ca   1.436546
 Sum of Mulliken charges=   1.00000
 Atomic charges with hydrogens summed into heavy atoms:
              1
     1  O   -1.345386
     2  O   -0.890611
     3  P    1.800164
     4  O   -1.039013
     5  O   -0.881419
     6  Ca   1.587124
     7  O   -1.123329
     8  Ca   1.455925
     9  Ca   1.436546
 Sum of Mulliken charges=   1.00000
 Electronic spatial extent (au):  <R**2>=  2340.5460
 Charge=     1.0000 electrons
 Dipole moment (field-independent basis, Debye):
    X=   -14.4699    Y=     4.6820    Z=    -0.7242  Tot=    15.2258
 Quadrupole moment (field-independent basis, Debye-Ang):
   XX=   -12.2777   YY=   -49.2046   ZZ=   -83.3065
   XY=   -32.0580   XZ=    20.4145   YZ=     7.3478
 Traceless Quadrupole moment (field-independent basis, Debye-Ang):
   XX=    35.9852   YY=    -0.9417   ZZ=   -35.0435
   XY=   -32.0580   XZ=    20.4145   YZ=     7.3478
 Octapole moment (field-independent basis, Debye-Ang**2):
  XXX=  -318.0477  YYY=    64.7561  ZZZ=   -10.7132  XYY=    51.3153
  XXY=   -45.8408  XXZ=   -20.0215  XZZ=   -13.9721  YZZ=     7.6594
  YYZ=    10.3144  XYZ=    11.2692
 Hexadecapole moment (field-independent basis, Debye-Ang**3):
 XXXX=  -925.9846 YYYY=  -466.0331 ZZZZ=  -244.4406 XXXY=  -402.6481
 XXXZ=   228.6836 YYYX=   -40.2696 YYYZ=    20.8603 ZZZX=    37.2137
 ZZZY=    15.7833 XXYY=  -294.6489 XXZZ=  -308.2787 YYZZ=  -138.0419
 XXYZ=    50.7617 YYXZ=    25.1566 ZZXY=   -26.5699
 N-N= 1.034566357821D+03 E-N=-8.573578131816D+03  KE= 2.743093654326D+03
 Merz-Kollman atomic radii used.
 Read replacement radii for each type of atom:
 Rad(20) =   1.188000000000D+00
 Atom Element Radius
    1     8    1.40
    2     8    1.40
    3    15    1.80
    4     8    1.40
    5     8    1.40
    6    20    1.19
    7     8    1.40
    8    20    1.19
    9    20    1.19

 **********************************************************************

            Electrostatic Properties Using The SCF Density

 **********************************************************************

       Atomic Center    1 is at   2.812039  0.819126 -0.553891
       Atomic Center    2 is at   0.072676 -1.563690 -0.734461
       Atomic Center    3 is at  -0.574683 -0.600720  0.280709
       Atomic Center    4 is at   0.521908 -0.169511  1.303639
       Atomic Center    5 is at  -1.953643 -1.098338  0.829039
       Atomic Center    6 is at  -3.183232  0.272323 -0.369641
       Atomic Center    7 is at  -1.006611  0.833991 -0.443741
       Atomic Center    8 is at   1.117020  1.881778  0.176139
       Atomic Center    9 is at   2.318676 -1.232193 -0.177261
     748 points will be used for fitting atomic charges
 Fitting point charges to eletrostatic potential
 Charges from ESP fit, RMS=   0.00409 RRMS=   0.02541:
 Charge=   1.00000 Dipole=   -14.4916     4.7440    -0.6472 Tot=    15.2621
              1
     1  O   -1.656052
     2  O   -0.965398
     3  P    1.601780
     4  O   -1.041266
     5  O   -0.900465
     6  Ca   1.777681
     7  O   -1.228388
     8  Ca   1.726428
     9  Ca   1.685680
 -----------------------------------------------------------------

              Electrostatic Properties (Atomic Units)

 -----------------------------------------------------------------
    Center     Electric         -------- Electric Field --------
               Potential          X             Y             Z
 -----------------------------------------------------------------
    1 Atom    -22.653571
    2 Atom    -22.286115
    3 Atom    -53.892937
    4 Atom    -22.289872
    5 Atom    -22.215008
    6 Atom    -79.932364
    7 Atom    -22.225490
    8 Atom    -80.091319
    9 Atom    -80.110861
 -----------------------------------------------------------------
 1\1\GINC-N022\SP\RB3LYP\6-31+G(d,p)\Ca3O5P1(1+)\TIMN\12-Jun-2015\0\\# 
 b3lyp/6-31+G(d,p) int=ultrafine pop=(ReadRadii,MK)\\mol_17.24.41.pdbcc
 _plusQ.z58294.zip.xyz\\1,1\O,0,2.81204,0.81913,-0.55389\O,0,0.07268,-1
 .56369,-0.73446\P,0,-0.57468,-0.60072,0.28071\O,0,0.52191,-0.16951,1.3
 0364\O,0,-1.95364,-1.09834,0.82904\Ca,0,-3.18323,0.27232,-0.36964\O,0,
 -1.00661,0.83399,-0.44374\Ca,0,1.11702,1.88178,0.17614\Ca,0,2.31868,-1
 .23219,-0.17726\\Version=EM64T-G03RevE.01\State=1-A\HF=-2750.2691553\R
 MSD=7.043e-05\Thermal=0.\Dipole=-5.6929079,1.8420145,-0.2849119\PG=C01
  [X(Ca3O5P1)]\\@


 K N O W I N G  IS A BARRIER WHICH PREVENTS LEARNING

                     -- TEACHING OF THE BENE GESSERIT
 Job cpu time:  0 days  0 hours  2 minutes  7.5 seconds.
 File lengths (MBytes):  RWF=     36 Int=      0 D2E=      0 Chk=     11 Scr=      1
 Normal termination of Gaussian 03 at Fri Jun 12 17:56:07 2015.
