 Entering Gaussian System, Link 0=/home/timn/tmp/g03.e01/g03
 Input=mol_17.23.44.pdbc_plusQ.z58245.zip.xyz.gjf
 Output=mol_17.23.44.pdbc_plusQ.z58245.zip.xyz.out
 Initial command:
 /home/timn/tmp/g03.e01/l1.exe /home/timn/tmp/g03.e01/Gau-13706.inp -scrdir=/home/timn/tmp/g03.e01/
 Default is to use a total of   2 processors:
                                2 via shared-memory
                                1 via Linda
 Entering Link 1 = /home/timn/tmp/g03.e01/l1.exe PID=     13707.
  
 Copyright (c) 1988,1990,1992,1993,1995,1998,2003,2004,2007, Gaussian, Inc.
                  All Rights Reserved.
  
 This is the Gaussian(R) 03 program.  It is based on the
 the Gaussian(R) 98 system (copyright 1998, Gaussian, Inc.),
 the Gaussian(R) 94 system (copyright 1995, Gaussian, Inc.),
 the Gaussian 92(TM) system (copyright 1992, Gaussian, Inc.),
 the Gaussian 90(TM) system (copyright 1990, Gaussian, Inc.),
 the Gaussian 88(TM) system (copyright 1988, Gaussian, Inc.),
 the Gaussian 86(TM) system (copyright 1986, Carnegie Mellon
 University), and the Gaussian 82(TM) system (copyright 1983,
 Carnegie Mellon University). Gaussian is a federally registered
 trademark of Gaussian, Inc.
  
 This software contains proprietary and confidential information,
 including trade secrets, belonging to Gaussian, Inc.
  
 This software is provided under written license and may be
 used, copied, transmitted, or stored only in accord with that
 written license.
  
 The following legend is applicable only to US Government
 contracts under FAR:
  
                    RESTRICTED RIGHTS LEGEND
  
 Use, reproduction and disclosure by the US Government is
 subject to restrictions as set forth in subparagraphs (a)
 and (c) of the Commercial Computer Software - Restricted
 Rights clause in FAR 52.227-19.
  
 Gaussian, Inc.
 340 Quinnipiac St., Bldg. 40, Wallingford CT 06492
  
  
 ---------------------------------------------------------------
 Warning -- This program may not be used in any manner that
 competes with the business of Gaussian, Inc. or will provide
 assistance to any competitor of Gaussian, Inc.  The licensee
 of this program is prohibited from giving any competitor of
 Gaussian, Inc. access to this program.  By using this program,
 the user acknowledges that Gaussian, Inc. is engaged in the
 business of creating and licensing software in the field of
 computational chemistry and represents and warrants to the
 licensee that it is not a competitor of Gaussian, Inc. and that
 it will not use this program in any manner prohibited above.
 ---------------------------------------------------------------
  

 Cite this work as:
 Gaussian 03, Revision E.01,
 M. J. Frisch, G. W. Trucks, H. B. Schlegel, G. E. Scuseria, 
 M. A. Robb, J. R. Cheeseman, J. A. Montgomery, Jr., T. Vreven, 
 K. N. Kudin, J. C. Burant, J. M. Millam, S. S. Iyengar, J. Tomasi, 
 V. Barone, B. Mennucci, M. Cossi, G. Scalmani, N. Rega, 
 G. A. Petersson, H. Nakatsuji, M. Hada, M. Ehara, K. Toyota, 
 R. Fukuda, J. Hasegawa, M. Ishida, T. Nakajima, Y. Honda, O. Kitao, 
 H. Nakai, M. Klene, X. Li, J. E. Knox, H. P. Hratchian, J. B. Cross, 
 V. Bakken, C. Adamo, J. Jaramillo, R. Gomperts, R. E. Stratmann, 
 O. Yazyev, A. J. Austin, R. Cammi, C. Pomelli, J. W. Ochterski, 
 P. Y. Ayala, K. Morokuma, G. A. Voth, P. Salvador, J. J. Dannenberg, 
 V. G. Zakrzewski, S. Dapprich, A. D. Daniels, M. C. Strain, 
 O. Farkas, D. K. Malick, A. D. Rabuck, K. Raghavachari, 
 J. B. Foresman, J. V. Ortiz, Q. Cui, A. G. Baboul, S. Clifford, 
 J. Cioslowski, B. B. Stefanov, G. Liu, A. Liashenko, P. Piskorz, 
 I. Komaromi, R. L. Martin, D. J. Fox, T. Keith, M. A. Al-Laham, 
 C. Y. Peng, A. Nanayakkara, M. Challacombe, P. M. W. Gill, 
 B. Johnson, W. Chen, M. W. Wong, C. Gonzalez, and J. A. Pople, 
 Gaussian, Inc., Wallingford CT, 2004.
 
 ******************************************
 Gaussian 03:  EM64T-G03RevE.01 11-Sep-2007
                12-Jun-2015 
 ******************************************
 %nproc=2
 Will use up to    2 processors via shared memory.
 Default route:  MP2=Direct MaxDisk=2000MB
 ----------------------------------------------------
 # b3lyp/6-31+G(d,p) int=ultrafine pop=(ReadRadii,MK)
 ----------------------------------------------------

 Warning!  SCF SP cutoffs with diffuse functions may be unreliable.
 Consider SCF=Tight

 1/38=1/1;
 2/17=6,18=5,40=1/2;
 3/5=1,6=6,7=111,11=2,16=1,25=1,30=1,74=-5,75=5/1,2,3;
 4//1;
 5/5=2,32=1,38=5/2;
 6/7=2,8=2,9=2,10=2,15=8,20=101,28=1/1,2;
 99/5=1,9=1/99;
 --------------------------------------
 mol_17.23.44.pdbc_plusQ.z58245.zip.xyz
 --------------------------------------
 Symbolic Z-matrix:
 Charge =  1 Multiplicity = 1
 O                    -1.30958  -2.49942   0. 
 P                    -1.30552  -0.96035   0. 
 O                    -2.61399  -0.13977   0. 
 Ca                   -1.93116   2.14523   0. 
 O                     0.        1.19671   0. 
 O                     0.30948   2.72056   0. 
 Ca                    2.20058   1.11918   0. 
 O                     2.51708  -1.02391   0. 
 Ca                    1.14853  -2.64582   0. 
 
                          Input orientation:                          
 ---------------------------------------------------------------------
 Center     Atomic     Atomic              Coordinates (Angstroms)
 Number     Number      Type              X           Y           Z
 ---------------------------------------------------------------------
    1          8             0       -1.309580   -2.499420    0.000000
    2         15             0       -1.305520   -0.960350    0.000000
    3          8             0       -2.613990   -0.139770    0.000000
    4         20             0       -1.931160    2.145230    0.000000
    5          8             0        0.000000    1.196710    0.000000
    6          8             0        0.309480    2.720560    0.000000
    7         20             0        2.200580    1.119180    0.000000
    8          8             0        2.517080   -1.023910    0.000000
    9         20             0        1.148530   -2.645820    0.000000
 ---------------------------------------------------------------------
                    Distance matrix (angstroms):
                    1          2          3          4          5
     1  O    0.000000
     2  P    1.539075   0.000000
     3  O    2.696189   1.544489   0.000000
     4  Ca   4.686058   3.167973   2.384844   0.000000
     5  O    3.921272   2.521367   2.935834   2.151527   0.000000
     6  O    5.465304   4.019617   4.090008   2.313325   1.554959
     7  Ca   5.041378   4.076418   4.976448   4.257235   2.201945
     8  O    4.101275   3.823128   5.206686   5.461711   3.356612
     9  Ca   2.462466   2.977108   4.520713   5.695494   4.010506
                    6          7          8          9
     6  O    0.000000
     7  Ca   2.478039   0.000000
     8  O    4.346787   2.166335   0.000000
     9  Ca   5.431578   3.909224   2.122150   0.000000
 Stoichiometry    Ca3O5P(1+)
 Framework group  CS[SG(Ca3O5P)]
 Deg. of freedom    15
 Full point group                 CS
 Largest Abelian subgroup         CS      NOp   2
 Largest concise Abelian subgroup C1      NOp   1
                         Standard orientation:                         
 ---------------------------------------------------------------------
 Center     Atomic     Atomic              Coordinates (Angstroms)
 Number     Number      Type              X           Y           Z
 ---------------------------------------------------------------------
    1          8             0       -1.309583   -2.499418    0.000000
    2         15             0       -1.305522   -0.960348    0.000000
    3          8             0       -2.613991   -0.139767    0.000000
    4         20             0       -1.931159    2.145232    0.000000
    5          8             0        0.000000    1.196711    0.000000
    6          8             0        0.309481    2.720561    0.000000
    7         20             0        2.200580    1.119179    0.000000
    8          8             0        2.517078   -1.023911    0.000000
    9         20             0        1.148527   -2.645820    0.000000
 ---------------------------------------------------------------------
 Rotational constants (GHZ):      0.8256167      0.5768500      0.3395852
 Standard basis: 6-31+G(d,p) (6D, 7F)
 There are   147 symmetry adapted basis functions of A'  symmetry.
 There are    52 symmetry adapted basis functions of A"  symmetry.
 Integral buffers will be    131072 words long.
 Raffenetti 2 integral format.
 Two-electron integral symmetry is turned on.
   199 basis functions,   456 primitive gaussians,   199 cartesian basis functions
    57 alpha electrons       57 beta electrons
       nuclear repulsion energy       945.2610321440 Hartrees.
 NAtoms=    9 NActive=    9 NUniq=    9 SFac= 7.50D-01 NAtFMM=   80 NAOKFM=F Big=F
 One-electron integrals computed using PRISM.
 NBasis=   199 RedAO= T  NBF=   147    52
 NBsUse=   199 1.00D-06 NBFU=   147    52
 Harris functional with IExCor=  402 diagonalized for initial guess.
 ExpMin= 7.10D-03 ExpMax= 3.53D+04 ExpMxC= 5.30D+03 IAcc=3 IRadAn=         5 AccDes= 0.00D+00
 HarFok:  IExCor= 402 AccDes= 0.00D+00 IRadAn=         5 IDoV=1
 ScaDFX=  1.000000  1.000000  1.000000  1.000000
 Initial guess orbital symmetries:
       Occupied  (A') (A') (A') (A') (A') (A') (A') (A') (A') (A')
                 (A') (A') (A') (A') (A") (A') (A') (A") (A') (A')
                 (A") (A') (A') (A') (A") (A') (A') (A') (A') (A')
                 (A') (A') (A') (A') (A") (A") (A") (A') (A') (A')
                 (A') (A') (A') (A') (A') (A') (A") (A') (A") (A')
                 (A') (A') (A") (A") (A') (A") (A')
       Virtual   (A') (A") (A') (A') (A') (A") (A') (A") (A') (A")
                 (A') (A') (A') (A') (A') (A') (A') (A") (A') (A")
                 (A") (A') (A') (A') (A') (A') (A') (A') (A") (A')
                 (A') (A") (A") (A') (A') (A") (A') (A') (A') (A")
                 (A") (A') (A") (A') (A") (A') (A') (A') (A') (A")
                 (A') (A") (A') (A') (A') (A") (A') (A') (A') (A")
                 (A') (A") (A') (A') (A") (A') (A') (A") (A') (A')
                 (A') (A') (A') (A') (A") (A') (A') (A') (A') (A')
                 (A") (A') (A") (A') (A') (A') (A') (A') (A') (A')
                 (A") (A") (A") (A') (A") (A') (A") (A') (A') (A')
                 (A') (A') (A') (A') (A') (A') (A') (A") (A') (A')
                 (A') (A') (A') (A") (A") (A") (A") (A') (A") (A')
                 (A") (A') (A') (A') (A') (A") (A') (A') (A") (A')
                 (A') (A") (A') (A') (A') (A') (A') (A') (A') (A')
                 (A') (A')
 The electronic state of the initial guess is 1-A'.
 Requested convergence on RMS density matrix=1.00D-04 within 128 cycles.
 Requested convergence on MAX density matrix=1.00D-02.
 Requested convergence on             energy=1.00D-02.
 No special actions if energy rises.
 EnCoef did     2 forward-backward iterations
 EnCoef did     2 forward-backward iterations
 EnCoef did     4 forward-backward iterations
 SCF Done:  E(RB+HF-LYP) =  -2750.13357237     A.U. after   10 cycles
             Convg  =    0.6526D-04             -V/T =  2.0029
             S**2   =   0.0000

 **********************************************************************

            Population analysis using the SCF density.

 **********************************************************************

 Orbital symmetries:
       Occupied  (A') (A') (A') (A') (A') (A') (A') (A') (A') (A')
                 (A') (A') (A") (A') (A') (A") (A') (A') (A") (A')
                 (A') (A') (A") (A') (A') (A') (A') (A') (A') (A")
                 (A') (A") (A') (A') (A') (A") (A') (A') (A') (A')
                 (A') (A') (A') (A') (A') (A") (A') (A') (A") (A')
                 (A") (A') (A') (A') (A") (A") (A')
       Virtual   (A') (A') (A") (A') (A") (A') (A") (A') (A') (A")
                 (A') (A') (A') (A') (A') (A") (A') (A') (A') (A")
                 (A") (A') (A') (A') (A') (A') (A") (A') (A') (A')
                 (A') (A') (A") (A') (A") (A') (A') (A") (A") (A')
                 (A") (A') (A") (A') (A') (A") (A') (A") (A') (A')
                 (A") (A') (A') (A') (A") (A') (A') (A') (A') (A")
                 (A") (A') (A') (A') (A") (A') (A") (A') (A') (A')
                 (A') (A') (A') (A") (A') (A') (A') (A') (A') (A')
                 (A") (A') (A") (A') (A') (A') (A') (A') (A') (A')
                 (A") (A") (A") (A') (A') (A") (A') (A") (A') (A')
                 (A') (A') (A') (A') (A') (A') (A') (A') (A') (A")
                 (A') (A') (A') (A") (A") (A") (A') (A') (A") (A')
                 (A') (A") (A") (A") (A') (A') (A") (A') (A') (A')
                 (A') (A") (A') (A') (A') (A') (A') (A') (A') (A')
                 (A') (A')
 The electronic state is 1-A'.
 Alpha  occ. eigenvalues -- -145.53140-145.49946-145.45495 -77.27356 -19.26246
 Alpha  occ. eigenvalues --  -19.26052 -19.23332 -19.23102 -19.11534 -15.59922
 Alpha  occ. eigenvalues --  -15.56818 -15.52382 -12.73194 -12.73084 -12.73029
 Alpha  occ. eigenvalues --  -12.70069 -12.70038 -12.69861 -12.65654 -12.65563
 Alpha  occ. eigenvalues --  -12.65432  -6.72953  -4.89344  -4.89167  -4.88799
 Alpha  occ. eigenvalues --   -1.96946  -1.93925  -1.89676  -1.24778  -1.24748
 Alpha  occ. eigenvalues --   -1.24031  -1.21743  -1.21682  -1.20586  -1.17706
 Alpha  occ. eigenvalues --   -1.17667  -1.16588  -1.11543  -1.07223  -1.06377
 Alpha  occ. eigenvalues --   -0.86979  -0.85663  -0.64349  -0.53129  -0.52565
 Alpha  occ. eigenvalues --   -0.50282  -0.46701  -0.46422  -0.44211  -0.43746
 Alpha  occ. eigenvalues --   -0.43572  -0.35544  -0.34735  -0.31904  -0.31206
 Alpha  occ. eigenvalues --   -0.29797  -0.29514
 Alpha virt. eigenvalues --   -0.19998  -0.17693  -0.17324  -0.15028  -0.11890
 Alpha virt. eigenvalues --   -0.10334  -0.10272  -0.09992  -0.09109  -0.08530
 Alpha virt. eigenvalues --   -0.08204  -0.06886  -0.06465  -0.05837  -0.05330
 Alpha virt. eigenvalues --   -0.04958  -0.04958  -0.04449  -0.04153  -0.04135
 Alpha virt. eigenvalues --   -0.03964  -0.03746  -0.03542  -0.03167  -0.02977
 Alpha virt. eigenvalues --   -0.02476  -0.02332  -0.02296  -0.00053   0.00372
 Alpha virt. eigenvalues --    0.01689   0.02868   0.03513   0.03587   0.04237
 Alpha virt. eigenvalues --    0.04620   0.05262   0.05645   0.06082   0.06674
 Alpha virt. eigenvalues --    0.07114   0.07535   0.08230   0.08240   0.08888
 Alpha virt. eigenvalues --    0.09645   0.10624   0.10722   0.10821   0.11746
 Alpha virt. eigenvalues --    0.12460   0.12723   0.13751   0.14750   0.14979
 Alpha virt. eigenvalues --    0.16091   0.18260   0.18498   0.18888   0.18941
 Alpha virt. eigenvalues --    0.20781   0.20941   0.23269   0.26072   0.27201
 Alpha virt. eigenvalues --    0.27897   0.29355   0.29577   0.32002   0.32957
 Alpha virt. eigenvalues --    0.33279   0.34389   0.36030   0.36319   0.37332
 Alpha virt. eigenvalues --    0.39349   0.40634   0.45286   0.48990   0.51397
 Alpha virt. eigenvalues --    0.57322   0.58096   0.58431   0.59955   0.67695
 Alpha virt. eigenvalues --    0.71959   0.75244   0.81166   0.92110   0.95957
 Alpha virt. eigenvalues --    1.05224   1.09347   1.10355   1.10478   1.14306
 Alpha virt. eigenvalues --    1.14556   1.16498   1.16645   1.17907   1.19714
 Alpha virt. eigenvalues --    1.21411   1.22338   1.24749   1.30017   1.30926
 Alpha virt. eigenvalues --    1.35763   1.43705   1.44725   1.48552   1.50569
 Alpha virt. eigenvalues --    1.54210   1.60204   1.62078   1.67932   1.69938
 Alpha virt. eigenvalues --    1.73147   1.75400   1.78170   1.80381   1.81288
 Alpha virt. eigenvalues --    1.83769   1.84611   1.85459   1.86472   1.87587
 Alpha virt. eigenvalues --    1.89754   1.92742   1.96957   2.00885   2.04282
 Alpha virt. eigenvalues --    2.10037   2.20230   2.22735   2.60631   2.70685
 Alpha virt. eigenvalues --    3.08148   3.40584   3.85339   3.89995   3.99328
 Alpha virt. eigenvalues --    4.05663   4.18518
          Condensed to atoms (all electrons):
              1          2          3          4          5          6
     1  O    9.102136  -0.624548   0.059640   0.018050  -0.031297  -0.006337
     2  P   -0.624548  15.250659  -0.092400  -0.036362  -0.025051   0.011916
     3  O    0.059640  -0.092400   8.731585   0.059442  -0.020511  -0.012787
     4  Ca   0.018050  -0.036362   0.059442  18.225712   0.097984   0.111213
     5  O   -0.031297  -0.025051  -0.020511   0.097984   8.713348  -0.160797
     6  O   -0.006337   0.011916  -0.012787   0.111213  -0.160797   8.730543
     7  Ca  -0.012389   0.041526  -0.003089  -0.017921   0.045914   0.084171
     8  O    0.004645  -0.033564   0.003551   0.001757   0.006127  -0.001243
     9  Ca   0.071732  -0.068969   0.025732   0.006360   0.012880  -0.004687
              7          8          9
     1  O   -0.012389   0.004645   0.071732
     2  P    0.041526  -0.033564  -0.068969
     3  O   -0.003089   0.003551   0.025732
     4  Ca  -0.017921   0.001757   0.006360
     5  O    0.045914   0.006127   0.012880
     6  O    0.084171  -0.001243  -0.004687
     7  Ca  18.271937   0.186684  -0.019257
     8  O    0.186684   8.795290   0.257791
     9  Ca  -0.019257   0.257791  18.306981
 Mulliken atomic charges:
              1
     1  O   -0.581631
     2  P    0.576794
     3  O   -0.751162
     4  Ca   1.533766
     5  O   -0.638597
     6  O   -0.751993
     7  Ca   1.422424
     8  O   -1.221038
     9  Ca   1.411437
 Sum of Mulliken charges=   1.00000
 Atomic charges with hydrogens summed into heavy atoms:
              1
     1  O   -0.581631
     2  P    0.576794
     3  O   -0.751162
     4  Ca   1.533766
     5  O   -0.638597
     6  O   -0.751993
     7  Ca   1.422424
     8  O   -1.221038
     9  Ca   1.411437
 Sum of Mulliken charges=   1.00000
 Electronic spatial extent (au):  <R**2>=  2776.1307
 Charge=     1.0000 electrons
 Dipole moment (field-independent basis, Debye):
    X=    -0.7669    Y=     3.5787    Z=     0.0000  Tot=     3.6600
 Quadrupole moment (field-independent basis, Debye-Ang):
   XX=   -60.1245   YY=   -29.5385   ZZ=   -73.8962
   XY=   -27.8043   XZ=     0.0000   YZ=     0.0000
 Traceless Quadrupole moment (field-independent basis, Debye-Ang):
   XX=    -5.6047   YY=    24.9812   ZZ=   -19.3765
   XY=   -27.8043   XZ=     0.0000   YZ=     0.0000
 Octapole moment (field-independent basis, Debye-Ang**2):
  XXX=   -19.4010  YYY=   -71.2261  ZZZ=     0.0000  XYY=     7.1802
  XXY=   141.4294  XXZ=     0.0000  XZZ=    -1.7806  YZZ=     4.2429
  YYZ=     0.0000  XYZ=     0.0000
 Hexadecapole moment (field-independent basis, Debye-Ang**3):
 XXXX= -1509.4482 YYYY= -1252.2528 ZZZZ=   -84.8309 XXXY=   117.2162
 XXXZ=     0.0000 YYYX=  -311.4102 YYYZ=     0.0000 ZZZX=     0.0000
 ZZZY=     0.0000 XXYY=  -278.9064 XXZZ=  -243.9939 YYZZ=  -261.0722
 XXYZ=     0.0000 YYXZ=     0.0000 ZZXY=    22.5076
 N-N= 9.452610321440D+02 E-N=-8.392283635221D+03  KE= 2.742132533658D+03
 Symmetry A'   KE= 2.475775606905D+03
 Symmetry A"   KE= 2.663569267535D+02
 Merz-Kollman atomic radii used.
 Read replacement radii for each type of atom:
 Rad(20) =   1.188000000000D+00
 Atom Element Radius
    1     8    1.40
    2    15    1.80
    3     8    1.40
    4    20    1.19
    5     8    1.40
    6     8    1.40
    7    20    1.19
    8     8    1.40
    9    20    1.19

 **********************************************************************

            Electrostatic Properties Using The SCF Density

 **********************************************************************

       Atomic Center    1 is at  -1.309583 -2.499418  0.000000
       Atomic Center    2 is at  -1.305522 -0.960348  0.000000
       Atomic Center    3 is at  -2.613991 -0.139767  0.000000
       Atomic Center    4 is at  -1.931159  2.145232  0.000000
       Atomic Center    5 is at   0.000000  1.196711  0.000000
       Atomic Center    6 is at   0.309481  2.720561  0.000000
       Atomic Center    7 is at   2.200580  1.119179  0.000000
       Atomic Center    8 is at   2.517078 -1.023911  0.000000
       Atomic Center    9 is at   1.148527 -2.645820  0.000000
     805 points will be used for fitting atomic charges
 Fitting point charges to eletrostatic potential
 Charges from ESP fit, RMS=   0.00632 RRMS=   0.04205:
 Charge=   1.00000 Dipole=    -0.5857     3.7260     0.0000 Tot=     3.7717
              1
     1  O   -0.616255
     2  P    0.475406
     3  O   -0.587504
     4  Ca   1.711470
     5  O   -0.958041
     6  O   -0.812295
     7  Ca   1.757870
     8  O   -1.599921
     9  Ca   1.629270
 -----------------------------------------------------------------

              Electrostatic Properties (Atomic Units)

 -----------------------------------------------------------------
    Center     Electric         -------- Electric Field --------
               Potential          X             Y             Z
 -----------------------------------------------------------------
    1 Atom    -22.207207
    2 Atom    -53.944547
    3 Atom    -22.204228
    4 Atom    -80.008607
    5 Atom    -22.237610
    6 Atom    -22.240516
    7 Atom    -80.085067
    8 Atom    -22.342459
    9 Atom    -80.043184
 -----------------------------------------------------------------
 1\1\GINC-N059\SP\RB3LYP\6-31+G(d,p)\Ca3O5P1(1+)\TIMN\12-Jun-2015\0\\# 
 b3lyp/6-31+G(d,p) int=ultrafine pop=(ReadRadii,MK)\\mol_17.23.44.pdbc_
 plusQ.z58245.zip.xyz\\1,1\O,0,-1.30958,-2.49942,0.\P,0,-1.30552,-0.960
 35,0.\O,0,-2.61399,-0.13977,0.\Ca,0,-1.93116,2.14523,0.\O,0,0.,1.19671
 ,0.\O,0,0.30948,2.72056,0.\Ca,0,2.20058,1.11918,0.\O,0,2.51708,-1.0239
 1,0.\Ca,0,1.14853,-2.64582,0.\\Version=EM64T-G03RevE.01\State=1-A'\HF=
 -2750.1335724\RMSD=6.526e-05\Thermal=0.\Dipole=-0.3017237,1.4079763,0.
 \PG=CS [SG(Ca3O5P1)]\\@


 THE CHYMISTS ARE A STRANGE CLASS OF MORTALS IMPELLED
 BY AN ALMOST INSANE IMPULSE TO SEEK THEIR PLEASURE
 AMONG SMOKE AND VAPOR, SOOT AND FLAME, POISONS AND
 POVERTY; YET AMONG ALL THESE EVILS I SEEM TO LIVE
 SO SWEETLY, THAT I MAY DIE IF I WOULD CHANGE PLACES
 WITH THE PERSIAN KING.
   --  JOHANN JOACHIM BECHER, 1635-1682
 ACTA LABORATORII CHYMICA MONACENSIS, 1669
 Job cpu time:  0 days  0 hours  1 minutes 58.7 seconds.
 File lengths (MBytes):  RWF=     36 Int=      0 D2E=      0 Chk=     11 Scr=      1
 Normal termination of Gaussian 03 at Fri Jun 12 17:53:43 2015.
