 Entering Gaussian System, Link 0=/home/timn/tmp/g03.e01/g03
 Input=mol_16.4.21.pdb_plusQc.out.z51572.zip.xyz.gjf
 Output=mol_16.4.21.pdb_plusQc.out.z51572.zip.xyz.out
 Initial command:
 /home/timn/tmp/g03.e01/l1.exe /home/timn/tmp/g03.e01/Gau-17632.inp -scrdir=/home/timn/tmp/g03.e01/
 Default is to use a total of   2 processors:
                                2 via shared-memory
                                1 via Linda
 Entering Link 1 = /home/timn/tmp/g03.e01/l1.exe PID=     17635.
  
 Copyright (c) 1988,1990,1992,1993,1995,1998,2003,2004,2007, Gaussian, Inc.
                  All Rights Reserved.
  
 This is the Gaussian(R) 03 program.  It is based on the
 the Gaussian(R) 98 system (copyright 1998, Gaussian, Inc.),
 the Gaussian(R) 94 system (copyright 1995, Gaussian, Inc.),
 the Gaussian 92(TM) system (copyright 1992, Gaussian, Inc.),
 the Gaussian 90(TM) system (copyright 1990, Gaussian, Inc.),
 the Gaussian 88(TM) system (copyright 1988, Gaussian, Inc.),
 the Gaussian 86(TM) system (copyright 1986, Carnegie Mellon
 University), and the Gaussian 82(TM) system (copyright 1983,
 Carnegie Mellon University). Gaussian is a federally registered
 trademark of Gaussian, Inc.
  
 This software contains proprietary and confidential information,
 including trade secrets, belonging to Gaussian, Inc.
  
 This software is provided under written license and may be
 used, copied, transmitted, or stored only in accord with that
 written license.
  
 The following legend is applicable only to US Government
 contracts under FAR:
  
                    RESTRICTED RIGHTS LEGEND
  
 Use, reproduction and disclosure by the US Government is
 subject to restrictions as set forth in subparagraphs (a)
 and (c) of the Commercial Computer Software - Restricted
 Rights clause in FAR 52.227-19.
  
 Gaussian, Inc.
 340 Quinnipiac St., Bldg. 40, Wallingford CT 06492
  
  
 ---------------------------------------------------------------
 Warning -- This program may not be used in any manner that
 competes with the business of Gaussian, Inc. or will provide
 assistance to any competitor of Gaussian, Inc.  The licensee
 of this program is prohibited from giving any competitor of
 Gaussian, Inc. access to this program.  By using this program,
 the user acknowledges that Gaussian, Inc. is engaged in the
 business of creating and licensing software in the field of
 computational chemistry and represents and warrants to the
 licensee that it is not a competitor of Gaussian, Inc. and that
 it will not use this program in any manner prohibited above.
 ---------------------------------------------------------------
  

 Cite this work as:
 Gaussian 03, Revision E.01,
 M. J. Frisch, G. W. Trucks, H. B. Schlegel, G. E. Scuseria, 
 M. A. Robb, J. R. Cheeseman, J. A. Montgomery, Jr., T. Vreven, 
 K. N. Kudin, J. C. Burant, J. M. Millam, S. S. Iyengar, J. Tomasi, 
 V. Barone, B. Mennucci, M. Cossi, G. Scalmani, N. Rega, 
 G. A. Petersson, H. Nakatsuji, M. Hada, M. Ehara, K. Toyota, 
 R. Fukuda, J. Hasegawa, M. Ishida, T. Nakajima, Y. Honda, O. Kitao, 
 H. Nakai, M. Klene, X. Li, J. E. Knox, H. P. Hratchian, J. B. Cross, 
 V. Bakken, C. Adamo, J. Jaramillo, R. Gomperts, R. E. Stratmann, 
 O. Yazyev, A. J. Austin, R. Cammi, C. Pomelli, J. W. Ochterski, 
 P. Y. Ayala, K. Morokuma, G. A. Voth, P. Salvador, J. J. Dannenberg, 
 V. G. Zakrzewski, S. Dapprich, A. D. Daniels, M. C. Strain, 
 O. Farkas, D. K. Malick, A. D. Rabuck, K. Raghavachari, 
 J. B. Foresman, J. V. Ortiz, Q. Cui, A. G. Baboul, S. Clifford, 
 J. Cioslowski, B. B. Stefanov, G. Liu, A. Liashenko, P. Piskorz, 
 I. Komaromi, R. L. Martin, D. J. Fox, T. Keith, M. A. Al-Laham, 
 C. Y. Peng, A. Nanayakkara, M. Challacombe, P. M. W. Gill, 
 B. Johnson, W. Chen, M. W. Wong, C. Gonzalez, and J. A. Pople, 
 Gaussian, Inc., Wallingford CT, 2004.
 
 ******************************************
 Gaussian 03:  EM64T-G03RevE.01 11-Sep-2007
                12-Jun-2015 
 ******************************************
 %nproc=2
 Will use up to    2 processors via shared memory.
 Default route:  MP2=Direct MaxDisk=2000MB
 ----------------------------------------------------
 # b3lyp/6-31+G(d,p) int=ultrafine pop=(ReadRadii,MK)
 ----------------------------------------------------

 Warning!  SCF SP cutoffs with diffuse functions may be unreliable.
 Consider SCF=Tight

 1/38=1/1;
 2/17=6,18=5,40=1/2;
 3/5=1,6=6,7=111,11=2,16=1,25=1,30=1,74=-5,75=5/1,2,3;
 4//1;
 5/5=2,32=1,38=5/2;
 6/7=2,8=2,9=2,10=2,15=8,20=101,28=1/1,2;
 99/5=1,9=1/99;
 -----------------------------------------
 mol_16.4.21.pdb_plusQc.out.z51572.zip.xyz
 -----------------------------------------
 Symbolic Z-matrix:
 Charge =  1 Multiplicity = 1
 O                    -1.44391   1.27214   0.00073 
 P                    -2.31996  -0.0025    0.00057 
 Ca                    0.75945   1.85881  -0.00062 
 O                    -1.44071  -1.27477  -0.00214 
 Ca                    0.76368  -1.85733   0.00023 
 O                     1.71404   0.00164  -0.78553 
 O                     1.71267   0.002     0.78684 
 
                          Input orientation:                          
 ---------------------------------------------------------------------
 Center     Atomic     Atomic              Coordinates (Angstroms)
 Number     Number      Type              X           Y           Z
 ---------------------------------------------------------------------
    1          8             0       -1.443910    1.272140    0.000730
    2         15             0       -2.319960   -0.002500    0.000570
    3         20             0        0.759450    1.858810   -0.000620
    4          8             0       -1.440710   -1.274770   -0.002140
    5         20             0        0.763680   -1.857330    0.000230
    6          8             0        1.714040    0.001640   -0.785530
    7          8             0        1.712670    0.002000    0.786840
 ---------------------------------------------------------------------
                    Distance matrix (angstroms):
                    1          2          3          4          5
     1  O    0.000000
     2  P    1.546664   0.000000
     3  Ca   2.280127   3.598228   0.000000
     4  O    2.546914   1.546531   3.828842   0.000000
     5  Ca   3.829757   3.598504   3.716143   2.280070   0.000000
     6  O    3.493569   4.109882   2.230786   3.492187   2.230778
     7  O    3.492166   4.108570   2.230799   3.492340   2.230795
                    6          7
     6  O    0.000000
     7  O    1.572371   0.000000
 Stoichiometry    Ca2O4P(1+)
 Framework group  C1[X(Ca2O4P)]
 Deg. of freedom    15
 Full point group                 C1
 Largest Abelian subgroup         C1      NOp   1
 Largest concise Abelian subgroup C1      NOp   1
                         Standard orientation:                         
 ---------------------------------------------------------------------
 Center     Atomic     Atomic              Coordinates (Angstroms)
 Number     Number      Type              X           Y           Z
 ---------------------------------------------------------------------
    1          8             0       -1.443910    1.272137    0.000731
    2         15             0       -2.319959   -0.002504    0.000571
    3         20             0        0.759450    1.858809   -0.000619
    4          8             0       -1.440708   -1.274773   -0.002139
    5         20             0        0.763682   -1.857331    0.000231
    6          8             0        1.714041    0.001639   -0.785529
    7          8             0        1.712671    0.001999    0.786841
 ---------------------------------------------------------------------
 Rotational constants (GHZ):      1.4539676      1.2850987      0.7206299
 Standard basis: 6-31+G(d,p) (6D, 7F)
 There are   153 symmetry adapted basis functions of A   symmetry.
 Integral buffers will be    131072 words long.
 Raffenetti 2 integral format.
 Two-electron integral symmetry is turned on.
   153 basis functions,   344 primitive gaussians,   153 cartesian basis functions
    43 alpha electrons       43 beta electrons
       nuclear repulsion energy       602.1508503779 Hartrees.
 NAtoms=    7 NActive=    7 NUniq=    7 SFac= 7.50D-01 NAtFMM=   80 NAOKFM=F Big=F
 One-electron integrals computed using PRISM.
 NBasis=   153 RedAO= T  NBF=   153
 NBsUse=   153 1.00D-06 NBFU=   153
 Harris functional with IExCor=  402 diagonalized for initial guess.
 ExpMin= 7.10D-03 ExpMax= 3.53D+04 ExpMxC= 5.30D+03 IAcc=3 IRadAn=         5 AccDes= 0.00D+00
 HarFok:  IExCor= 402 AccDes= 0.00D+00 IRadAn=         5 IDoV=1
 ScaDFX=  1.000000  1.000000  1.000000  1.000000
 Initial guess orbital symmetries:
       Occupied  (A) (A) (A) (A) (A) (A) (A) (A) (A) (A) (A) (A)
                 (A) (A) (A) (A) (A) (A) (A) (A) (A) (A) (A) (A)
                 (A) (A) (A) (A) (A) (A) (A) (A) (A) (A) (A) (A)
                 (A) (A) (A) (A) (A) (A) (A)
       Virtual   (A) (A) (A) (A) (A) (A) (A) (A) (A) (A) (A) (A)
                 (A) (A) (A) (A) (A) (A) (A) (A) (A) (A) (A) (A)
                 (A) (A) (A) (A) (A) (A) (A) (A) (A) (A) (A) (A)
                 (A) (A) (A) (A) (A) (A) (A) (A) (A) (A) (A) (A)
                 (A) (A) (A) (A) (A) (A) (A) (A) (A) (A) (A) (A)
                 (A) (A) (A) (A) (A) (A) (A) (A) (A) (A) (A) (A)
                 (A) (A) (A) (A) (A) (A) (A) (A) (A) (A) (A) (A)
                 (A) (A) (A) (A) (A) (A) (A) (A) (A) (A) (A) (A)
                 (A) (A) (A) (A) (A) (A) (A) (A) (A) (A) (A) (A)
                 (A) (A)
 The electronic state of the initial guess is 1-A.
 Requested convergence on RMS density matrix=1.00D-04 within 128 cycles.
 Requested convergence on MAX density matrix=1.00D-02.
 Requested convergence on             energy=1.00D-02.
 No special actions if energy rises.
 SCF Done:  E(RB+HF-LYP) =  -1997.33372457     A.U. after    6 cycles
             Convg  =    0.4406D-04             -V/T =  2.0031
             S**2   =   0.0000

 **********************************************************************

            Population analysis using the SCF density.

 **********************************************************************

 Orbital symmetries:
       Occupied  (A) (A) (A) (A) (A) (A) (A) (A) (A) (A) (A) (A)
                 (A) (A) (A) (A) (A) (A) (A) (A) (A) (A) (A) (A)
                 (A) (A) (A) (A) (A) (A) (A) (A) (A) (A) (A) (A)
                 (A) (A) (A) (A) (A) (A) (A)
       Virtual   (A) (A) (A) (A) (A) (A) (A) (A) (A) (A) (A) (A)
                 (A) (A) (A) (A) (A) (A) (A) (A) (A) (A) (A) (A)
                 (A) (A) (A) (A) (A) (A) (A) (A) (A) (A) (A) (A)
                 (A) (A) (A) (A) (A) (A) (A) (A) (A) (A) (A) (A)
                 (A) (A) (A) (A) (A) (A) (A) (A) (A) (A) (A) (A)
                 (A) (A) (A) (A) (A) (A) (A) (A) (A) (A) (A) (A)
                 (A) (A) (A) (A) (A) (A) (A) (A) (A) (A) (A) (A)
                 (A) (A) (A) (A) (A) (A) (A) (A) (A) (A) (A) (A)
                 (A) (A) (A) (A) (A) (A) (A) (A) (A) (A) (A) (A)
                 (A) (A)
 The electronic state is 1-A.
 Alpha  occ. eigenvalues -- -145.53245-145.53243 -77.30163 -19.27956 -19.27949
 Alpha  occ. eigenvalues --  -19.25592 -19.25584 -15.60092 -15.60091 -12.73307
 Alpha  occ. eigenvalues --  -12.73305 -12.73289 -12.73287 -12.73207 -12.73204
 Alpha  occ. eigenvalues --   -6.75645  -4.92084  -4.91869  -4.91425  -1.97235
 Alpha  occ. eigenvalues --   -1.97208  -1.25764  -1.24805  -1.24791  -1.24724
 Alpha  occ. eigenvalues --   -1.24724  -1.24301  -1.13924  -1.08554  -1.08251
 Alpha  occ. eigenvalues --   -0.89521  -0.67706  -0.57282  -0.52823  -0.52601
 Alpha  occ. eigenvalues --   -0.48994  -0.47945  -0.46121  -0.45762  -0.43900
 Alpha  occ. eigenvalues --   -0.40702  -0.37191  -0.34166
 Alpha virt. eigenvalues --   -0.20456  -0.19854  -0.19630  -0.14480  -0.11367
 Alpha virt. eigenvalues --   -0.11280  -0.10319  -0.09666  -0.09043  -0.07375
 Alpha virt. eigenvalues --   -0.07215  -0.06432  -0.05962  -0.05215  -0.04858
 Alpha virt. eigenvalues --   -0.04431  -0.04389  -0.04083  -0.03999  -0.03873
 Alpha virt. eigenvalues --   -0.03337  -0.02378   0.00222   0.01111   0.02012
 Alpha virt. eigenvalues --    0.02950   0.03325   0.03645   0.04211   0.05048
 Alpha virt. eigenvalues --    0.05146   0.05191   0.06782   0.07029   0.07278
 Alpha virt. eigenvalues --    0.07477   0.08123   0.08217   0.12232   0.13582
 Alpha virt. eigenvalues --    0.14152   0.14769   0.16275   0.16814   0.16923
 Alpha virt. eigenvalues --    0.18690   0.20334   0.21716   0.24408   0.26749
 Alpha virt. eigenvalues --    0.28311   0.29468   0.31798   0.32147   0.32489
 Alpha virt. eigenvalues --    0.36022   0.36751   0.40441   0.43969   0.45541
 Alpha virt. eigenvalues --    0.48013   0.56598   0.57821   0.60215   0.65644
 Alpha virt. eigenvalues --    0.71357   0.87011   0.90193   0.94375   1.03573
 Alpha virt. eigenvalues --    1.05864   1.07984   1.08399   1.12008   1.12335
 Alpha virt. eigenvalues --    1.14815   1.15162   1.17891   1.20708   1.23937
 Alpha virt. eigenvalues --    1.28613   1.38347   1.43003   1.46781   1.50562
 Alpha virt. eigenvalues --    1.50923   1.58072   1.66233   1.68015   1.70617
 Alpha virt. eigenvalues --    1.71273   1.75754   1.80028   1.81213   1.82382
 Alpha virt. eigenvalues --    1.84419   1.85978   1.86056   1.92957   2.09466
 Alpha virt. eigenvalues --    2.16198   2.16965   2.53537   2.67514   3.00301
 Alpha virt. eigenvalues --    3.38474   3.83793   3.90577   3.97507   4.05862
          Condensed to atoms (all electrons):
              1          2          3          4          5          6
     1  O    8.815214  -0.094198   0.067457  -0.085955   0.002349   0.002526
     2  P   -0.094198  14.566861  -0.019106  -0.094461  -0.019107  -0.004457
     3  Ca   0.067457  -0.019106  18.210077   0.002341  -0.016663   0.106072
     4  O   -0.085955  -0.094461   0.002341   8.815238   0.067440   0.002570
     5  Ca   0.002349  -0.019107  -0.016663   0.067440  18.210075   0.105917
     6  O    0.002526  -0.004457   0.106072   0.002570   0.105917   8.515561
     7  O    0.002570  -0.004311   0.105842   0.002520   0.105995  -0.059738
              7
     1  O    0.002570
     2  P   -0.004311
     3  Ca   0.105842
     4  O    0.002520
     5  Ca   0.105995
     6  O   -0.059738
     7  O    8.515768
 Mulliken atomic charges:
              1
     1  O   -0.709963
     2  P    0.668779
     3  Ca   1.543979
     4  O   -0.709694
     5  Ca   1.543994
     6  O   -0.668451
     7  O   -0.668645
 Sum of Mulliken charges=   1.00000
 Atomic charges with hydrogens summed into heavy atoms:
              1
     1  O   -0.709963
     2  P    0.668779
     3  Ca   1.543979
     4  O   -0.709694
     5  Ca   1.543994
     6  O   -0.668451
     7  O   -0.668645
 Sum of Mulliken charges=   1.00000
 Electronic spatial extent (au):  <R**2>=  1378.2298
 Charge=     1.0000 electrons
 Dipole moment (field-independent basis, Debye):
    X=     3.1399    Y=    -0.0004    Z=    -0.0032  Tot=     3.1399
 Quadrupole moment (field-independent basis, Debye-Ang):
   XX=   -66.5033   YY=    -8.8874   ZZ=   -58.2529
   XY=    -0.0607   XZ=    -0.0102   YZ=    -0.0277
 Traceless Quadrupole moment (field-independent basis, Debye-Ang):
   XX=   -21.9554   YY=    35.6605   ZZ=   -13.7051
   XY=    -0.0607   XZ=    -0.0102   YZ=    -0.0277
 Octapole moment (field-independent basis, Debye-Ang**2):
  XXX=    -6.9330  YYY=     0.2002  ZZZ=    -0.0189  XYY=    70.8584
  XXY=    -0.1763  XXZ=    -0.0129  XZZ=    -1.4170  YZZ=    -0.0028
  YYZ=    -0.0057  XYZ=     0.0074
 Hexadecapole moment (field-independent basis, Debye-Ang**3):
 XXXX=  -942.8849 YYYY=  -329.5342 ZZZZ=  -103.9552 XXXY=    -0.2560
 XXXZ=     0.0463 YYYX=    -0.3228 YYYZ=    -0.1101 ZZZX=    -0.0228
 ZZZY=    -0.0412 XXYY=  -220.7231 XXZZ=  -174.4798 YYZZ=  -103.3761
 XXYZ=    -0.0472 YYXZ=    -0.0229 ZZXY=    -0.0631
 N-N= 6.021508503779D+02 E-N=-5.923736405758D+03  KE= 1.991110808604D+03
 Merz-Kollman atomic radii used.
 Read replacement radii for each type of atom:
 Rad(20) =   1.188000000000D+00
 Atom Element Radius
    1     8    1.40
    2    15    1.80
    3    20    1.19
    4     8    1.40
    5    20    1.19
    6     8    1.40
    7     8    1.40

 **********************************************************************

            Electrostatic Properties Using The SCF Density

 **********************************************************************

       Atomic Center    1 is at  -1.443910  1.272137  0.000731
       Atomic Center    2 is at  -2.319959 -0.002504  0.000571
       Atomic Center    3 is at   0.759450  1.858809 -0.000619
       Atomic Center    4 is at  -1.440708 -1.274773 -0.002139
       Atomic Center    5 is at   0.763682 -1.857331  0.000231
       Atomic Center    6 is at   1.714041  0.001639 -0.785529
       Atomic Center    7 is at   1.712671  0.001999  0.786841
     712 points will be used for fitting atomic charges
 Fitting point charges to eletrostatic potential
 Charges from ESP fit, RMS=   0.00428 RRMS=   0.02804:
 Charge=   1.00000 Dipole=     2.9935    -0.0005    -0.0015 Tot=     2.9935
              1
     1  O   -0.751876
     2  P    0.633921
     3  Ca   1.722142
     4  O   -0.751739
     5  Ca   1.722143
     6  O   -0.787273
     7  O   -0.787319
 -----------------------------------------------------------------

              Electrostatic Properties (Atomic Units)

 -----------------------------------------------------------------
    Center     Electric         -------- Electric Field --------
               Potential          X             Y             Z
 -----------------------------------------------------------------
    1 Atom    -22.184271
    2 Atom    -53.916345
    3 Atom    -80.007981
    4 Atom    -22.183980
    5 Atom    -80.007950
    6 Atom    -22.213943
    7 Atom    -22.214165
 -----------------------------------------------------------------
 1\1\GINC-N025\SP\RB3LYP\6-31+G(d,p)\Ca2O4P1(1+)\TIMN\12-Jun-2015\0\\# 
 b3lyp/6-31+G(d,p) int=ultrafine pop=(ReadRadii,MK)\\mol_16.4.21.pdb_pl
 usQc.out.z51572.zip.xyz\\1,1\O,0,-1.44391,1.27214,0.00073\P,0,-2.31996
 ,-0.0025,0.00057\Ca,0,0.75945,1.85881,-0.00062\O,0,-1.44071,-1.27477,-
 0.00214\Ca,0,0.76368,-1.85733,0.00023\O,0,1.71404,0.00164,-0.78553\O,0
 ,1.71267,0.002,0.78684\\Version=EM64T-G03RevE.01\State=1-A\HF=-1997.33
 37246\RMSD=4.406e-05\Thermal=0.\Dipole=1.2353482,-0.0001441,-0.0012452
 \PG=C01 [X(Ca2O4P1)]\\@


 NOTHING MAKES A PERSON MORE PRODUCTIVE THAN THE LAST MINUTE.
 Job cpu time:  0 days  0 hours  0 minutes 44.2 seconds.
 File lengths (MBytes):  RWF=     28 Int=      0 D2E=      0 Chk=     10 Scr=      1
 Normal termination of Gaussian 03 at Fri Jun 12 17:48:10 2015.
