 Entering Gaussian System, Link 0=/home/timn/tmp/g03.e01/g03
 Input=mol_17.26.23.pdbc_plusQ.z58382.zip.xyz.gjf
 Output=mol_17.26.23.pdbc_plusQ.z58382.zip.xyz.out
 Initial command:
 /home/timn/tmp/g03.e01/l1.exe /home/timn/tmp/g03.e01/Gau-13217.inp -scrdir=/home/timn/tmp/g03.e01/
 Default is to use a total of   2 processors:
                                2 via shared-memory
                                1 via Linda
 Entering Link 1 = /home/timn/tmp/g03.e01/l1.exe PID=     13218.
  
 Copyright (c) 1988,1990,1992,1993,1995,1998,2003,2004,2007, Gaussian, Inc.
                  All Rights Reserved.
  
 This is the Gaussian(R) 03 program.  It is based on the
 the Gaussian(R) 98 system (copyright 1998, Gaussian, Inc.),
 the Gaussian(R) 94 system (copyright 1995, Gaussian, Inc.),
 the Gaussian 92(TM) system (copyright 1992, Gaussian, Inc.),
 the Gaussian 90(TM) system (copyright 1990, Gaussian, Inc.),
 the Gaussian 88(TM) system (copyright 1988, Gaussian, Inc.),
 the Gaussian 86(TM) system (copyright 1986, Carnegie Mellon
 University), and the Gaussian 82(TM) system (copyright 1983,
 Carnegie Mellon University). Gaussian is a federally registered
 trademark of Gaussian, Inc.
  
 This software contains proprietary and confidential information,
 including trade secrets, belonging to Gaussian, Inc.
  
 This software is provided under written license and may be
 used, copied, transmitted, or stored only in accord with that
 written license.
  
 The following legend is applicable only to US Government
 contracts under FAR:
  
                    RESTRICTED RIGHTS LEGEND
  
 Use, reproduction and disclosure by the US Government is
 subject to restrictions as set forth in subparagraphs (a)
 and (c) of the Commercial Computer Software - Restricted
 Rights clause in FAR 52.227-19.
  
 Gaussian, Inc.
 340 Quinnipiac St., Bldg. 40, Wallingford CT 06492
  
  
 ---------------------------------------------------------------
 Warning -- This program may not be used in any manner that
 competes with the business of Gaussian, Inc. or will provide
 assistance to any competitor of Gaussian, Inc.  The licensee
 of this program is prohibited from giving any competitor of
 Gaussian, Inc. access to this program.  By using this program,
 the user acknowledges that Gaussian, Inc. is engaged in the
 business of creating and licensing software in the field of
 computational chemistry and represents and warrants to the
 licensee that it is not a competitor of Gaussian, Inc. and that
 it will not use this program in any manner prohibited above.
 ---------------------------------------------------------------
  

 Cite this work as:
 Gaussian 03, Revision E.01,
 M. J. Frisch, G. W. Trucks, H. B. Schlegel, G. E. Scuseria, 
 M. A. Robb, J. R. Cheeseman, J. A. Montgomery, Jr., T. Vreven, 
 K. N. Kudin, J. C. Burant, J. M. Millam, S. S. Iyengar, J. Tomasi, 
 V. Barone, B. Mennucci, M. Cossi, G. Scalmani, N. Rega, 
 G. A. Petersson, H. Nakatsuji, M. Hada, M. Ehara, K. Toyota, 
 R. Fukuda, J. Hasegawa, M. Ishida, T. Nakajima, Y. Honda, O. Kitao, 
 H. Nakai, M. Klene, X. Li, J. E. Knox, H. P. Hratchian, J. B. Cross, 
 V. Bakken, C. Adamo, J. Jaramillo, R. Gomperts, R. E. Stratmann, 
 O. Yazyev, A. J. Austin, R. Cammi, C. Pomelli, J. W. Ochterski, 
 P. Y. Ayala, K. Morokuma, G. A. Voth, P. Salvador, J. J. Dannenberg, 
 V. G. Zakrzewski, S. Dapprich, A. D. Daniels, M. C. Strain, 
 O. Farkas, D. K. Malick, A. D. Rabuck, K. Raghavachari, 
 J. B. Foresman, J. V. Ortiz, Q. Cui, A. G. Baboul, S. Clifford, 
 J. Cioslowski, B. B. Stefanov, G. Liu, A. Liashenko, P. Piskorz, 
 I. Komaromi, R. L. Martin, D. J. Fox, T. Keith, M. A. Al-Laham, 
 C. Y. Peng, A. Nanayakkara, M. Challacombe, P. M. W. Gill, 
 B. Johnson, W. Chen, M. W. Wong, C. Gonzalez, and J. A. Pople, 
 Gaussian, Inc., Wallingford CT, 2004.
 
 ******************************************
 Gaussian 03:  EM64T-G03RevE.01 11-Sep-2007
                12-Jun-2015 
 ******************************************
 %nproc=2
 Will use up to    2 processors via shared memory.
 Default route:  MP2=Direct MaxDisk=2000MB
 ----------------------------------------------------
 # b3lyp/6-31+G(d,p) int=ultrafine pop=(ReadRadii,MK)
 ----------------------------------------------------

 Warning!  SCF SP cutoffs with diffuse functions may be unreliable.
 Consider SCF=Tight

 1/38=1/1;
 2/17=6,18=5,40=1/2;
 3/5=1,6=6,7=111,11=2,16=1,25=1,30=1,74=-5,75=5/1,2,3;
 4//1;
 5/5=2,32=1,38=5/2;
 6/7=2,8=2,9=2,10=2,15=8,20=101,28=1/1,2;
 99/5=1,9=1/99;
 --------------------------------------
 mol_17.26.23.pdbc_plusQ.z58382.zip.xyz
 --------------------------------------
 Symbolic Z-matrix:
 Charge =  1 Multiplicity = 1
 O                     1.47541   0.82276  -0.06962 
 O                    -0.90494   1.32441  -0.22667 
 O                    -2.14313   2.09967   0.02916 
 Ca                   -2.91455  -0.09166   0.00325 
 O                    -1.57747  -1.74009  -0.70253 
 O                    -1.49079  -1.58479   0.85587 
 Ca                    0.56804  -1.71425  -0.0301 
 P                     0.51138   2.02803   0.08007 
 Ca                    3.81935  -0.0839    0.0123 
 
                          Input orientation:                          
 ---------------------------------------------------------------------
 Center     Atomic     Atomic              Coordinates (Angstroms)
 Number     Number      Type              X           Y           Z
 ---------------------------------------------------------------------
    1          8             0        1.475410    0.822760   -0.069620
    2          8             0       -0.904940    1.324410   -0.226670
    3          8             0       -2.143130    2.099670    0.029160
    4         20             0       -2.914550   -0.091660    0.003250
    5          8             0       -1.577470   -1.740090   -0.702530
    6          8             0       -1.490790   -1.584790    0.855870
    7         20             0        0.568040   -1.714250   -0.030100
    8         15             0        0.511380    2.028030    0.080070
    9         20             0        3.819350   -0.083900    0.012300
 ---------------------------------------------------------------------
                    Distance matrix (angstroms):
                    1          2          3          4          5
     1  O    0.000000
     2  O    2.437700   0.000000
     3  O    3.838501   1.483102   0.000000
     4  Ca   4.484777   2.469139   2.323292   0.000000
     5  O    4.035945   3.173311   3.949569   2.236790   0.000000
     6  O    3.930798   3.158886   3.832002   2.232373   1.568516
     7  Ca   2.694680   3.382568   4.679737   3.842180   2.248565
     8  P    1.550625   1.610942   2.655965   4.029390   4.378868
     9  Ca   2.514517   4.935520   6.349758   6.733911   5.690309
                    6          7          8          9
     6  O    0.000000
     7  Ca   2.245102   0.000000
     8  P    4.202739   3.744330   0.000000
     9  Ca   5.582282   3.637424   3.925240   0.000000
 Stoichiometry    Ca3O5P(1+)
 Framework group  C1[X(Ca3O5P)]
 Deg. of freedom    21
 Full point group                 C1
 Largest Abelian subgroup         C1      NOp   1
 Largest concise Abelian subgroup C1      NOp   1
                         Standard orientation:                         
 ---------------------------------------------------------------------
 Center     Atomic     Atomic              Coordinates (Angstroms)
 Number     Number      Type              X           Y           Z
 ---------------------------------------------------------------------
    1          8             0        1.475408    0.822762   -0.069618
    2          8             0       -0.904942    1.324410   -0.226668
    3          8             0       -2.143133    2.099669    0.029162
    4         20             0       -2.914551   -0.091662    0.003252
    5          8             0       -1.577470   -1.740091   -0.702528
    6          8             0       -1.490790   -1.584791    0.855872
    7         20             0        0.568040   -1.714249   -0.030098
    8         15             0        0.511377    2.028031    0.080072
    9         20             0        3.819349   -0.083896    0.012302
 ---------------------------------------------------------------------
 Rotational constants (GHZ):      1.0887258      0.4353302      0.3191385
 Standard basis: 6-31+G(d,p) (6D, 7F)
 There are   199 symmetry adapted basis functions of A   symmetry.
 Integral buffers will be    131072 words long.
 Raffenetti 2 integral format.
 Two-electron integral symmetry is turned on.
   199 basis functions,   456 primitive gaussians,   199 cartesian basis functions
    57 alpha electrons       57 beta electrons
       nuclear repulsion energy       933.3188892173 Hartrees.
 NAtoms=    9 NActive=    9 NUniq=    9 SFac= 7.50D-01 NAtFMM=   80 NAOKFM=F Big=F
 One-electron integrals computed using PRISM.
 NBasis=   199 RedAO= T  NBF=   199
 NBsUse=   199 1.00D-06 NBFU=   199
 Harris functional with IExCor=  402 diagonalized for initial guess.
 ExpMin= 7.10D-03 ExpMax= 3.53D+04 ExpMxC= 5.30D+03 IAcc=3 IRadAn=         5 AccDes= 0.00D+00
 HarFok:  IExCor= 402 AccDes= 0.00D+00 IRadAn=         5 IDoV=1
 ScaDFX=  1.000000  1.000000  1.000000  1.000000
 Initial guess orbital symmetries:
       Occupied  (A) (A) (A) (A) (A) (A) (A) (A) (A) (A) (A) (A)
                 (A) (A) (A) (A) (A) (A) (A) (A) (A) (A) (A) (A)
                 (A) (A) (A) (A) (A) (A) (A) (A) (A) (A) (A) (A)
                 (A) (A) (A) (A) (A) (A) (A) (A) (A) (A) (A) (A)
                 (A) (A) (A) (A) (A) (A) (A) (A) (A)
       Virtual   (A) (A) (A) (A) (A) (A) (A) (A) (A) (A) (A) (A)
                 (A) (A) (A) (A) (A) (A) (A) (A) (A) (A) (A) (A)
                 (A) (A) (A) (A) (A) (A) (A) (A) (A) (A) (A) (A)
                 (A) (A) (A) (A) (A) (A) (A) (A) (A) (A) (A) (A)
                 (A) (A) (A) (A) (A) (A) (A) (A) (A) (A) (A) (A)
                 (A) (A) (A) (A) (A) (A) (A) (A) (A) (A) (A) (A)
                 (A) (A) (A) (A) (A) (A) (A) (A) (A) (A) (A) (A)
                 (A) (A) (A) (A) (A) (A) (A) (A) (A) (A) (A) (A)
                 (A) (A) (A) (A) (A) (A) (A) (A) (A) (A) (A) (A)
                 (A) (A) (A) (A) (A) (A) (A) (A) (A) (A) (A) (A)
                 (A) (A) (A) (A) (A) (A) (A) (A) (A) (A) (A) (A)
                 (A) (A) (A) (A) (A) (A) (A) (A) (A) (A)
 The electronic state of the initial guess is 1-A.
 Requested convergence on RMS density matrix=1.00D-04 within 128 cycles.
 Requested convergence on MAX density matrix=1.00D-02.
 Requested convergence on             energy=1.00D-02.
 No special actions if energy rises.
 EnCoef did     7 forward-backward iterations
 EnCoef did   100 forward-backward iterations
 EnCoef did   100 forward-backward iterations
 EnCoef did   100 forward-backward iterations
 EnCoef did     2 forward-backward iterations
 EnCoef did     2 forward-backward iterations
 SCF Done:  E(RB+HF-LYP) =  -2749.98680872     A.U. after   12 cycles
             Convg  =    0.8684D-04             -V/T =  2.0029
             S**2   =   0.0000

 **********************************************************************

            Population analysis using the SCF density.

 **********************************************************************

 Orbital symmetries:
       Occupied  (A) (A) (A) (A) (A) (A) (A) (A) (A) (A) (A) (A)
                 (A) (A) (A) (A) (A) (A) (A) (A) (A) (A) (A) (A)
                 (A) (A) (A) (A) (A) (A) (A) (A) (A) (A) (A) (A)
                 (A) (A) (A) (A) (A) (A) (A) (A) (A) (A) (A) (A)
                 (A) (A) (A) (A) (A) (A) (A) (A) (A)
       Virtual   (A) (A) (A) (A) (A) (A) (A) (A) (A) (A) (A) (A)
                 (A) (A) (A) (A) (A) (A) (A) (A) (A) (A) (A) (A)
                 (A) (A) (A) (A) (A) (A) (A) (A) (A) (A) (A) (A)
                 (A) (A) (A) (A) (A) (A) (A) (A) (A) (A) (A) (A)
                 (A) (A) (A) (A) (A) (A) (A) (A) (A) (A) (A) (A)
                 (A) (A) (A) (A) (A) (A) (A) (A) (A) (A) (A) (A)
                 (A) (A) (A) (A) (A) (A) (A) (A) (A) (A) (A) (A)
                 (A) (A) (A) (A) (A) (A) (A) (A) (A) (A) (A) (A)
                 (A) (A) (A) (A) (A) (A) (A) (A) (A) (A) (A) (A)
                 (A) (A) (A) (A) (A) (A) (A) (A) (A) (A) (A) (A)
                 (A) (A) (A) (A) (A) (A) (A) (A) (A) (A) (A) (A)
                 (A) (A) (A) (A) (A) (A) (A) (A) (A) (A)
 The electronic state is 1-A.
 Alpha  occ. eigenvalues -- -145.52777-145.50551-145.49997 -77.33915 -19.37530
 Alpha  occ. eigenvalues --  -19.31997 -19.28829 -19.23970 -19.23822 -15.59751
 Alpha  occ. eigenvalues --  -15.57417 -15.56912 -12.72915 -12.72905 -12.72870
 Alpha  occ. eigenvalues --  -12.70647 -12.70632 -12.70494 -12.70143 -12.70119
 Alpha  occ. eigenvalues --  -12.69981  -6.79536  -4.95847  -4.95792  -4.95345
 Alpha  occ. eigenvalues --   -1.96764  -1.94625  -1.94111  -1.24808  -1.24100
 Alpha  occ. eigenvalues --   -1.24065  -1.23947  -1.22883  -1.22222  -1.21825
 Alpha  occ. eigenvalues --   -1.21677  -1.21356  -1.20915  -1.14823  -1.06507
 Alpha  occ. eigenvalues --   -0.98144  -0.87650  -0.72313  -0.61958  -0.59775
 Alpha  occ. eigenvalues --   -0.58013  -0.51659  -0.51354  -0.47300  -0.46598
 Alpha  occ. eigenvalues --   -0.46291  -0.44334  -0.39986  -0.38011  -0.35418
 Alpha  occ. eigenvalues --   -0.32232  -0.27564
 Alpha virt. eigenvalues --   -0.24121  -0.18911  -0.17872  -0.15378  -0.14918
 Alpha virt. eigenvalues --   -0.13260  -0.12435  -0.11709  -0.10835  -0.09492
 Alpha virt. eigenvalues --   -0.08801  -0.08085  -0.07474  -0.07177  -0.06730
 Alpha virt. eigenvalues --   -0.06414  -0.05843  -0.05575  -0.05281  -0.05047
 Alpha virt. eigenvalues --   -0.04729  -0.04154  -0.04052  -0.03987  -0.03746
 Alpha virt. eigenvalues --   -0.03483  -0.03340  -0.03094  -0.02888  -0.02139
 Alpha virt. eigenvalues --   -0.01135   0.00820   0.01486   0.02142   0.03058
 Alpha virt. eigenvalues --    0.03223   0.03597   0.04307   0.04701   0.04820
 Alpha virt. eigenvalues --    0.05044   0.05805   0.06153   0.06516   0.06880
 Alpha virt. eigenvalues --    0.07104   0.07442   0.07637   0.08564   0.09552
 Alpha virt. eigenvalues --    0.10184   0.10334   0.11661   0.12587   0.13752
 Alpha virt. eigenvalues --    0.13866   0.14619   0.15650   0.16328   0.17143
 Alpha virt. eigenvalues --    0.18022   0.19428   0.20163   0.21090   0.22257
 Alpha virt. eigenvalues --    0.24324   0.25610   0.27328   0.27938   0.28783
 Alpha virt. eigenvalues --    0.30001   0.31463   0.33292   0.34842   0.35427
 Alpha virt. eigenvalues --    0.37028   0.37903   0.38877   0.41834   0.44110
 Alpha virt. eigenvalues --    0.44790   0.49783   0.50579   0.55780   0.58995
 Alpha virt. eigenvalues --    0.61240   0.68659   0.76202   0.84345   0.89682
 Alpha virt. eigenvalues --    0.92295   1.01958   1.04797   1.05543   1.10106
 Alpha virt. eigenvalues --    1.11143   1.11454   1.13803   1.14808   1.15900
 Alpha virt. eigenvalues --    1.17283   1.18070   1.20733   1.22077   1.27741
 Alpha virt. eigenvalues --    1.31353   1.37497   1.41846   1.43247   1.49548
 Alpha virt. eigenvalues --    1.51683   1.53399   1.55445   1.57188   1.62791
 Alpha virt. eigenvalues --    1.68210   1.70575   1.72822   1.77624   1.78524
 Alpha virt. eigenvalues --    1.80368   1.81964   1.84494   1.85494   1.85652
 Alpha virt. eigenvalues --    1.87229   1.88419   1.97907   2.18551   2.18885
 Alpha virt. eigenvalues --    2.19908   2.20598   2.42631   2.62251   3.01831
 Alpha virt. eigenvalues --    3.03258   3.39349   3.78581   3.87183   4.07122
 Alpha virt. eigenvalues --    4.12885   4.13571
          Condensed to atoms (all electrons):
              1          2          3          4          5          6
     1  O    9.113530   0.086393  -0.005065  -0.002035  -0.006459   0.007766
     2  O    0.086393   8.378598   0.001933   0.014242  -0.004445   0.008595
     3  O   -0.005065   0.001933   8.407228   0.108222   0.005779  -0.014425
     4  Ca  -0.002035   0.014242   0.108222  18.249106   0.102553   0.097576
     5  O   -0.006459  -0.004445   0.005779   0.102553   8.499327  -0.032194
     6  O    0.007766   0.008595  -0.014425   0.097576  -0.032194   8.494998
     7  Ca  -0.104590  -0.001572  -0.001376  -0.006829   0.104327   0.089007
     8  P   -0.239638  -0.149501  -0.009809  -0.031066  -0.007188   0.003803
     9  Ca  -0.228632   0.008150   0.000813   0.031886  -0.001376  -0.002486
              7          8          9
     1  O   -0.104590  -0.239638  -0.228632
     2  O   -0.001572  -0.149501   0.008150
     3  O   -0.001376  -0.009809   0.000813
     4  Ca  -0.006829  -0.031066   0.031886
     5  O    0.104327  -0.007188  -0.001376
     6  O    0.089007   0.003803  -0.002486
     7  Ca  18.476138   0.044248   0.294656
     8  P    0.044248  14.608158  -0.018017
     9  Ca   0.294656  -0.018017  19.486418
 Mulliken atomic charges:
              1
     1  O   -0.621270
     2  O   -0.342395
     3  O   -0.493301
     4  Ca   1.436345
     5  O   -0.660327
     6  O   -0.652641
     7  Ca   1.105991
     8  P    0.799010
     9  Ca   0.428588
 Sum of Mulliken charges=   1.00000
 Atomic charges with hydrogens summed into heavy atoms:
              1
     1  O   -0.621270
     2  O   -0.342395
     3  O   -0.493301
     4  Ca   1.436345
     5  O   -0.660327
     6  O   -0.652641
     7  Ca   1.105991
     8  P    0.799010
     9  Ca   0.428588
 Sum of Mulliken charges=   1.00000
 Electronic spatial extent (au):  <R**2>=  3001.3753
 Charge=     1.0000 electrons
 Dipole moment (field-independent basis, Debye):
    X=     1.5216    Y=     0.2639    Z=    -0.2912  Tot=     1.5716
 Quadrupole moment (field-independent basis, Debye-Ang):
   XX=   -16.2818   YY=   -88.6068   ZZ=   -86.5967
   XY=     2.5246   XZ=     0.2456   YZ=     1.0160
 Traceless Quadrupole moment (field-independent basis, Debye-Ang):
   XX=    47.5466   YY=   -24.7784   ZZ=   -22.7683
   XY=     2.5246   XZ=     0.2456   YZ=     1.0160
 Octapole moment (field-independent basis, Debye-Ang**2):
  XXX=  -102.5543  YYY=    -7.4838  ZZZ=    -2.4198  XYY=    23.6796
  XXY=    22.1886  XXZ=    -0.1909  XZZ=   -24.6627  YZZ=     8.7234
  YYZ=    -2.2258  XYZ=    -0.0109
 Hexadecapole moment (field-independent basis, Debye-Ang**3):
 XXXX= -1539.5616 YYYY= -1121.3730 ZZZZ=  -187.8990 XXXY=   143.6137
 XXXZ=    -1.9359 YYYX=    36.6372 YYYZ=    -4.3199 ZZZX=     1.2827
 ZZZY=     2.7558 XXYY=  -764.5735 XXZZ=  -499.1926 YYZZ=  -227.0504
 XXYZ=     1.9792 YYXZ=    -2.2403 ZZXY=     5.7478
 N-N= 9.333188892173D+02 E-N=-8.363848848190D+03  KE= 2.742142089549D+03
 Merz-Kollman atomic radii used.
 Read replacement radii for each type of atom:
 Rad(20) =   1.188000000000D+00
 Atom Element Radius
    1     8    1.40
    2     8    1.40
    3     8    1.40
    4    20    1.19
    5     8    1.40
    6     8    1.40
    7    20    1.19
    8    15    1.80
    9    20    1.19

 **********************************************************************

            Electrostatic Properties Using The SCF Density

 **********************************************************************

       Atomic Center    1 is at   1.475408  0.822762 -0.069618
       Atomic Center    2 is at  -0.904942  1.324410 -0.226668
       Atomic Center    3 is at  -2.143133  2.099669  0.029162
       Atomic Center    4 is at  -2.914551 -0.091662  0.003252
       Atomic Center    5 is at  -1.577470 -1.740091 -0.702528
       Atomic Center    6 is at  -1.490790 -1.584791  0.855872
       Atomic Center    7 is at   0.568040 -1.714249 -0.030098
       Atomic Center    8 is at   0.511377  2.028031  0.080072
       Atomic Center    9 is at   3.819349 -0.083896  0.012302
     859 points will be used for fitting atomic charges
 Fitting point charges to eletrostatic potential
 Charges from ESP fit, RMS=   0.02206 RRMS=   0.14775:
 Charge=   1.00000 Dipole=     4.6744    -1.8559    -0.1775 Tot=     5.0325
              1
     1  O   -0.458189
     2  O   -0.145737
     3  O   -0.595397
     4  Ca   1.571318
     5  O   -0.657377
     6  O   -0.665936
     7  Ca   0.926549
     8  P    0.498507
     9  Ca   0.526264
 -----------------------------------------------------------------

              Electrostatic Properties (Atomic Units)

 -----------------------------------------------------------------
    Center     Electric         -------- Electric Field --------
               Potential          X             Y             Z
 -----------------------------------------------------------------
    1 Atom    -22.143150
    2 Atom    -22.084140
    3 Atom    -22.184969
    4 Atom    -80.035314
    5 Atom    -22.242930
    6 Atom    -22.238864
    7 Atom    -80.041302
    8 Atom    -53.875012
    9 Atom    -80.020055
 -----------------------------------------------------------------
 1\1\GINC-N031\SP\RB3LYP\6-31+G(d,p)\Ca3O5P1(1+)\TIMN\12-Jun-2015\0\\# 
 b3lyp/6-31+G(d,p) int=ultrafine pop=(ReadRadii,MK)\\mol_17.26.23.pdbc_
 plusQ.z58382.zip.xyz\\1,1\O,0,1.47541,0.82276,-0.06962\O,0,-0.90494,1.
 32441,-0.22667\O,0,-2.14313,2.09967,0.02916\Ca,0,-2.91455,-0.09166,0.0
 0325\O,0,-1.57747,-1.74009,-0.70253\O,0,-1.49079,-1.58479,0.85587\Ca,0
 ,0.56804,-1.71425,-0.0301\P,0,0.51138,2.02803,0.08007\Ca,0,3.81935,-0.
 0839,0.0123\\Version=EM64T-G03RevE.01\State=1-A\HF=-2749.9868087\RMSD=
 8.684e-05\Thermal=0.\Dipole=0.5986556,0.1038201,-0.1145866\PG=C01 [X(C
 a3O5P1)]\\@


 You can't act like a skunk without someone's getting wind of it.
 -- Lorene Workman
 Job cpu time:  0 days  0 hours  2 minutes 50.9 seconds.
 File lengths (MBytes):  RWF=     36 Int=      0 D2E=      0 Chk=     11 Scr=      1
 Normal termination of Gaussian 03 at Fri Jun 12 18:00:55 2015.
