 Entering Gaussian System, Link 0=/home/timn/tmp/g03.e01/g03
 Input=mol_16.4.53.pdb_plusQ.out.z51604.zip.xyz.gjf
 Output=mol_16.4.53.pdb_plusQ.out.z51604.zip.xyz.out
 Initial command:
 /home/timn/tmp/g03.e01/l1.exe /home/timn/tmp/g03.e01/Gau-18638.inp -scrdir=/home/timn/tmp/g03.e01/
 Default is to use a total of   2 processors:
                                2 via shared-memory
                                1 via Linda
 Entering Link 1 = /home/timn/tmp/g03.e01/l1.exe PID=     18639.
  
 Copyright (c) 1988,1990,1992,1993,1995,1998,2003,2004,2007, Gaussian, Inc.
                  All Rights Reserved.
  
 This is the Gaussian(R) 03 program.  It is based on the
 the Gaussian(R) 98 system (copyright 1998, Gaussian, Inc.),
 the Gaussian(R) 94 system (copyright 1995, Gaussian, Inc.),
 the Gaussian 92(TM) system (copyright 1992, Gaussian, Inc.),
 the Gaussian 90(TM) system (copyright 1990, Gaussian, Inc.),
 the Gaussian 88(TM) system (copyright 1988, Gaussian, Inc.),
 the Gaussian 86(TM) system (copyright 1986, Carnegie Mellon
 University), and the Gaussian 82(TM) system (copyright 1983,
 Carnegie Mellon University). Gaussian is a federally registered
 trademark of Gaussian, Inc.
  
 This software contains proprietary and confidential information,
 including trade secrets, belonging to Gaussian, Inc.
  
 This software is provided under written license and may be
 used, copied, transmitted, or stored only in accord with that
 written license.
  
 The following legend is applicable only to US Government
 contracts under FAR:
  
                    RESTRICTED RIGHTS LEGEND
  
 Use, reproduction and disclosure by the US Government is
 subject to restrictions as set forth in subparagraphs (a)
 and (c) of the Commercial Computer Software - Restricted
 Rights clause in FAR 52.227-19.
  
 Gaussian, Inc.
 340 Quinnipiac St., Bldg. 40, Wallingford CT 06492
  
  
 ---------------------------------------------------------------
 Warning -- This program may not be used in any manner that
 competes with the business of Gaussian, Inc. or will provide
 assistance to any competitor of Gaussian, Inc.  The licensee
 of this program is prohibited from giving any competitor of
 Gaussian, Inc. access to this program.  By using this program,
 the user acknowledges that Gaussian, Inc. is engaged in the
 business of creating and licensing software in the field of
 computational chemistry and represents and warrants to the
 licensee that it is not a competitor of Gaussian, Inc. and that
 it will not use this program in any manner prohibited above.
 ---------------------------------------------------------------
  

 Cite this work as:
 Gaussian 03, Revision E.01,
 M. J. Frisch, G. W. Trucks, H. B. Schlegel, G. E. Scuseria, 
 M. A. Robb, J. R. Cheeseman, J. A. Montgomery, Jr., T. Vreven, 
 K. N. Kudin, J. C. Burant, J. M. Millam, S. S. Iyengar, J. Tomasi, 
 V. Barone, B. Mennucci, M. Cossi, G. Scalmani, N. Rega, 
 G. A. Petersson, H. Nakatsuji, M. Hada, M. Ehara, K. Toyota, 
 R. Fukuda, J. Hasegawa, M. Ishida, T. Nakajima, Y. Honda, O. Kitao, 
 H. Nakai, M. Klene, X. Li, J. E. Knox, H. P. Hratchian, J. B. Cross, 
 V. Bakken, C. Adamo, J. Jaramillo, R. Gomperts, R. E. Stratmann, 
 O. Yazyev, A. J. Austin, R. Cammi, C. Pomelli, J. W. Ochterski, 
 P. Y. Ayala, K. Morokuma, G. A. Voth, P. Salvador, J. J. Dannenberg, 
 V. G. Zakrzewski, S. Dapprich, A. D. Daniels, M. C. Strain, 
 O. Farkas, D. K. Malick, A. D. Rabuck, K. Raghavachari, 
 J. B. Foresman, J. V. Ortiz, Q. Cui, A. G. Baboul, S. Clifford, 
 J. Cioslowski, B. B. Stefanov, G. Liu, A. Liashenko, P. Piskorz, 
 I. Komaromi, R. L. Martin, D. J. Fox, T. Keith, M. A. Al-Laham, 
 C. Y. Peng, A. Nanayakkara, M. Challacombe, P. M. W. Gill, 
 B. Johnson, W. Chen, M. W. Wong, C. Gonzalez, and J. A. Pople, 
 Gaussian, Inc., Wallingford CT, 2004.
 
 ******************************************
 Gaussian 03:  EM64T-G03RevE.01 11-Sep-2007
                12-Jun-2015 
 ******************************************
 %nproc=2
 Will use up to    2 processors via shared memory.
 Default route:  MP2=Direct MaxDisk=2000MB
 ----------------------------------------------------
 # b3lyp/6-31+G(d,p) int=ultrafine pop=(ReadRadii,MK)
 ----------------------------------------------------

 Warning!  SCF SP cutoffs with diffuse functions may be unreliable.
 Consider SCF=Tight

 1/38=1/1;
 2/17=6,18=5,40=1/2;
 3/5=1,6=6,7=111,11=2,16=1,25=1,30=1,74=-5,75=5/1,2,3;
 4//1;
 5/5=2,32=1,38=5/2;
 6/7=2,8=2,9=2,10=2,15=8,20=101,28=1/1,2;
 99/5=1,9=1/99;
 ----------------------------------------
 mol_16.4.53.pdb_plusQ.out.z51604.zip.xyz
 ----------------------------------------
 Symbolic Z-matrix:
 Charge =  1 Multiplicity = 1
 O                     0.25204  -0.98039  -0.00031 
 O                    -0.98029   0.81518   1.25031 
 P                    -0.06722   0.67964   0.00001 
 O                     1.34925   1.31638   0.00004 
 Ca                    2.44223  -0.60812  -0.00001 
 O                    -0.98055   0.81568  -1.25003 
 Ca                   -2.24799  -0.68835   0. 
 
                          Input orientation:                          
 ---------------------------------------------------------------------
 Center     Atomic     Atomic              Coordinates (Angstroms)
 Number     Number      Type              X           Y           Z
 ---------------------------------------------------------------------
    1          8             0        0.252040   -0.980390   -0.000310
    2          8             0       -0.980290    0.815180    1.250310
    3         15             0       -0.067220    0.679640    0.000010
    4          8             0        1.349250    1.316380    0.000040
    5         20             0        2.442230   -0.608120   -0.000010
    6          8             0       -0.980550    0.815680   -1.250030
    7         20             0       -2.247990   -0.688350    0.000000
 ---------------------------------------------------------------------
                    Distance matrix (angstroms):
                    1          2          3          4          5
     1  O    0.000000
     2  O    2.511326   0.000000
     3  P    1.690452   1.554129   0.000000
     4  O    2.545392   2.690935   1.553005   0.000000
     5  Ca   2.221602   3.911870   2.820579   2.213212   0.000000
     6  O    2.511363   2.500340   1.554117   2.690974   3.912183
     7  Ca   2.517029   2.330438   2.574326   4.118140   4.690906
                    6          7
     6  O    0.000000
     7  Ca   2.330469   0.000000
 Stoichiometry    Ca2O4P(1+)
 Framework group  C1[X(Ca2O4P)]
 Deg. of freedom    15
 Full point group                 C1
 Largest Abelian subgroup         C1      NOp   1
 Largest concise Abelian subgroup C1      NOp   1
                         Standard orientation:                         
 ---------------------------------------------------------------------
 Center     Atomic     Atomic              Coordinates (Angstroms)
 Number     Number      Type              X           Y           Z
 ---------------------------------------------------------------------
    1          8             0        0.252038   -0.980390   -0.000310
    2          8             0       -0.980290    0.815181    1.250310
    3         15             0       -0.067220    0.679640    0.000010
    4          8             0        1.349250    1.316378    0.000040
    5         20             0        2.442228   -0.608123   -0.000010
    6          8             0       -0.980550    0.815681   -1.250030
    7         20             0       -2.247992   -0.688347    0.000000
 ---------------------------------------------------------------------
 Rotational constants (GHZ):      3.1123732      0.9166591      0.8234830
 Standard basis: 6-31+G(d,p) (6D, 7F)
 There are   153 symmetry adapted basis functions of A   symmetry.
 Integral buffers will be    131072 words long.
 Raffenetti 2 integral format.
 Two-electron integral symmetry is turned on.
   153 basis functions,   344 primitive gaussians,   153 cartesian basis functions
    43 alpha electrons       43 beta electrons
       nuclear repulsion energy       648.7563483488 Hartrees.
 NAtoms=    7 NActive=    7 NUniq=    7 SFac= 7.50D-01 NAtFMM=   80 NAOKFM=F Big=F
 One-electron integrals computed using PRISM.
 NBasis=   153 RedAO= T  NBF=   153
 NBsUse=   153 1.00D-06 NBFU=   153
 Harris functional with IExCor=  402 diagonalized for initial guess.
 ExpMin= 7.10D-03 ExpMax= 3.53D+04 ExpMxC= 5.30D+03 IAcc=3 IRadAn=         5 AccDes= 0.00D+00
 HarFok:  IExCor= 402 AccDes= 0.00D+00 IRadAn=         5 IDoV=1
 ScaDFX=  1.000000  1.000000  1.000000  1.000000
 Initial guess orbital symmetries:
       Occupied  (A) (A) (A) (A) (A) (A) (A) (A) (A) (A) (A) (A)
                 (A) (A) (A) (A) (A) (A) (A) (A) (A) (A) (A) (A)
                 (A) (A) (A) (A) (A) (A) (A) (A) (A) (A) (A) (A)
                 (A) (A) (A) (A) (A) (A) (A)
       Virtual   (A) (A) (A) (A) (A) (A) (A) (A) (A) (A) (A) (A)
                 (A) (A) (A) (A) (A) (A) (A) (A) (A) (A) (A) (A)
                 (A) (A) (A) (A) (A) (A) (A) (A) (A) (A) (A) (A)
                 (A) (A) (A) (A) (A) (A) (A) (A) (A) (A) (A) (A)
                 (A) (A) (A) (A) (A) (A) (A) (A) (A) (A) (A) (A)
                 (A) (A) (A) (A) (A) (A) (A) (A) (A) (A) (A) (A)
                 (A) (A) (A) (A) (A) (A) (A) (A) (A) (A) (A) (A)
                 (A) (A) (A) (A) (A) (A) (A) (A) (A) (A) (A) (A)
                 (A) (A) (A) (A) (A) (A) (A) (A) (A) (A) (A) (A)
                 (A) (A)
 The electronic state of the initial guess is 1-A.
 Requested convergence on RMS density matrix=1.00D-04 within 128 cycles.
 Requested convergence on MAX density matrix=1.00D-02.
 Requested convergence on             energy=1.00D-02.
 No special actions if energy rises.
 SCF Done:  E(RB+HF-LYP) =  -1997.39686936     A.U. after    8 cycles
             Convg  =    0.4886D-04             -V/T =  2.0032
             S**2   =   0.0000

 **********************************************************************

            Population analysis using the SCF density.

 **********************************************************************

 Orbital symmetries:
       Occupied  (A) (A) (A) (A) (A) (A) (A) (A) (A) (A) (A) (A)
                 (A) (A) (A) (A) (A) (A) (A) (A) (A) (A) (A) (A)
                 (A) (A) (A) (A) (A) (A) (A) (A) (A) (A) (A) (A)
                 (A) (A) (A) (A) (A) (A) (A)
       Virtual   (A) (A) (A) (A) (A) (A) (A) (A) (A) (A) (A) (A)
                 (A) (A) (A) (A) (A) (A) (A) (A) (A) (A) (A) (A)
                 (A) (A) (A) (A) (A) (A) (A) (A) (A) (A) (A) (A)
                 (A) (A) (A) (A) (A) (A) (A) (A) (A) (A) (A) (A)
                 (A) (A) (A) (A) (A) (A) (A) (A) (A) (A) (A) (A)
                 (A) (A) (A) (A) (A) (A) (A) (A) (A) (A) (A) (A)
                 (A) (A) (A) (A) (A) (A) (A) (A) (A) (A) (A) (A)
                 (A) (A) (A) (A) (A) (A) (A) (A) (A) (A) (A) (A)
                 (A) (A) (A) (A) (A) (A) (A) (A) (A) (A) (A) (A)
                 (A) (A)
 The electronic state is 1-A.
 Alpha  occ. eigenvalues -- -145.57542-145.56071 -77.29917 -19.22731 -19.22262
 Alpha  occ. eigenvalues --  -19.19554 -19.19554 -15.64328 -15.62752 -12.77571
 Alpha  occ. eigenvalues --  -12.77476 -12.77469 -12.75963 -12.75935 -12.75932
 Alpha  occ. eigenvalues --   -6.74489  -4.90943  -4.90802  -4.90708  -2.01281
 Alpha  occ. eigenvalues --   -1.99573  -1.28879  -1.28830  -1.28370  -1.27397
 Alpha  occ. eigenvalues --   -1.26805  -1.26708  -1.11443  -1.04125  -1.01265
 Alpha  occ. eigenvalues --   -1.01111  -0.61213  -0.53194  -0.51402  -0.50524
 Alpha  occ. eigenvalues --   -0.45803  -0.42790  -0.42564  -0.41451  -0.40254
 Alpha  occ. eigenvalues --   -0.38005  -0.36316  -0.34169
 Alpha virt. eigenvalues --   -0.23652  -0.21657  -0.14049  -0.13680  -0.12203
 Alpha virt. eigenvalues --   -0.12004  -0.11177  -0.08337  -0.07557  -0.06421
 Alpha virt. eigenvalues --   -0.05282  -0.05144  -0.04532  -0.04381  -0.04182
 Alpha virt. eigenvalues --   -0.03515  -0.02306  -0.01632  -0.01542  -0.00584
 Alpha virt. eigenvalues --    0.00853   0.01087   0.01683   0.02259   0.02799
 Alpha virt. eigenvalues --    0.02970   0.03215   0.03285   0.04207   0.04372
 Alpha virt. eigenvalues --    0.04479   0.05567   0.05961   0.08287   0.09554
 Alpha virt. eigenvalues --    0.10361   0.10413   0.13386   0.14052   0.14980
 Alpha virt. eigenvalues --    0.16414   0.16684   0.16842   0.18983   0.19229
 Alpha virt. eigenvalues --    0.20365   0.23226   0.23925   0.24612   0.27404
 Alpha virt. eigenvalues --    0.27494   0.28872   0.29809   0.32369   0.33471
 Alpha virt. eigenvalues --    0.35640   0.40683   0.43828   0.49839   0.53083
 Alpha virt. eigenvalues --    0.55947   0.57972   0.62395   0.64042   0.75002
 Alpha virt. eigenvalues --    0.89059   0.92544   0.99119   1.00875   1.07711
 Alpha virt. eigenvalues --    1.15260   1.15722   1.17452   1.18150   1.19506
 Alpha virt. eigenvalues --    1.21361   1.23758   1.24711   1.26294   1.27744
 Alpha virt. eigenvalues --    1.30620   1.46745   1.47107   1.54242   1.69696
 Alpha virt. eigenvalues --    1.70374   1.71754   1.72548   1.76462   1.77150
 Alpha virt. eigenvalues --    1.78369   1.80392   1.82977   1.84055   1.86168
 Alpha virt. eigenvalues --    1.92985   1.97168   2.02970   2.13303   2.14879
 Alpha virt. eigenvalues --    2.24061   2.48248   2.67298   2.77550   2.78517
 Alpha virt. eigenvalues --    3.48671   4.01193   4.02134   4.04586   4.29660
          Condensed to atoms (all electrons):
              1          2          3          4          5          6
     1  O    8.996458   0.022320   0.041103  -0.109013   0.101194   0.022320
     2  O    0.022320   8.830302   0.096715  -0.094600  -0.011690  -0.054213
     3  P    0.041103   0.096715  12.758765   0.167201   0.016929   0.096674
     4  O   -0.109013  -0.094600   0.167201   8.817715   0.147169  -0.094614
     5  Ca   0.101194  -0.011690   0.016929   0.147169  18.228887  -0.011681
     6  O    0.022320  -0.054213   0.096674  -0.094614  -0.011681   8.830321
     7  Ca   0.053757   0.094945   0.036496   0.030737   0.003873   0.094928
              7
     1  O    0.053757
     2  O    0.094945
     3  P    0.036496
     4  O    0.030737
     5  Ca   0.003873
     6  O    0.094928
     7  Ca  18.236452
 Mulliken atomic charges:
              1
     1  O   -1.128139
     2  O   -0.883779
     3  P    1.786117
     4  O   -0.864594
     5  Ca   1.525318
     6  O   -0.883735
     7  Ca   1.448811
 Sum of Mulliken charges=   1.00000
 Atomic charges with hydrogens summed into heavy atoms:
              1
     1  O   -1.128139
     2  O   -0.883779
     3  P    1.786117
     4  O   -0.864594
     5  Ca   1.525318
     6  O   -0.883735
     7  Ca   1.448811
 Sum of Mulliken charges=   1.00000
 Electronic spatial extent (au):  <R**2>=  1262.2599
 Charge=     1.0000 electrons
 Dipole moment (field-independent basis, Debye):
    X=     2.7775    Y=   -12.3717    Z=    -0.0001  Tot=    12.6797
 Quadrupole moment (field-independent basis, Debye-Ang):
   XX=    21.8866   YY=   -59.4340   ZZ=   -66.1602
   XY=     1.3294   XZ=     0.0001   YZ=    -0.0002
 Traceless Quadrupole moment (field-independent basis, Debye-Ang):
   XX=    56.4558   YY=   -24.8648   ZZ=   -31.5910
   XY=     1.3294   XZ=     0.0001   YZ=    -0.0002
 Octapole moment (field-independent basis, Debye-Ang**2):
  XXX=    29.4419  YYY=   -30.7748  ZZZ=    -0.0052  XYY=    -5.2846
  XXY=   -85.1107  XXZ=     0.0003  XZZ=    14.3137  YZZ=   -16.9108
  YYZ=     0.0041  XYZ=    -0.0029
 Hexadecapole moment (field-independent basis, Debye-Ang**3):
 XXXX=  -242.2587 YYYY=  -295.1157 ZZZZ=  -200.7932 XXXY=   -11.6090
 XXXZ=    -0.0038 YYYX=    -0.7113 YYYZ=     0.0020 ZZZX=     0.0042
 ZZZY=    -0.0013 XXYY=  -151.5512 XXZZ=  -164.8829 YYZZ=   -85.5416
 XXYZ=     0.0025 YYXZ=    -0.0031 ZZXY=     9.6599
 N-N= 6.487563483488D+02 E-N=-6.017097996449D+03  KE= 1.991101637870D+03
 Merz-Kollman atomic radii used.
 Read replacement radii for each type of atom:
 Rad(20) =   1.188000000000D+00
 Atom Element Radius
    1     8    1.40
    2     8    1.40
    3    15    1.80
    4     8    1.40
    5    20    1.19
    6     8    1.40
    7    20    1.19

 **********************************************************************

            Electrostatic Properties Using The SCF Density

 **********************************************************************

       Atomic Center    1 is at   0.252038 -0.980390 -0.000310
       Atomic Center    2 is at  -0.980290  0.815181  1.250310
       Atomic Center    3 is at  -0.067220  0.679640  0.000010
       Atomic Center    4 is at   1.349250  1.316378  0.000040
       Atomic Center    5 is at   2.442228 -0.608123 -0.000010
       Atomic Center    6 is at  -0.980550  0.815681 -1.250030
       Atomic Center    7 is at  -2.247992 -0.688347  0.000000
     610 points will be used for fitting atomic charges
 Fitting point charges to eletrostatic potential
 Charges from ESP fit, RMS=   0.00379 RRMS=   0.02212:
 Charge=   1.00000 Dipole=     2.7700   -12.4840    -0.0001 Tot=    12.7876
              1
     1  O   -1.283055
     2  O   -0.966027
     3  P    1.678062
     4  O   -0.904818
     5  Ca   1.722021
     6  O   -0.965941
     7  Ca   1.719758
 -----------------------------------------------------------------

              Electrostatic Properties (Atomic Units)

 -----------------------------------------------------------------
    Center     Electric         -------- Electric Field --------
               Potential          X             Y             Z
 -----------------------------------------------------------------
    1 Atom    -22.237861
    2 Atom    -22.269903
    3 Atom    -53.905349
    4 Atom    -22.235877
    5 Atom    -79.965174
    6 Atom    -22.269882
    7 Atom    -79.979668
 -----------------------------------------------------------------
 1\1\GINC-N027\SP\RB3LYP\6-31+G(d,p)\Ca2O4P1(1+)\TIMN\12-Jun-2015\0\\# 
 b3lyp/6-31+G(d,p) int=ultrafine pop=(ReadRadii,MK)\\mol_16.4.53.pdb_pl
 usQ.out.z51604.zip.xyz\\1,1\O,0,0.25204,-0.98039,-0.00031\O,0,-0.98029
 ,0.81518,1.25031\P,0,-0.06722,0.67964,0.00001\O,0,1.34925,1.31638,0.00
 004\Ca,0,2.44223,-0.60812,-0.00001\O,0,-0.98055,0.81568,-1.25003\Ca,0,
 -2.24799,-0.68835,0.\\Version=EM64T-G03RevE.01\State=1-A\HF=-1997.3968
 694\RMSD=4.886e-05\Thermal=0.\Dipole=1.0927488,-4.867419,-0.0000322\PG
 =C01 [X(Ca2O4P1)]\\@


 Make no judgements where you have no compassion.
                               -- Anne McCaffrey
 Job cpu time:  0 days  0 hours  1 minutes  2.2 seconds.
 File lengths (MBytes):  RWF=     28 Int=      0 D2E=      0 Chk=     10 Scr=      1
 Normal termination of Gaussian 03 at Fri Jun 12 17:49:03 2015.
