 Entering Gaussian System, Link 0=/home/timn/tmp/g03.e01/g03
 Input=mol_16.5.14.pdbc_plusQ.out.z51620.zip.xyz.gjf
 Output=mol_16.5.14.pdbc_plusQ.out.z51620.zip.xyz.out
 Initial command:
 /home/timn/tmp/g03.e01/l1.exe /home/timn/tmp/g03.e01/Gau-18740.inp -scrdir=/home/timn/tmp/g03.e01/
 Default is to use a total of   2 processors:
                                2 via shared-memory
                                1 via Linda
 Entering Link 1 = /home/timn/tmp/g03.e01/l1.exe PID=     18741.
  
 Copyright (c) 1988,1990,1992,1993,1995,1998,2003,2004,2007, Gaussian, Inc.
                  All Rights Reserved.
  
 This is the Gaussian(R) 03 program.  It is based on the
 the Gaussian(R) 98 system (copyright 1998, Gaussian, Inc.),
 the Gaussian(R) 94 system (copyright 1995, Gaussian, Inc.),
 the Gaussian 92(TM) system (copyright 1992, Gaussian, Inc.),
 the Gaussian 90(TM) system (copyright 1990, Gaussian, Inc.),
 the Gaussian 88(TM) system (copyright 1988, Gaussian, Inc.),
 the Gaussian 86(TM) system (copyright 1986, Carnegie Mellon
 University), and the Gaussian 82(TM) system (copyright 1983,
 Carnegie Mellon University). Gaussian is a federally registered
 trademark of Gaussian, Inc.
  
 This software contains proprietary and confidential information,
 including trade secrets, belonging to Gaussian, Inc.
  
 This software is provided under written license and may be
 used, copied, transmitted, or stored only in accord with that
 written license.
  
 The following legend is applicable only to US Government
 contracts under FAR:
  
                    RESTRICTED RIGHTS LEGEND
  
 Use, reproduction and disclosure by the US Government is
 subject to restrictions as set forth in subparagraphs (a)
 and (c) of the Commercial Computer Software - Restricted
 Rights clause in FAR 52.227-19.
  
 Gaussian, Inc.
 340 Quinnipiac St., Bldg. 40, Wallingford CT 06492
  
  
 ---------------------------------------------------------------
 Warning -- This program may not be used in any manner that
 competes with the business of Gaussian, Inc. or will provide
 assistance to any competitor of Gaussian, Inc.  The licensee
 of this program is prohibited from giving any competitor of
 Gaussian, Inc. access to this program.  By using this program,
 the user acknowledges that Gaussian, Inc. is engaged in the
 business of creating and licensing software in the field of
 computational chemistry and represents and warrants to the
 licensee that it is not a competitor of Gaussian, Inc. and that
 it will not use this program in any manner prohibited above.
 ---------------------------------------------------------------
  

 Cite this work as:
 Gaussian 03, Revision E.01,
 M. J. Frisch, G. W. Trucks, H. B. Schlegel, G. E. Scuseria, 
 M. A. Robb, J. R. Cheeseman, J. A. Montgomery, Jr., T. Vreven, 
 K. N. Kudin, J. C. Burant, J. M. Millam, S. S. Iyengar, J. Tomasi, 
 V. Barone, B. Mennucci, M. Cossi, G. Scalmani, N. Rega, 
 G. A. Petersson, H. Nakatsuji, M. Hada, M. Ehara, K. Toyota, 
 R. Fukuda, J. Hasegawa, M. Ishida, T. Nakajima, Y. Honda, O. Kitao, 
 H. Nakai, M. Klene, X. Li, J. E. Knox, H. P. Hratchian, J. B. Cross, 
 V. Bakken, C. Adamo, J. Jaramillo, R. Gomperts, R. E. Stratmann, 
 O. Yazyev, A. J. Austin, R. Cammi, C. Pomelli, J. W. Ochterski, 
 P. Y. Ayala, K. Morokuma, G. A. Voth, P. Salvador, J. J. Dannenberg, 
 V. G. Zakrzewski, S. Dapprich, A. D. Daniels, M. C. Strain, 
 O. Farkas, D. K. Malick, A. D. Rabuck, K. Raghavachari, 
 J. B. Foresman, J. V. Ortiz, Q. Cui, A. G. Baboul, S. Clifford, 
 J. Cioslowski, B. B. Stefanov, G. Liu, A. Liashenko, P. Piskorz, 
 I. Komaromi, R. L. Martin, D. J. Fox, T. Keith, M. A. Al-Laham, 
 C. Y. Peng, A. Nanayakkara, M. Challacombe, P. M. W. Gill, 
 B. Johnson, W. Chen, M. W. Wong, C. Gonzalez, and J. A. Pople, 
 Gaussian, Inc., Wallingford CT, 2004.
 
 ******************************************
 Gaussian 03:  EM64T-G03RevE.01 11-Sep-2007
                12-Jun-2015 
 ******************************************
 %nproc=2
 Will use up to    2 processors via shared memory.
 Default route:  MP2=Direct MaxDisk=2000MB
 ----------------------------------------------------
 # b3lyp/6-31+G(d,p) int=ultrafine pop=(ReadRadii,MK)
 ----------------------------------------------------

 Warning!  SCF SP cutoffs with diffuse functions may be unreliable.
 Consider SCF=Tight

 1/38=1/1;
 2/17=6,18=5,40=1/2;
 3/5=1,6=6,7=111,11=2,16=1,25=1,30=1,74=-5,75=5/1,2,3;
 4//1;
 5/5=2,32=1,38=5/2;
 6/7=2,8=2,9=2,10=2,15=8,20=101,28=1/1,2;
 99/5=1,9=1/99;
 -----------------------------------------
 mol_16.5.14.pdbc_plusQ.out.z51620.zip.xyz
 -----------------------------------------
 Symbolic Z-matrix:
 Charge =  1 Multiplicity = 1
 O                    -2.48781   1.23967  -0.0077 
 P                    -3.42117   0.00036  -0.00022 
 O                    -2.48844  -1.23942   0.00714 
 O                     1.67781  -0.0121   -0.78771 
 O                     1.67812   0.01124   0.78794 
 Ca                   -0.48797  -0.00037   0.00059 
 Ca                    3.70197   0.00034  -0.00029 
 
                          Input orientation:                          
 ---------------------------------------------------------------------
 Center     Atomic     Atomic              Coordinates (Angstroms)
 Number     Number      Type              X           Y           Z
 ---------------------------------------------------------------------
    1          8             0       -2.487810    1.239670   -0.007700
    2         15             0       -3.421170    0.000360   -0.000220
    3          8             0       -2.488440   -1.239420    0.007140
    4          8             0        1.677810   -0.012100   -0.787710
    5          8             0        1.678120    0.011240    0.787940
    6         20             0       -0.487970   -0.000370    0.000590
    7         20             0        3.701970    0.000340   -0.000290
 ---------------------------------------------------------------------
                    Distance matrix (angstroms):
                    1          2          3          4          5
     1  O    0.000000
     2  P    1.551485   0.000000
     3  O    2.479134   1.551481   0.000000
     4  O    4.419020   5.159447   4.415398   0.000000
     5  O    4.415547   5.159852   4.419731   1.575823   0.000000
     6  Ca   2.353110   2.933200   2.353119   2.304812   2.304778
     7  Ca   6.312636   7.123140   6.313338   2.171960   2.171956
                    6          7
     6  Ca   0.000000
     7  Ca   4.189940   0.000000
 Stoichiometry    Ca2O4P(1+)
 Framework group  C1[X(Ca2O4P)]
 Deg. of freedom    15
 Full point group                 C1
 Largest Abelian subgroup         C1      NOp   1
 Largest concise Abelian subgroup C1      NOp   1
                         Standard orientation:                         
 ---------------------------------------------------------------------
 Center     Atomic     Atomic              Coordinates (Angstroms)
 Number     Number      Type              X           Y           Z
 ---------------------------------------------------------------------
    1          8             0       -2.487809    1.239671   -0.007701
    2         15             0       -3.421169    0.000361   -0.000221
    3          8             0       -2.488439   -1.239419    0.007139
    4          8             0        1.677811   -0.012099   -0.787711
    5          8             0        1.678121    0.011241    0.787939
    6         20             0       -0.487969   -0.000369    0.000589
    7         20             0        3.701971    0.000340   -0.000291
 ---------------------------------------------------------------------
 Rotational constants (GHZ):      7.3229854      0.4116752      0.4020790
 Standard basis: 6-31+G(d,p) (6D, 7F)
 There are   153 symmetry adapted basis functions of A   symmetry.
 Integral buffers will be    131072 words long.
 Raffenetti 2 integral format.
 Two-electron integral symmetry is turned on.
   153 basis functions,   344 primitive gaussians,   153 cartesian basis functions
    43 alpha electrons       43 beta electrons
       nuclear repulsion energy       549.4446947410 Hartrees.
 NAtoms=    7 NActive=    7 NUniq=    7 SFac= 7.50D-01 NAtFMM=   80 NAOKFM=F Big=F
 One-electron integrals computed using PRISM.
 NBasis=   153 RedAO= T  NBF=   153
 NBsUse=   153 1.00D-06 NBFU=   153
 Harris functional with IExCor=  402 diagonalized for initial guess.
 ExpMin= 7.10D-03 ExpMax= 3.53D+04 ExpMxC= 5.30D+03 IAcc=3 IRadAn=         5 AccDes= 0.00D+00
 HarFok:  IExCor= 402 AccDes= 0.00D+00 IRadAn=         5 IDoV=1
 ScaDFX=  1.000000  1.000000  1.000000  1.000000
 Initial guess orbital symmetries:
       Occupied  (A) (A) (A) (A) (A) (A) (A) (A) (A) (A) (A) (A)
                 (A) (A) (A) (A) (A) (A) (A) (A) (A) (A) (A) (A)
                 (A) (A) (A) (A) (A) (A) (A) (A) (A) (A) (A) (A)
                 (A) (A) (A) (A) (A) (A) (A)
       Virtual   (A) (A) (A) (A) (A) (A) (A) (A) (A) (A) (A) (A)
                 (A) (A) (A) (A) (A) (A) (A) (A) (A) (A) (A) (A)
                 (A) (A) (A) (A) (A) (A) (A) (A) (A) (A) (A) (A)
                 (A) (A) (A) (A) (A) (A) (A) (A) (A) (A) (A) (A)
                 (A) (A) (A) (A) (A) (A) (A) (A) (A) (A) (A) (A)
                 (A) (A) (A) (A) (A) (A) (A) (A) (A) (A) (A) (A)
                 (A) (A) (A) (A) (A) (A) (A) (A) (A) (A) (A) (A)
                 (A) (A) (A) (A) (A) (A) (A) (A) (A) (A) (A) (A)
                 (A) (A) (A) (A) (A) (A) (A) (A) (A) (A) (A) (A)
                 (A) (A)
 The electronic state of the initial guess is 1-A.
 Requested convergence on RMS density matrix=1.00D-04 within 128 cycles.
 Requested convergence on MAX density matrix=1.00D-02.
 Requested convergence on             energy=1.00D-02.
 No special actions if energy rises.
 SCF Done:  E(RB+HF-LYP) =  -1997.29959280     A.U. after    6 cycles
             Convg  =    0.8794D-04             -V/T =  2.0031
             S**2   =   0.0000

 **********************************************************************

            Population analysis using the SCF density.

 **********************************************************************

 Orbital symmetries:
       Occupied  (A) (A) (A) (A) (A) (A) (A) (A) (A) (A) (A) (A)
                 (A) (A) (A) (A) (A) (A) (A) (A) (A) (A) (A) (A)
                 (A) (A) (A) (A) (A) (A) (A) (A) (A) (A) (A) (A)
                 (A) (A) (A) (A) (A) (A) (A)
       Virtual   (A) (A) (A) (A) (A) (A) (A) (A) (A) (A) (A) (A)
                 (A) (A) (A) (A) (A) (A) (A) (A) (A) (A) (A) (A)
                 (A) (A) (A) (A) (A) (A) (A) (A) (A) (A) (A) (A)
                 (A) (A) (A) (A) (A) (A) (A) (A) (A) (A) (A) (A)
                 (A) (A) (A) (A) (A) (A) (A) (A) (A) (A) (A) (A)
                 (A) (A) (A) (A) (A) (A) (A) (A) (A) (A) (A) (A)
                 (A) (A) (A) (A) (A) (A) (A) (A) (A) (A) (A) (A)
                 (A) (A) (A) (A) (A) (A) (A) (A) (A) (A) (A) (A)
                 (A) (A) (A) (A) (A) (A) (A) (A) (A) (A) (A) (A)
                 (A) (A)
 The electronic state is 1-A.
 Alpha  occ. eigenvalues -- -145.61307-145.47830 -77.25111 -19.28178 -19.28173
 Alpha  occ. eigenvalues --  -19.23089 -19.23087 -15.68066 -15.54730 -12.81315
 Alpha  occ. eigenvalues --  -12.81251 -12.81182 -12.67978 -12.67950 -12.67783
 Alpha  occ. eigenvalues --   -6.70864  -4.87296  -4.87045  -4.86661  -2.04908
 Alpha  occ. eigenvalues --   -1.92042  -1.32456  -1.32381  -1.32127  -1.20436
 Alpha  occ. eigenvalues --   -1.19904  -1.19706  -1.11027  -1.08927  -1.03446
 Alpha  occ. eigenvalues --   -0.92089  -0.61802  -0.51529  -0.50968  -0.50581
 Alpha  occ. eigenvalues --   -0.48638  -0.48442  -0.48206  -0.40454  -0.40216
 Alpha  occ. eigenvalues --   -0.38739  -0.36541  -0.36217
 Alpha virt. eigenvalues --   -0.26771  -0.17588  -0.16698  -0.15594  -0.14691
 Alpha virt. eigenvalues --   -0.13211  -0.12488  -0.08761  -0.08298  -0.07809
 Alpha virt. eigenvalues --   -0.06076  -0.06006  -0.05734  -0.05252  -0.04043
 Alpha virt. eigenvalues --   -0.03792  -0.03494  -0.03472  -0.03159  -0.01823
 Alpha virt. eigenvalues --   -0.01657  -0.01556  -0.00360   0.00273   0.00349
 Alpha virt. eigenvalues --    0.01492   0.02766   0.02870   0.03726   0.04198
 Alpha virt. eigenvalues --    0.04736   0.04993   0.05315   0.05803   0.07677
 Alpha virt. eigenvalues --    0.07900   0.11101   0.11137   0.11762   0.12083
 Alpha virt. eigenvalues --    0.12791   0.15453   0.16239   0.17022   0.18036
 Alpha virt. eigenvalues --    0.18712   0.21816   0.22901   0.23203   0.23354
 Alpha virt. eigenvalues --    0.27980   0.28007   0.28752   0.31871   0.35978
 Alpha virt. eigenvalues --    0.36054   0.38205   0.39324   0.44867   0.45323
 Alpha virt. eigenvalues --    0.50338   0.51180   0.59314   0.60136   0.66666
 Alpha virt. eigenvalues --    0.70374   0.85833   0.90787   0.97484   1.02260
 Alpha virt. eigenvalues --    1.05981   1.06090   1.09321   1.12908   1.14470
 Alpha virt. eigenvalues --    1.17933   1.18057   1.20431   1.22234   1.24344
 Alpha virt. eigenvalues --    1.35205   1.39923   1.42622   1.44375   1.46832
 Alpha virt. eigenvalues --    1.56127   1.61121   1.68042   1.70195   1.70623
 Alpha virt. eigenvalues --    1.73875   1.75142   1.76598   1.84835   1.85165
 Alpha virt. eigenvalues --    1.89456   1.93453   1.94176   1.99684   2.13249
 Alpha virt. eigenvalues --    2.14794   2.15096   2.60957   2.72697   2.97448
 Alpha virt. eigenvalues --    3.42517   3.82531   3.92120   3.98008   4.02126
          Condensed to atoms (all electrons):
              1          2          3          4          5          6
     1  O    8.635476   0.028934  -0.092251   0.000203   0.000202   0.060695
     2  P    0.028934  14.538855   0.028913   0.003843   0.003840  -0.068865
     3  O   -0.092251   0.028913   8.635494   0.000204   0.000205   0.060703
     4  O    0.000203   0.003843   0.000204   8.472284  -0.037765   0.078619
     5  O    0.000202   0.003840   0.000205  -0.037765   8.472265   0.078644
     6  Ca   0.060695  -0.068865   0.060703   0.078619   0.078644  18.297429
     7  Ca   0.004113  -0.013109   0.004110   0.131916   0.131909  -0.021308
              7
     1  O    0.004113
     2  P   -0.013109
     3  O    0.004110
     4  O    0.131916
     5  O    0.131909
     6  Ca  -0.021308
     7  Ca  18.180690
 Mulliken atomic charges:
              1
     1  O   -0.637372
     2  P    0.477589
     3  O   -0.637377
     4  O   -0.649304
     5  O   -0.649300
     6  Ca   1.514083
     7  Ca   1.581680
 Sum of Mulliken charges=   1.00000
 Atomic charges with hydrogens summed into heavy atoms:
              1
     1  O   -0.637372
     2  P    0.477589
     3  O   -0.637377
     4  O   -0.649304
     5  O   -0.649300
     6  Ca   1.514083
     7  Ca   1.581680
 Sum of Mulliken charges=   1.00000
 Electronic spatial extent (au):  <R**2>=  2330.3514
 Charge=     1.0000 electrons
 Dipole moment (field-independent basis, Debye):
    X=    21.1361    Y=     0.0029    Z=     0.0018  Tot=    21.1361
 Quadrupole moment (field-independent basis, Debye-Ang):
   XX=    29.9989   YY=   -65.5064   ZZ=   -58.2809
   XY=     0.0134   XZ=    -0.0141   YZ=     0.0065
 Traceless Quadrupole moment (field-independent basis, Debye-Ang):
   XX=    61.2617   YY=   -34.2436   ZZ=   -27.0181
   XY=     0.0134   XZ=    -0.0141   YZ=     0.0065
 Octapole moment (field-independent basis, Debye-Ang**2):
  XXX=   466.9638  YYY=    -0.0007  ZZZ=     0.0025  XYY=    45.6255
  XXY=     0.0637  XXZ=    -0.0409  XZZ=    10.4945  YZZ=     0.0022
  YYZ=     0.0035  XYZ=    -0.2783
 Hexadecapole moment (field-independent basis, Debye-Ang**3):
 XXXX=  -697.6648 YYYY=  -193.0103 ZZZZ=  -103.5897 XXXY=     0.1470
 XXXZ=    -0.1529 YYYX=     0.0392 YYYZ=     0.0169 ZZZX=    -0.0303
 ZZZY=     0.0902 XXYY=  -456.0428 XXZZ=  -395.3464 YYZZ=   -48.9145
 XXYZ=     0.1508 YYXZ=    -0.0155 ZZXY=     0.0142
 N-N= 5.494446947410D+02 E-N=-5.818910635943D+03  KE= 1.991116184573D+03
 Merz-Kollman atomic radii used.
 Read replacement radii for each type of atom:
 Rad(20) =   1.188000000000D+00
 Atom Element Radius
    1     8    1.40
    2    15    1.80
    3     8    1.40
    4     8    1.40
    5     8    1.40
    6    20    1.19
    7    20    1.19

 **********************************************************************

            Electrostatic Properties Using The SCF Density

 **********************************************************************

       Atomic Center    1 is at  -2.487809  1.239671 -0.007701
       Atomic Center    2 is at  -3.421169  0.000361 -0.000221
       Atomic Center    3 is at  -2.488439 -1.239419  0.007139
       Atomic Center    4 is at   1.677811 -0.012099 -0.787711
       Atomic Center    5 is at   1.678121  0.011241  0.787939
       Atomic Center    6 is at  -0.487969 -0.000369  0.000589
       Atomic Center    7 is at   3.701971  0.000340 -0.000291
     789 points will be used for fitting atomic charges
 Fitting point charges to eletrostatic potential
 Charges from ESP fit, RMS=   0.00412 RRMS=   0.02716:
 Charge=   1.00000 Dipole=    21.0784     0.0059     0.0023 Tot=    21.0784
              1
     1  O   -0.698726
     2  P    0.565538
     3  O   -0.699151
     4  O   -0.851101
     5  O   -0.851248
     6  Ca   1.762250
     7  Ca   1.772438
 -----------------------------------------------------------------

              Electrostatic Properties (Atomic Units)

 -----------------------------------------------------------------
    Center     Electric         -------- Electric Field --------
               Potential          X             Y             Z
 -----------------------------------------------------------------
    1 Atom    -22.234321
    2 Atom    -53.965156
    3 Atom    -22.234370
    4 Atom    -22.187085
    5 Atom    -22.187055
    6 Atom    -80.063191
    7 Atom    -79.926871
 -----------------------------------------------------------------
 1\1\GINC-N027\SP\RB3LYP\6-31+G(d,p)\Ca2O4P1(1+)\TIMN\12-Jun-2015\0\\# 
 b3lyp/6-31+G(d,p) int=ultrafine pop=(ReadRadii,MK)\\mol_16.5.14.pdbc_p
 lusQ.out.z51620.zip.xyz\\1,1\O,0,-2.48781,1.23967,-0.0077\P,0,-3.42117
 ,0.00036,-0.00022\O,0,-2.48844,-1.23942,0.00714\O,0,1.67781,-0.0121,-0
 .78771\O,0,1.67812,0.01124,0.78794\Ca,0,-0.48797,-0.00037,0.00059\Ca,0
 ,3.70197,0.00034,-0.00029\\Version=EM64T-G03RevE.01\State=1-A\HF=-1997
 .2995928\RMSD=8.794e-05\Thermal=0.\Dipole=8.3155943,0.0011496,0.000725
 5\PG=C01 [X(Ca2O4P1)]\\@


 LAWS OF PROGRAMMING DEFINITION:  A WORKING PROGRAM
                                  IS ONE THAT HAS
                                  ONLY UNOBSERVED
                                  BUGS.
 Job cpu time:  0 days  0 hours  0 minutes 38.0 seconds.
 File lengths (MBytes):  RWF=     28 Int=      0 D2E=      0 Chk=     10 Scr=      1
 Normal termination of Gaussian 03 at Fri Jun 12 17:49:15 2015.
