 Entering Gaussian System, Link 0=/home/timn/tmp/g03.e01/g03
 Input=mol_17.27.9.pdbccc_plusQ.z58530.zip.xyz.gjf
 Output=mol_17.27.9.pdbccc_plusQ.z58530.zip.xyz.out
 Initial command:
 /home/timn/tmp/g03.e01/l1.exe /home/timn/tmp/g03.e01/Gau-13421.inp -scrdir=/home/timn/tmp/g03.e01/
 Default is to use a total of   2 processors:
                                2 via shared-memory
                                1 via Linda
 Entering Link 1 = /home/timn/tmp/g03.e01/l1.exe PID=     13422.
  
 Copyright (c) 1988,1990,1992,1993,1995,1998,2003,2004,2007, Gaussian, Inc.
                  All Rights Reserved.
  
 This is the Gaussian(R) 03 program.  It is based on the
 the Gaussian(R) 98 system (copyright 1998, Gaussian, Inc.),
 the Gaussian(R) 94 system (copyright 1995, Gaussian, Inc.),
 the Gaussian 92(TM) system (copyright 1992, Gaussian, Inc.),
 the Gaussian 90(TM) system (copyright 1990, Gaussian, Inc.),
 the Gaussian 88(TM) system (copyright 1988, Gaussian, Inc.),
 the Gaussian 86(TM) system (copyright 1986, Carnegie Mellon
 University), and the Gaussian 82(TM) system (copyright 1983,
 Carnegie Mellon University). Gaussian is a federally registered
 trademark of Gaussian, Inc.
  
 This software contains proprietary and confidential information,
 including trade secrets, belonging to Gaussian, Inc.
  
 This software is provided under written license and may be
 used, copied, transmitted, or stored only in accord with that
 written license.
  
 The following legend is applicable only to US Government
 contracts under FAR:
  
                    RESTRICTED RIGHTS LEGEND
  
 Use, reproduction and disclosure by the US Government is
 subject to restrictions as set forth in subparagraphs (a)
 and (c) of the Commercial Computer Software - Restricted
 Rights clause in FAR 52.227-19.
  
 Gaussian, Inc.
 340 Quinnipiac St., Bldg. 40, Wallingford CT 06492
  
  
 ---------------------------------------------------------------
 Warning -- This program may not be used in any manner that
 competes with the business of Gaussian, Inc. or will provide
 assistance to any competitor of Gaussian, Inc.  The licensee
 of this program is prohibited from giving any competitor of
 Gaussian, Inc. access to this program.  By using this program,
 the user acknowledges that Gaussian, Inc. is engaged in the
 business of creating and licensing software in the field of
 computational chemistry and represents and warrants to the
 licensee that it is not a competitor of Gaussian, Inc. and that
 it will not use this program in any manner prohibited above.
 ---------------------------------------------------------------
  

 Cite this work as:
 Gaussian 03, Revision E.01,
 M. J. Frisch, G. W. Trucks, H. B. Schlegel, G. E. Scuseria, 
 M. A. Robb, J. R. Cheeseman, J. A. Montgomery, Jr., T. Vreven, 
 K. N. Kudin, J. C. Burant, J. M. Millam, S. S. Iyengar, J. Tomasi, 
 V. Barone, B. Mennucci, M. Cossi, G. Scalmani, N. Rega, 
 G. A. Petersson, H. Nakatsuji, M. Hada, M. Ehara, K. Toyota, 
 R. Fukuda, J. Hasegawa, M. Ishida, T. Nakajima, Y. Honda, O. Kitao, 
 H. Nakai, M. Klene, X. Li, J. E. Knox, H. P. Hratchian, J. B. Cross, 
 V. Bakken, C. Adamo, J. Jaramillo, R. Gomperts, R. E. Stratmann, 
 O. Yazyev, A. J. Austin, R. Cammi, C. Pomelli, J. W. Ochterski, 
 P. Y. Ayala, K. Morokuma, G. A. Voth, P. Salvador, J. J. Dannenberg, 
 V. G. Zakrzewski, S. Dapprich, A. D. Daniels, M. C. Strain, 
 O. Farkas, D. K. Malick, A. D. Rabuck, K. Raghavachari, 
 J. B. Foresman, J. V. Ortiz, Q. Cui, A. G. Baboul, S. Clifford, 
 J. Cioslowski, B. B. Stefanov, G. Liu, A. Liashenko, P. Piskorz, 
 I. Komaromi, R. L. Martin, D. J. Fox, T. Keith, M. A. Al-Laham, 
 C. Y. Peng, A. Nanayakkara, M. Challacombe, P. M. W. Gill, 
 B. Johnson, W. Chen, M. W. Wong, C. Gonzalez, and J. A. Pople, 
 Gaussian, Inc., Wallingford CT, 2004.
 
 ******************************************
 Gaussian 03:  EM64T-G03RevE.01 11-Sep-2007
                12-Jun-2015 
 ******************************************
 %nproc=2
 Will use up to    2 processors via shared memory.
 Default route:  MP2=Direct MaxDisk=2000MB
 ----------------------------------------------------
 # b3lyp/6-31+G(d,p) int=ultrafine pop=(ReadRadii,MK)
 ----------------------------------------------------

 Warning!  SCF SP cutoffs with diffuse functions may be unreliable.
 Consider SCF=Tight

 1/38=1/1;
 2/17=6,18=5,40=1/2;
 3/5=1,6=6,7=111,11=2,16=1,25=1,30=1,74=-5,75=5/1,2,3;
 4//1;
 5/5=2,32=1,38=5/2;
 6/7=2,8=2,9=2,10=2,15=8,20=101,28=1/1,2;
 99/5=1,9=1/99;
 ---------------------------------------
 mol_17.27.9.pdbccc_plusQ.z58530.zip.xyz
 ---------------------------------------
 Symbolic Z-matrix:
 Charge =  1 Multiplicity = 1
 O                     0.63936   0.41497  -1.50116 
 O                     0.42214   1.04677   1.40323 
 Ca                   -0.72641   1.91549  -0.33786 
 O                    -2.11392   0.14302  -0.06318 
 O                    -1.55191  -1.0162   -0.87864 
 P                     0.11851  -1.14231  -1.42571 
 O                     0.83666  -1.60462  -0.01058 
 Ca                    2.16303   0.23589   0.31141 
 Ca                   -0.81844  -0.88823   1.51587 
 
                          Input orientation:                          
 ---------------------------------------------------------------------
 Center     Atomic     Atomic              Coordinates (Angstroms)
 Number     Number      Type              X           Y           Z
 ---------------------------------------------------------------------
    1          8             0        0.639360    0.414970   -1.501160
    2          8             0        0.422140    1.046770    1.403230
    3         20             0       -0.726410    1.915490   -0.337860
    4          8             0       -2.113920    0.143020   -0.063180
    5          8             0       -1.551910   -1.016200   -0.878640
    6         15             0        0.118510   -1.142310   -1.425710
    7          8             0        0.836660   -1.604620   -0.010580
    8         20             0        2.163030    0.235890    0.311410
    9         20             0       -0.818440   -0.888230    1.515870
 ---------------------------------------------------------------------
                    Distance matrix (angstroms):
                    1          2          3          4          5
     1  O    0.000000
     2  O    2.980241   0.000000
     3  Ca   2.338836   2.259477   0.000000
     4  O    3.118059   3.065734   2.267660   0.000000
     5  O    2.690250   3.655085   3.093331   1.524671   0.000000
     6  P    1.643806   3.589870   3.353722   2.914156   1.762241
     7  O    2.517836   3.033242   3.865420   3.429713   2.608646
     8  Ca   2.374668   2.209139   3.404625   4.294327   4.096917
     9  Ca   3.595272   2.301293   3.362385   2.288044   2.507595
                    6          7          8          9
     6  P    0.000000
     7  O    1.652895   0.000000
     8  Ca   3.016137   2.291378   0.000000
     9  Ca   3.097632   2.362757   3.406396   0.000000
 Stoichiometry    Ca3O5P(1+)
 Framework group  C1[X(Ca3O5P)]
 Deg. of freedom    21
 Full point group                 C1
 Largest Abelian subgroup         C1      NOp   1
 Largest concise Abelian subgroup C1      NOp   1
                         Standard orientation:                         
 ---------------------------------------------------------------------
 Center     Atomic     Atomic              Coordinates (Angstroms)
 Number     Number      Type              X           Y           Z
 ---------------------------------------------------------------------
    1          8             0        0.639360    0.414973   -1.501161
    2          8             0        0.422138    1.046772    1.403229
    3         20             0       -0.726414    1.915489   -0.337861
    4          8             0       -2.113919    0.143016   -0.063181
    5          8             0       -1.551907   -1.016203   -0.878641
    6         15             0        0.118514   -1.142309   -1.425711
    7          8             0        0.836665   -1.604617   -0.010581
    8         20             0        2.163030    0.235896    0.311409
    9         20             0       -0.818437   -0.888231    1.515869
 ---------------------------------------------------------------------
 Rotational constants (GHZ):      0.9319749      0.8298945      0.7599748
 Standard basis: 6-31+G(d,p) (6D, 7F)
 There are   199 symmetry adapted basis functions of A   symmetry.
 Integral buffers will be    131072 words long.
 Raffenetti 2 integral format.
 Two-electron integral symmetry is turned on.
   199 basis functions,   456 primitive gaussians,   199 cartesian basis functions
    57 alpha electrons       57 beta electrons
       nuclear repulsion energy      1094.4077825106 Hartrees.
 NAtoms=    9 NActive=    9 NUniq=    9 SFac= 7.50D-01 NAtFMM=   80 NAOKFM=F Big=F
 One-electron integrals computed using PRISM.
 NBasis=   199 RedAO= T  NBF=   199
 NBsUse=   199 1.00D-06 NBFU=   199
 Harris functional with IExCor=  402 diagonalized for initial guess.
 ExpMin= 7.10D-03 ExpMax= 3.53D+04 ExpMxC= 5.30D+03 IAcc=3 IRadAn=         5 AccDes= 0.00D+00
 HarFok:  IExCor= 402 AccDes= 0.00D+00 IRadAn=         5 IDoV=1
 ScaDFX=  1.000000  1.000000  1.000000  1.000000
 Initial guess orbital symmetries:
       Occupied  (A) (A) (A) (A) (A) (A) (A) (A) (A) (A) (A) (A)
                 (A) (A) (A) (A) (A) (A) (A) (A) (A) (A) (A) (A)
                 (A) (A) (A) (A) (A) (A) (A) (A) (A) (A) (A) (A)
                 (A) (A) (A) (A) (A) (A) (A) (A) (A) (A) (A) (A)
                 (A) (A) (A) (A) (A) (A) (A) (A) (A)
       Virtual   (A) (A) (A) (A) (A) (A) (A) (A) (A) (A) (A) (A)
                 (A) (A) (A) (A) (A) (A) (A) (A) (A) (A) (A) (A)
                 (A) (A) (A) (A) (A) (A) (A) (A) (A) (A) (A) (A)
                 (A) (A) (A) (A) (A) (A) (A) (A) (A) (A) (A) (A)
                 (A) (A) (A) (A) (A) (A) (A) (A) (A) (A) (A) (A)
                 (A) (A) (A) (A) (A) (A) (A) (A) (A) (A) (A) (A)
                 (A) (A) (A) (A) (A) (A) (A) (A) (A) (A) (A) (A)
                 (A) (A) (A) (A) (A) (A) (A) (A) (A) (A) (A) (A)
                 (A) (A) (A) (A) (A) (A) (A) (A) (A) (A) (A) (A)
                 (A) (A) (A) (A) (A) (A) (A) (A) (A) (A) (A) (A)
                 (A) (A) (A) (A) (A) (A) (A) (A) (A) (A) (A) (A)
                 (A) (A) (A) (A) (A) (A) (A) (A) (A) (A)
 The electronic state of the initial guess is 1-A.
 Requested convergence on RMS density matrix=1.00D-04 within 128 cycles.
 Requested convergence on MAX density matrix=1.00D-02.
 Requested convergence on             energy=1.00D-02.
 No special actions if energy rises.
 EnCoef did     3 forward-backward iterations
 SCF Done:  E(RB+HF-LYP) =  -2750.21036012     A.U. after    8 cycles
             Convg  =    0.9244D-04             -V/T =  2.0029
             S**2   =   0.0000

 **********************************************************************

            Population analysis using the SCF density.

 **********************************************************************

 Orbital symmetries:
       Occupied  (A) (A) (A) (A) (A) (A) (A) (A) (A) (A) (A) (A)
                 (A) (A) (A) (A) (A) (A) (A) (A) (A) (A) (A) (A)
                 (A) (A) (A) (A) (A) (A) (A) (A) (A) (A) (A) (A)
                 (A) (A) (A) (A) (A) (A) (A) (A) (A) (A) (A) (A)
                 (A) (A) (A) (A) (A) (A) (A) (A) (A)
       Virtual   (A) (A) (A) (A) (A) (A) (A) (A) (A) (A) (A) (A)
                 (A) (A) (A) (A) (A) (A) (A) (A) (A) (A) (A) (A)
                 (A) (A) (A) (A) (A) (A) (A) (A) (A) (A) (A) (A)
                 (A) (A) (A) (A) (A) (A) (A) (A) (A) (A) (A) (A)
                 (A) (A) (A) (A) (A) (A) (A) (A) (A) (A) (A) (A)
                 (A) (A) (A) (A) (A) (A) (A) (A) (A) (A) (A) (A)
                 (A) (A) (A) (A) (A) (A) (A) (A) (A) (A) (A) (A)
                 (A) (A) (A) (A) (A) (A) (A) (A) (A) (A) (A) (A)
                 (A) (A) (A) (A) (A) (A) (A) (A) (A) (A) (A) (A)
                 (A) (A) (A) (A) (A) (A) (A) (A) (A) (A) (A) (A)
                 (A) (A) (A) (A) (A) (A) (A) (A) (A) (A) (A) (A)
                 (A) (A) (A) (A) (A) (A) (A) (A) (A) (A)
 The electronic state is 1-A.
 Alpha  occ. eigenvalues -- -145.50968-145.50033-145.49664 -77.27042 -19.28853
 Alpha  occ. eigenvalues --  -19.25351 -19.23429 -19.23034 -19.16660 -15.57804
 Alpha  occ. eigenvalues --  -15.56858 -15.56457 -12.71013 -12.70976 -12.70927
 Alpha  occ. eigenvalues --  -12.70051 -12.70041 -12.69996 -12.69677 -12.69619
 Alpha  occ. eigenvalues --  -12.69606  -6.72137  -4.88564  -4.88425  -4.87902
 Alpha  occ. eigenvalues --   -1.95105  -1.94141  -1.93670  -1.23171  -1.22842
 Alpha  occ. eigenvalues --   -1.22456  -1.22336  -1.21698  -1.21425  -1.21273
 Alpha  occ. eigenvalues --   -1.21081  -1.20712  -1.13182  -1.07398  -1.02697
 Alpha  occ. eigenvalues --   -0.93103  -0.91568  -0.65298  -0.55843  -0.52714
 Alpha  occ. eigenvalues --   -0.51423  -0.48526  -0.47291  -0.44384  -0.42317
 Alpha  occ. eigenvalues --   -0.39784  -0.38427  -0.37055  -0.36741  -0.35861
 Alpha  occ. eigenvalues --   -0.34628  -0.32792
 Alpha virt. eigenvalues --   -0.20650  -0.18459  -0.17445  -0.13979  -0.12920
 Alpha virt. eigenvalues --   -0.11313  -0.10748  -0.09643  -0.08857  -0.08055
 Alpha virt. eigenvalues --   -0.07441  -0.06425  -0.06170  -0.05806  -0.05310
 Alpha virt. eigenvalues --   -0.04946  -0.04918  -0.04692  -0.04371  -0.04093
 Alpha virt. eigenvalues --   -0.03852  -0.03690  -0.03223  -0.03133  -0.02704
 Alpha virt. eigenvalues --   -0.02348  -0.01748  -0.00696   0.01026   0.01767
 Alpha virt. eigenvalues --    0.02067   0.02712   0.03387   0.04040   0.04340
 Alpha virt. eigenvalues --    0.05339   0.05697   0.05887   0.06074   0.06429
 Alpha virt. eigenvalues --    0.06833   0.07150   0.07562   0.07625   0.08027
 Alpha virt. eigenvalues --    0.09479   0.09797   0.10248   0.11291   0.11722
 Alpha virt. eigenvalues --    0.12841   0.13891   0.15414   0.15597   0.17153
 Alpha virt. eigenvalues --    0.19391   0.20455   0.20739   0.21142   0.22433
 Alpha virt. eigenvalues --    0.23551   0.23633   0.24871   0.25320   0.26014
 Alpha virt. eigenvalues --    0.27691   0.30009   0.30970   0.32455   0.34075
 Alpha virt. eigenvalues --    0.34853   0.35486   0.37299   0.38219   0.39150
 Alpha virt. eigenvalues --    0.40499   0.42771   0.45137   0.48431   0.52168
 Alpha virt. eigenvalues --    0.53944   0.58246   0.61109   0.62497   0.65224
 Alpha virt. eigenvalues --    0.80026   0.84237   0.87328   0.90374   0.96139
 Alpha virt. eigenvalues --    1.10351   1.12688   1.13292   1.15389   1.16668
 Alpha virt. eigenvalues --    1.17797   1.19513   1.20491   1.21958   1.22843
 Alpha virt. eigenvalues --    1.23718   1.26474   1.27260   1.31298   1.32551
 Alpha virt. eigenvalues --    1.39067   1.47714   1.51357   1.53306   1.59224
 Alpha virt. eigenvalues --    1.60915   1.67740   1.68959   1.70580   1.71859
 Alpha virt. eigenvalues --    1.76288   1.78972   1.79891   1.84189   1.85745
 Alpha virt. eigenvalues --    1.86435   1.89151   1.89525   1.91728   1.93166
 Alpha virt. eigenvalues --    1.96059   1.97166   1.98662   2.01556   2.08838
 Alpha virt. eigenvalues --    2.15209   2.21010   2.32870   2.50971   2.58404
 Alpha virt. eigenvalues --    3.06250   3.51046   4.00839   4.10615   4.13760
 Alpha virt. eigenvalues --    4.22560   4.33662
          Condensed to atoms (all electrons):
              1          2          3          4          5          6
     1  O    8.952769   0.018637   0.030988  -0.005178   0.032473  -0.099840
     2  O    0.018637   8.856049   0.125020   0.022281  -0.013258  -0.026423
     3  Ca   0.030988   0.125020  18.359673   0.110356  -0.025262  -0.014768
     4  O   -0.005178   0.022281   0.110356   8.432994  -0.028489  -0.006997
     5  O    0.032473  -0.013258  -0.025262  -0.028489   8.560739  -0.126847
     6  P   -0.099840  -0.026423  -0.014768  -0.006997  -0.126847  14.360090
     7  O    0.022277   0.028886   0.006956   0.015574   0.034014  -0.155065
     8  Ca   0.075211   0.142528  -0.046853  -0.019353   0.051044  -0.025748
     9  Ca   0.009665   0.110161  -0.040764   0.099979   0.002414   0.021227
              7          8          9
     1  O    0.022277   0.075211   0.009665
     2  O    0.028886   0.142528   0.110161
     3  Ca   0.006956  -0.046853  -0.040764
     4  O    0.015574  -0.019353   0.099979
     5  O    0.034014   0.051044   0.002414
     6  P   -0.155065  -0.025748   0.021227
     7  O    8.947788   0.080214   0.052787
     8  Ca   0.080214  18.391480  -0.070334
     9  Ca   0.052787  -0.070334  18.363396
 Mulliken atomic charges:
              1
     1  O   -1.037002
     2  O   -1.263880
     3  Ca   1.494654
     4  O   -0.621166
     5  O   -0.486829
     6  P    1.074371
     7  O   -1.033429
     8  Ca   1.421813
     9  Ca   1.451469
 Sum of Mulliken charges=   1.00000
 Atomic charges with hydrogens summed into heavy atoms:
              1
     1  O   -1.037002
     2  O   -1.263880
     3  Ca   1.494654
     4  O   -0.621166
     5  O   -0.486829
     6  P    1.074371
     7  O   -1.033429
     8  Ca   1.421813
     9  Ca   1.451469
 Sum of Mulliken charges=   1.00000
 Electronic spatial extent (au):  <R**2>=  1754.6404
 Charge=     1.0000 electrons
 Dipole moment (field-independent basis, Debye):
    X=     4.9135    Y=     5.8023    Z=     5.8487  Tot=     9.5925
 Quadrupole moment (field-independent basis, Debye-Ang):
   XX=   -52.0491   YY=   -58.0713   ZZ=   -75.4242
   XY=    -2.2215   XZ=    -5.9950   YZ=   -22.4566
 Traceless Quadrupole moment (field-independent basis, Debye-Ang):
   XX=     9.7991   YY=     3.7769   ZZ=   -13.5760
   XY=    -2.2215   XZ=    -5.9950   YZ=   -22.4566
 Octapole moment (field-independent basis, Debye-Ang**2):
  XXX=   116.5094  YYY=    80.0169  ZZZ=    43.5818  XYY=   -35.7160
  XXY=    22.7550  XXZ=    29.6969  XZZ=   -23.7333  YZZ=   -27.5750
  YYZ=    -2.0741  XYZ=    14.7321
 Hexadecapole moment (field-independent basis, Debye-Ang**3):
 XXXX=  -597.5798 YYYY=  -544.0211 ZZZZ=  -597.3661 XXXY=    14.9709
 XXXZ=     4.2457 YYYX=   -36.1669 YYYZ=   -99.5538 ZZZX=   -34.9749
 ZZZY=  -104.9961 XXYY=  -214.2626 XXZZ=  -207.2163 YYZZ=  -207.5041
 XXYZ=   -28.6672 YYXZ=   -12.8363 ZZXY=     0.0279
 N-N= 1.094407782511D+03 E-N=-8.689659362307D+03  KE= 2.742236995036D+03
 Merz-Kollman atomic radii used.
 Read replacement radii for each type of atom:
 Rad(20) =   1.188000000000D+00
 Atom Element Radius
    1     8    1.40
    2     8    1.40
    3    20    1.19
    4     8    1.40
    5     8    1.40
    6    15    1.80
    7     8    1.40
    8    20    1.19
    9    20    1.19

 **********************************************************************

            Electrostatic Properties Using The SCF Density

 **********************************************************************

       Atomic Center    1 is at   0.639360  0.414973 -1.501161
       Atomic Center    2 is at   0.422138  1.046772  1.403229
       Atomic Center    3 is at  -0.726414  1.915489 -0.337861
       Atomic Center    4 is at  -2.113919  0.143016 -0.063181
       Atomic Center    5 is at  -1.551907 -1.016203 -0.878641
       Atomic Center    6 is at   0.118514 -1.142309 -1.425711
       Atomic Center    7 is at   0.836665 -1.604617 -0.010581
       Atomic Center    8 is at   2.163030  0.235896  0.311409
       Atomic Center    9 is at  -0.818437 -0.888231  1.515869
     721 points will be used for fitting atomic charges
 Fitting point charges to eletrostatic potential
 Charges from ESP fit, RMS=   0.00528 RRMS=   0.03310:
 Charge=   1.00000 Dipole=     4.9387     5.8997     5.9214 Tot=     9.7087
              1
     1  O   -0.884572
     2  O   -1.627561
     3  Ca   1.679722
     4  O   -0.730248
     5  O   -0.296374
     6  P    0.441292
     7  O   -0.929180
     8  Ca   1.664189
     9  Ca   1.682731
 -----------------------------------------------------------------

              Electrostatic Properties (Atomic Units)

 -----------------------------------------------------------------
    Center     Electric         -------- Electric Field --------
               Potential          X             Y             Z
 -----------------------------------------------------------------
    1 Atom    -22.227956
    2 Atom    -22.306716
    3 Atom    -80.039874
    4 Atom    -22.207877
    5 Atom    -22.179489
    6 Atom    -53.948700
    7 Atom    -22.242822
    8 Atom    -80.031545
    9 Atom    -80.043302
 -----------------------------------------------------------------
 1\1\GINC-N033\SP\RB3LYP\6-31+G(d,p)\Ca3O5P1(1+)\TIMN\12-Jun-2015\0\\# 
 b3lyp/6-31+G(d,p) int=ultrafine pop=(ReadRadii,MK)\\mol_17.27.9.pdbccc
 _plusQ.z58530.zip.xyz\\1,1\O,0,0.63936,0.41497,-1.50116\O,0,0.42214,1.
 04677,1.40323\Ca,0,-0.72641,1.91549,-0.33786\O,0,-2.11392,0.14302,-0.0
 6318\O,0,-1.55191,-1.0162,-0.87864\P,0,0.11851,-1.14231,-1.42571\O,0,0
 .83666,-1.60462,-0.01058\Ca,0,2.16303,0.23589,0.31141\Ca,0,-0.81844,-0
 .88823,1.51587\\Version=EM64T-G03RevE.01\State=1-A\HF=-2750.2103601\RM
 SD=9.244e-05\Thermal=0.\Dipole=1.9331386,2.2827768,2.301062\PG=C01 [X(
 Ca3O5P1)]\\@


 IF YOU GIVE EVERYONE A PIECE OF YOUR MIND,
 PRETTY SOON IT WILL BE ALL GONE.
 Job cpu time:  0 days  0 hours  2 minutes 14.4 seconds.
 File lengths (MBytes):  RWF=     36 Int=      0 D2E=      0 Chk=     11 Scr=      1
 Normal termination of Gaussian 03 at Fri Jun 12 18:08:19 2015.
