 Entering Gaussian System, Link 0=/home/timn/tmp/g03.e01/g03
 Input=mol_17.28.59.pdbc_plusQ.z58584.zip.xyz.gjf
 Output=mol_17.28.59.pdbc_plusQ.z58584.zip.xyz.out
 Initial command:
 /home/timn/tmp/g03.e01/l1.exe /home/timn/tmp/g03.e01/Gau-17913.inp -scrdir=/home/timn/tmp/g03.e01/
 Default is to use a total of   2 processors:
                                2 via shared-memory
                                1 via Linda
 Entering Link 1 = /home/timn/tmp/g03.e01/l1.exe PID=     17914.
  
 Copyright (c) 1988,1990,1992,1993,1995,1998,2003,2004,2007, Gaussian, Inc.
                  All Rights Reserved.
  
 This is the Gaussian(R) 03 program.  It is based on the
 the Gaussian(R) 98 system (copyright 1998, Gaussian, Inc.),
 the Gaussian(R) 94 system (copyright 1995, Gaussian, Inc.),
 the Gaussian 92(TM) system (copyright 1992, Gaussian, Inc.),
 the Gaussian 90(TM) system (copyright 1990, Gaussian, Inc.),
 the Gaussian 88(TM) system (copyright 1988, Gaussian, Inc.),
 the Gaussian 86(TM) system (copyright 1986, Carnegie Mellon
 University), and the Gaussian 82(TM) system (copyright 1983,
 Carnegie Mellon University). Gaussian is a federally registered
 trademark of Gaussian, Inc.
  
 This software contains proprietary and confidential information,
 including trade secrets, belonging to Gaussian, Inc.
  
 This software is provided under written license and may be
 used, copied, transmitted, or stored only in accord with that
 written license.
  
 The following legend is applicable only to US Government
 contracts under FAR:
  
                    RESTRICTED RIGHTS LEGEND
  
 Use, reproduction and disclosure by the US Government is
 subject to restrictions as set forth in subparagraphs (a)
 and (c) of the Commercial Computer Software - Restricted
 Rights clause in FAR 52.227-19.
  
 Gaussian, Inc.
 340 Quinnipiac St., Bldg. 40, Wallingford CT 06492
  
  
 ---------------------------------------------------------------
 Warning -- This program may not be used in any manner that
 competes with the business of Gaussian, Inc. or will provide
 assistance to any competitor of Gaussian, Inc.  The licensee
 of this program is prohibited from giving any competitor of
 Gaussian, Inc. access to this program.  By using this program,
 the user acknowledges that Gaussian, Inc. is engaged in the
 business of creating and licensing software in the field of
 computational chemistry and represents and warrants to the
 licensee that it is not a competitor of Gaussian, Inc. and that
 it will not use this program in any manner prohibited above.
 ---------------------------------------------------------------
  

 Cite this work as:
 Gaussian 03, Revision E.01,
 M. J. Frisch, G. W. Trucks, H. B. Schlegel, G. E. Scuseria, 
 M. A. Robb, J. R. Cheeseman, J. A. Montgomery, Jr., T. Vreven, 
 K. N. Kudin, J. C. Burant, J. M. Millam, S. S. Iyengar, J. Tomasi, 
 V. Barone, B. Mennucci, M. Cossi, G. Scalmani, N. Rega, 
 G. A. Petersson, H. Nakatsuji, M. Hada, M. Ehara, K. Toyota, 
 R. Fukuda, J. Hasegawa, M. Ishida, T. Nakajima, Y. Honda, O. Kitao, 
 H. Nakai, M. Klene, X. Li, J. E. Knox, H. P. Hratchian, J. B. Cross, 
 V. Bakken, C. Adamo, J. Jaramillo, R. Gomperts, R. E. Stratmann, 
 O. Yazyev, A. J. Austin, R. Cammi, C. Pomelli, J. W. Ochterski, 
 P. Y. Ayala, K. Morokuma, G. A. Voth, P. Salvador, J. J. Dannenberg, 
 V. G. Zakrzewski, S. Dapprich, A. D. Daniels, M. C. Strain, 
 O. Farkas, D. K. Malick, A. D. Rabuck, K. Raghavachari, 
 J. B. Foresman, J. V. Ortiz, Q. Cui, A. G. Baboul, S. Clifford, 
 J. Cioslowski, B. B. Stefanov, G. Liu, A. Liashenko, P. Piskorz, 
 I. Komaromi, R. L. Martin, D. J. Fox, T. Keith, M. A. Al-Laham, 
 C. Y. Peng, A. Nanayakkara, M. Challacombe, P. M. W. Gill, 
 B. Johnson, W. Chen, M. W. Wong, C. Gonzalez, and J. A. Pople, 
 Gaussian, Inc., Wallingford CT, 2004.
 
 ******************************************
 Gaussian 03:  EM64T-G03RevE.01 11-Sep-2007
                12-Jun-2015 
 ******************************************
 %nproc=2
 Will use up to    2 processors via shared memory.
 Default route:  MP2=Direct MaxDisk=2000MB
 ----------------------------------------------------
 # b3lyp/6-31+G(d,p) int=ultrafine pop=(ReadRadii,MK)
 ----------------------------------------------------

 Warning!  SCF SP cutoffs with diffuse functions may be unreliable.
 Consider SCF=Tight

 1/38=1/1;
 2/17=6,18=5,40=1/2;
 3/5=1,6=6,7=111,11=2,16=1,25=1,30=1,74=-5,75=5/1,2,3;
 4//1;
 5/5=2,32=1,38=5/2;
 6/7=2,8=2,9=2,10=2,15=8,20=101,28=1/1,2;
 99/5=1,9=1/99;
 --------------------------------------
 mol_17.28.59.pdbc_plusQ.z58584.zip.xyz
 --------------------------------------
 Symbolic Z-matrix:
 Charge =  1 Multiplicity = 1
 O                     1.60964  -0.85763  -1.05443 
 O                     2.07557   0.11134   0.03286 
 P                    -0.04369  -1.06926  -1.49378 
 O                    -0.72221  -1.60113  -0.07835 
 O                    -0.65304   0.46723  -1.50633 
 Ca                    0.76459  -0.91302   1.58811 
 O                    -0.48774   0.99529   1.44365 
 Ca                   -2.16551   0.16782   0.25925 
 Ca                    0.7048    1.90109  -0.26198 
 
                          Input orientation:                          
 ---------------------------------------------------------------------
 Center     Atomic     Atomic              Coordinates (Angstroms)
 Number     Number      Type              X           Y           Z
 ---------------------------------------------------------------------
    1          8             0        1.609640   -0.857630   -1.054430
    2          8             0        2.075570    0.111340    0.032860
    3         15             0       -0.043690   -1.069260   -1.493780
    4          8             0       -0.722210   -1.601130   -0.078350
    5          8             0       -0.653040    0.467230   -1.506330
    6         20             0        0.764590   -0.913020    1.588110
    7          8             0       -0.487740    0.995290    1.443650
    8         20             0       -2.165510    0.167820    0.259250
    9         20             0        0.704800    1.901090   -0.261980
 ---------------------------------------------------------------------
                    Distance matrix (angstroms):
                    1          2          3          4          5
     1  O    0.000000
     2  O    1.529115   0.000000
     3  P    1.723750   2.866306   0.000000
     4  O    2.634967   3.282148   1.657322   0.000000
     5  O    2.660674   3.152947   1.652957   2.514364   0.000000
     6  Ca   2.774923   2.277451   3.189949   2.336912   3.672918
     7  O    3.751362   3.056510   3.617740   3.018751   3.001425
     8  Ca   4.126628   4.247494   3.017549   2.307872   2.344032
     9  Ca   3.009526   2.273576   3.301598   3.786241   2.334115
                    6          7          8          9
     6  Ca   0.000000
     7  O    2.287104   0.000000
     8  Ca   3.394049   2.214141   0.000000
     9  Ca   3.368326   2.269757   3.393315   0.000000
 Stoichiometry    Ca3O5P(1+)
 Framework group  C1[X(Ca3O5P)]
 Deg. of freedom    21
 Full point group                 C1
 Largest Abelian subgroup         C1      NOp   1
 Largest concise Abelian subgroup C1      NOp   1
                         Standard orientation:                         
 ---------------------------------------------------------------------
 Center     Atomic     Atomic              Coordinates (Angstroms)
 Number     Number      Type              X           Y           Z
 ---------------------------------------------------------------------
    1          8             0        1.609646   -0.857616   -1.054431
    2          8             0        2.075569    0.111358    0.032859
    3         15             0       -0.043682   -1.069258   -1.493781
    4          8             0       -0.722199   -1.601133   -0.078351
    5          8             0       -0.653043    0.467228   -1.506331
    6         20             0        0.764597   -0.913012    1.588109
    7          8             0       -0.487747    0.995289    1.443649
    8         20             0       -2.165511    0.167807    0.259249
    9         20             0        0.704786    1.901098   -0.261981
 ---------------------------------------------------------------------
 Rotational constants (GHZ):      0.9198230      0.8115514      0.7814968
 Standard basis: 6-31+G(d,p) (6D, 7F)
 There are   199 symmetry adapted basis functions of A   symmetry.
 Integral buffers will be    131072 words long.
 Raffenetti 2 integral format.
 Two-electron integral symmetry is turned on.
   199 basis functions,   456 primitive gaussians,   199 cartesian basis functions
    57 alpha electrons       57 beta electrons
       nuclear repulsion energy      1092.9987344190 Hartrees.
 NAtoms=    9 NActive=    9 NUniq=    9 SFac= 7.50D-01 NAtFMM=   80 NAOKFM=F Big=F
 One-electron integrals computed using PRISM.
 NBasis=   199 RedAO= T  NBF=   199
 NBsUse=   199 1.00D-06 NBFU=   199
 Harris functional with IExCor=  402 diagonalized for initial guess.
 ExpMin= 7.10D-03 ExpMax= 3.53D+04 ExpMxC= 5.30D+03 IAcc=3 IRadAn=         5 AccDes= 0.00D+00
 HarFok:  IExCor= 402 AccDes= 0.00D+00 IRadAn=         5 IDoV=1
 ScaDFX=  1.000000  1.000000  1.000000  1.000000
 Initial guess orbital symmetries:
       Occupied  (A) (A) (A) (A) (A) (A) (A) (A) (A) (A) (A) (A)
                 (A) (A) (A) (A) (A) (A) (A) (A) (A) (A) (A) (A)
                 (A) (A) (A) (A) (A) (A) (A) (A) (A) (A) (A) (A)
                 (A) (A) (A) (A) (A) (A) (A) (A) (A) (A) (A) (A)
                 (A) (A) (A) (A) (A) (A) (A) (A) (A)
       Virtual   (A) (A) (A) (A) (A) (A) (A) (A) (A) (A) (A) (A)
                 (A) (A) (A) (A) (A) (A) (A) (A) (A) (A) (A) (A)
                 (A) (A) (A) (A) (A) (A) (A) (A) (A) (A) (A) (A)
                 (A) (A) (A) (A) (A) (A) (A) (A) (A) (A) (A) (A)
                 (A) (A) (A) (A) (A) (A) (A) (A) (A) (A) (A) (A)
                 (A) (A) (A) (A) (A) (A) (A) (A) (A) (A) (A) (A)
                 (A) (A) (A) (A) (A) (A) (A) (A) (A) (A) (A) (A)
                 (A) (A) (A) (A) (A) (A) (A) (A) (A) (A) (A) (A)
                 (A) (A) (A) (A) (A) (A) (A) (A) (A) (A) (A) (A)
                 (A) (A) (A) (A) (A) (A) (A) (A) (A) (A) (A) (A)
                 (A) (A) (A) (A) (A) (A) (A) (A) (A) (A) (A) (A)
                 (A) (A) (A) (A) (A) (A) (A) (A) (A) (A)
 The electronic state of the initial guess is 1-A.
 Requested convergence on RMS density matrix=1.00D-04 within 128 cycles.
 Requested convergence on MAX density matrix=1.00D-02.
 Requested convergence on             energy=1.00D-02.
 No special actions if energy rises.
 SCF Done:  E(RB+HF-LYP) =  -2750.21031440     A.U. after    9 cycles
             Convg  =    0.4839D-04             -V/T =  2.0029
             S**2   =   0.0000

 **********************************************************************

            Population analysis using the SCF density.

 **********************************************************************

 Orbital symmetries:
       Occupied  (A) (A) (A) (A) (A) (A) (A) (A) (A) (A) (A) (A)
                 (A) (A) (A) (A) (A) (A) (A) (A) (A) (A) (A) (A)
                 (A) (A) (A) (A) (A) (A) (A) (A) (A) (A) (A) (A)
                 (A) (A) (A) (A) (A) (A) (A) (A) (A) (A) (A) (A)
                 (A) (A) (A) (A) (A) (A) (A) (A) (A)
       Virtual   (A) (A) (A) (A) (A) (A) (A) (A) (A) (A) (A) (A)
                 (A) (A) (A) (A) (A) (A) (A) (A) (A) (A) (A) (A)
                 (A) (A) (A) (A) (A) (A) (A) (A) (A) (A) (A) (A)
                 (A) (A) (A) (A) (A) (A) (A) (A) (A) (A) (A) (A)
                 (A) (A) (A) (A) (A) (A) (A) (A) (A) (A) (A) (A)
                 (A) (A) (A) (A) (A) (A) (A) (A) (A) (A) (A) (A)
                 (A) (A) (A) (A) (A) (A) (A) (A) (A) (A) (A) (A)
                 (A) (A) (A) (A) (A) (A) (A) (A) (A) (A) (A) (A)
                 (A) (A) (A) (A) (A) (A) (A) (A) (A) (A) (A) (A)
                 (A) (A) (A) (A) (A) (A) (A) (A) (A) (A) (A) (A)
                 (A) (A) (A) (A) (A) (A) (A) (A) (A) (A) (A) (A)
                 (A) (A) (A) (A) (A) (A) (A) (A) (A) (A)
 The electronic state is 1-A.
 Alpha  occ. eigenvalues -- -145.50881-145.50028-145.49936 -77.26527 -19.28856
 Alpha  occ. eigenvalues --  -19.25486 -19.22979 -19.22663 -19.16498 -15.57715
 Alpha  occ. eigenvalues --  -15.56848 -15.56740 -12.70922 -12.70887 -12.70840
 Alpha  occ. eigenvalues --  -12.70044 -12.70025 -12.69991 -12.69949 -12.69905
 Alpha  occ. eigenvalues --  -12.69890  -6.71659  -4.88078  -4.87949  -4.87427
 Alpha  occ. eigenvalues --   -1.95016  -1.94121  -1.93970  -1.23108  -1.22765
 Alpha  occ. eigenvalues --   -1.22411  -1.22265  -1.21648  -1.21546  -1.21332
 Alpha  occ. eigenvalues --   -1.21271  -1.20946  -1.13422  -1.06910  -1.02253
 Alpha  occ. eigenvalues --   -0.93470  -0.91462  -0.65034  -0.55683  -0.52562
 Alpha  occ. eigenvalues --   -0.51447  -0.48221  -0.46986  -0.44110  -0.42125
 Alpha  occ. eigenvalues --   -0.39438  -0.38415  -0.36807  -0.36109  -0.35852
 Alpha  occ. eigenvalues --   -0.35064  -0.32611
 Alpha virt. eigenvalues --   -0.20668  -0.18365  -0.17721  -0.13894  -0.12895
 Alpha virt. eigenvalues --   -0.11290  -0.10810  -0.09497  -0.09162  -0.08164
 Alpha virt. eigenvalues --   -0.07388  -0.06424  -0.06166  -0.05861  -0.04923
 Alpha virt. eigenvalues --   -0.04900  -0.04857  -0.04709  -0.04365  -0.04031
 Alpha virt. eigenvalues --   -0.03911  -0.03688  -0.03226  -0.03053  -0.02632
 Alpha virt. eigenvalues --   -0.02068  -0.01842  -0.00646   0.01035   0.01789
 Alpha virt. eigenvalues --    0.01849   0.02607   0.03606   0.04034   0.04390
 Alpha virt. eigenvalues --    0.05343   0.05876   0.05944   0.06124   0.06296
 Alpha virt. eigenvalues --    0.06885   0.07184   0.07250   0.07491   0.08023
 Alpha virt. eigenvalues --    0.09583   0.09891   0.10418   0.10888   0.11533
 Alpha virt. eigenvalues --    0.12690   0.14039   0.15033   0.15629   0.17018
 Alpha virt. eigenvalues --    0.19381   0.20490   0.20783   0.21239   0.22550
 Alpha virt. eigenvalues --    0.23417   0.23788   0.24487   0.25279   0.26109
 Alpha virt. eigenvalues --    0.27641   0.30133   0.32085   0.32808   0.34326
 Alpha virt. eigenvalues --    0.34602   0.35442   0.36773   0.38298   0.38832
 Alpha virt. eigenvalues --    0.39366   0.42815   0.44205   0.46614   0.51295
 Alpha virt. eigenvalues --    0.53873   0.59639   0.61794   0.62311   0.65589
 Alpha virt. eigenvalues --    0.79438   0.85677   0.87374   0.91626   0.95448
 Alpha virt. eigenvalues --    1.10615   1.12396   1.13552   1.15091   1.16370
 Alpha virt. eigenvalues --    1.18491   1.19165   1.20641   1.21578   1.22967
 Alpha virt. eigenvalues --    1.23604   1.25341   1.26709   1.31760   1.32447
 Alpha virt. eigenvalues --    1.38583   1.49139   1.51702   1.55143   1.58247
 Alpha virt. eigenvalues --    1.61575   1.67510   1.69440   1.70271   1.71692
 Alpha virt. eigenvalues --    1.76385   1.78235   1.79711   1.84607   1.85912
 Alpha virt. eigenvalues --    1.87468   1.89124   1.90663   1.92535   1.93431
 Alpha virt. eigenvalues --    1.95851   1.96801   1.99187   2.01825   2.09450
 Alpha virt. eigenvalues --    2.16361   2.20157   2.35765   2.51834   2.57560
 Alpha virt. eigenvalues --    3.05978   3.51510   4.01412   4.10458   4.14276
 Alpha virt. eigenvalues --    4.21593   4.37002
          Condensed to atoms (all electrons):
              1          2          3          4          5          6
     1  O    8.619698  -0.072923  -0.144992   0.023766   0.027845  -0.016540
     2  O   -0.072923   8.463418   0.029490   0.013439   0.003975   0.101162
     3  P   -0.144992   0.029490  14.375109  -0.146093  -0.124893   0.025681
     4  O    0.023766   0.013439  -0.146093   8.959529   0.029994   0.044059
     5  O    0.027845   0.003975  -0.124893   0.029994   8.961310   0.006050
     6  Ca  -0.016540   0.101162   0.025681   0.044059   0.006050  18.352130
     7  O   -0.012719   0.023851  -0.024304   0.024053   0.018599   0.114467
     8  Ca   0.059360  -0.022205  -0.055263   0.089676   0.088202  -0.062882
     9  Ca  -0.028024   0.106286   0.007369   0.006225   0.034310  -0.039584
              7          8          9
     1  O   -0.012719   0.059360  -0.028024
     2  O    0.023851  -0.022205   0.106286
     3  P   -0.024304  -0.055263   0.007369
     4  O    0.024053   0.089676   0.006225
     5  O    0.018599   0.088202   0.034310
     6  Ca   0.114467  -0.062882  -0.039584
     7  O    8.843750   0.143642   0.121138
     8  Ca   0.143642  18.397112  -0.055665
     9  Ca   0.121138  -0.055665  18.354841
 Mulliken atomic charges:
              1
     1  O   -0.455471
     2  O   -0.646493
     3  P    1.057896
     4  O   -1.044648
     5  O   -1.045392
     6  Ca   1.475456
     7  O   -1.252476
     8  Ca   1.418024
     9  Ca   1.493104
 Sum of Mulliken charges=   1.00000
 Atomic charges with hydrogens summed into heavy atoms:
              1
     1  O   -0.455471
     2  O   -0.646493
     3  P    1.057896
     4  O   -1.044648
     5  O   -1.045392
     6  Ca   1.475456
     7  O   -1.252476
     8  Ca   1.418024
     9  Ca   1.493104
 Sum of Mulliken charges=   1.00000
 Electronic spatial extent (au):  <R**2>=  1757.0440
 Charge=     1.0000 electrons
 Dipole moment (field-independent basis, Debye):
    X=    -5.1089    Y=     5.0364    Z=     6.5039  Tot=     9.6833
 Quadrupole moment (field-independent basis, Debye-Ang):
   XX=   -52.5773   YY=   -57.2472   ZZ=   -75.8709
   XY=     3.8588   XZ=     7.1860   YZ=   -22.2604
 Traceless Quadrupole moment (field-independent basis, Debye-Ang):
   XX=     9.3211   YY=     4.6513   ZZ=   -13.9724
   XY=     3.8588   XZ=     7.1860   YZ=   -22.2604
 Octapole moment (field-independent basis, Debye-Ang**2):
  XXX=  -118.5225  YYY=    77.1715  ZZZ=    48.8152  XYY=    35.2415
  XXY=    17.4479  XXZ=    26.9008  XZZ=    24.8313  YZZ=   -30.9933
  YYZ=     3.4006  XYZ=   -12.7574
 Hexadecapole moment (field-independent basis, Debye-Ang**3):
 XXXX=  -585.8110 YYYY=  -514.6463 ZZZZ=  -639.6544 XXXY=    -3.8510
 XXXZ=     1.0050 YYYX=    36.8349 YYYZ=   -93.9957 ZZZX=    44.2274
 ZZZY=  -109.7378 XXYY=  -207.5156 XXZZ=  -218.3766 YYZZ=  -208.4530
 XXYZ=   -29.7448 YYXZ=    14.6963 ZZXY=     2.6999
 N-N= 1.092998734419D+03 E-N=-8.686856632840D+03  KE= 2.742214177480D+03
 Merz-Kollman atomic radii used.
 Read replacement radii for each type of atom:
 Rad(20) =   1.188000000000D+00
 Atom Element Radius
    1     8    1.40
    2     8    1.40
    3    15    1.80
    4     8    1.40
    5     8    1.40
    6    20    1.19
    7     8    1.40
    8    20    1.19
    9    20    1.19

 **********************************************************************

            Electrostatic Properties Using The SCF Density

 **********************************************************************

       Atomic Center    1 is at   1.609646 -0.857616 -1.054431
       Atomic Center    2 is at   2.075569  0.111358  0.032859
       Atomic Center    3 is at  -0.043682 -1.069258 -1.493781
       Atomic Center    4 is at  -0.722199 -1.601133 -0.078351
       Atomic Center    5 is at  -0.653043  0.467228 -1.506331
       Atomic Center    6 is at   0.764597 -0.913012  1.588109
       Atomic Center    7 is at  -0.487747  0.995289  1.443649
       Atomic Center    8 is at  -2.165511  0.167807  0.259249
       Atomic Center    9 is at   0.704786  1.901098 -0.261981
     724 points will be used for fitting atomic charges
 Fitting point charges to eletrostatic potential
 Charges from ESP fit, RMS=   0.00507 RRMS=   0.03173:
 Charge=   1.00000 Dipole=    -5.1593     5.0836     6.5955 Tot=     9.7960
              1
     1  O   -0.256913
     2  O   -0.758462
     3  P    0.422229
     4  O   -0.922073
     5  O   -0.902373
     6  Ca   1.694996
     7  O   -1.630993
     8  Ca   1.664705
     9  Ca   1.688886
 -----------------------------------------------------------------

              Electrostatic Properties (Atomic Units)

 -----------------------------------------------------------------
    Center     Electric         -------- Electric Field --------
               Potential          X             Y             Z
 -----------------------------------------------------------------
    1 Atom    -22.184768
    2 Atom    -22.214932
    3 Atom    -53.949282
    4 Atom    -22.235833
    5 Atom    -22.233147
    6 Atom    -80.041294
    7 Atom    -22.298653
    8 Atom    -80.032138
    9 Atom    -80.040632
 -----------------------------------------------------------------
 1\1\GINC-N028\SP\RB3LYP\6-31+G(d,p)\Ca3O5P1(1+)\TIMN\12-Jun-2015\0\\# 
 b3lyp/6-31+G(d,p) int=ultrafine pop=(ReadRadii,MK)\\mol_17.28.59.pdbc_
 plusQ.z58584.zip.xyz\\1,1\O,0,1.60964,-0.85763,-1.05443\O,0,2.07557,0.
 11134,0.03286\P,0,-0.04369,-1.06926,-1.49378\O,0,-0.72221,-1.60113,-0.
 07835\O,0,-0.65304,0.46723,-1.50633\Ca,0,0.76459,-0.91302,1.58811\O,0,
 -0.48774,0.99529,1.44365\Ca,0,-2.16551,0.16782,0.25925\Ca,0,0.7048,1.9
 0109,-0.26198\\Version=EM64T-G03RevE.01\State=1-A\HF=-2750.2103144\RMS
 D=4.839e-05\Thermal=0.\Dipole=-2.0099978,1.9814879,2.5588285\PG=C01 [X
 (Ca3O5P1)]\\@


 HOW IS IT THAT THE SKY FEEDS THE STARS?

                           -- LUCRETIUS
 Job cpu time:  0 days  0 hours  2 minutes 28.6 seconds.
 File lengths (MBytes):  RWF=     36 Int=      0 D2E=      0 Chk=     11 Scr=      1
 Normal termination of Gaussian 03 at Fri Jun 12 18:11:26 2015.
