 Entering Gaussian System, Link 0=/home/timn/tmp/g03.e01/g03
 Input=mol_17.28.44.pdbcccc_plusQ.z58568.zip.xyz.gjf
 Output=mol_17.28.44.pdbcccc_plusQ.z58568.zip.xyz.out
 Initial command:
 /home/timn/tmp/g03.e01/l1.exe /home/timn/tmp/g03.e01/Gau-17867.inp -scrdir=/home/timn/tmp/g03.e01/
 Default is to use a total of   2 processors:
                                2 via shared-memory
                                1 via Linda
 Entering Link 1 = /home/timn/tmp/g03.e01/l1.exe PID=     17868.
  
 Copyright (c) 1988,1990,1992,1993,1995,1998,2003,2004,2007, Gaussian, Inc.
                  All Rights Reserved.
  
 This is the Gaussian(R) 03 program.  It is based on the
 the Gaussian(R) 98 system (copyright 1998, Gaussian, Inc.),
 the Gaussian(R) 94 system (copyright 1995, Gaussian, Inc.),
 the Gaussian 92(TM) system (copyright 1992, Gaussian, Inc.),
 the Gaussian 90(TM) system (copyright 1990, Gaussian, Inc.),
 the Gaussian 88(TM) system (copyright 1988, Gaussian, Inc.),
 the Gaussian 86(TM) system (copyright 1986, Carnegie Mellon
 University), and the Gaussian 82(TM) system (copyright 1983,
 Carnegie Mellon University). Gaussian is a federally registered
 trademark of Gaussian, Inc.
  
 This software contains proprietary and confidential information,
 including trade secrets, belonging to Gaussian, Inc.
  
 This software is provided under written license and may be
 used, copied, transmitted, or stored only in accord with that
 written license.
  
 The following legend is applicable only to US Government
 contracts under FAR:
  
                    RESTRICTED RIGHTS LEGEND
  
 Use, reproduction and disclosure by the US Government is
 subject to restrictions as set forth in subparagraphs (a)
 and (c) of the Commercial Computer Software - Restricted
 Rights clause in FAR 52.227-19.
  
 Gaussian, Inc.
 340 Quinnipiac St., Bldg. 40, Wallingford CT 06492
  
  
 ---------------------------------------------------------------
 Warning -- This program may not be used in any manner that
 competes with the business of Gaussian, Inc. or will provide
 assistance to any competitor of Gaussian, Inc.  The licensee
 of this program is prohibited from giving any competitor of
 Gaussian, Inc. access to this program.  By using this program,
 the user acknowledges that Gaussian, Inc. is engaged in the
 business of creating and licensing software in the field of
 computational chemistry and represents and warrants to the
 licensee that it is not a competitor of Gaussian, Inc. and that
 it will not use this program in any manner prohibited above.
 ---------------------------------------------------------------
  

 Cite this work as:
 Gaussian 03, Revision E.01,
 M. J. Frisch, G. W. Trucks, H. B. Schlegel, G. E. Scuseria, 
 M. A. Robb, J. R. Cheeseman, J. A. Montgomery, Jr., T. Vreven, 
 K. N. Kudin, J. C. Burant, J. M. Millam, S. S. Iyengar, J. Tomasi, 
 V. Barone, B. Mennucci, M. Cossi, G. Scalmani, N. Rega, 
 G. A. Petersson, H. Nakatsuji, M. Hada, M. Ehara, K. Toyota, 
 R. Fukuda, J. Hasegawa, M. Ishida, T. Nakajima, Y. Honda, O. Kitao, 
 H. Nakai, M. Klene, X. Li, J. E. Knox, H. P. Hratchian, J. B. Cross, 
 V. Bakken, C. Adamo, J. Jaramillo, R. Gomperts, R. E. Stratmann, 
 O. Yazyev, A. J. Austin, R. Cammi, C. Pomelli, J. W. Ochterski, 
 P. Y. Ayala, K. Morokuma, G. A. Voth, P. Salvador, J. J. Dannenberg, 
 V. G. Zakrzewski, S. Dapprich, A. D. Daniels, M. C. Strain, 
 O. Farkas, D. K. Malick, A. D. Rabuck, K. Raghavachari, 
 J. B. Foresman, J. V. Ortiz, Q. Cui, A. G. Baboul, S. Clifford, 
 J. Cioslowski, B. B. Stefanov, G. Liu, A. Liashenko, P. Piskorz, 
 I. Komaromi, R. L. Martin, D. J. Fox, T. Keith, M. A. Al-Laham, 
 C. Y. Peng, A. Nanayakkara, M. Challacombe, P. M. W. Gill, 
 B. Johnson, W. Chen, M. W. Wong, C. Gonzalez, and J. A. Pople, 
 Gaussian, Inc., Wallingford CT, 2004.
 
 ******************************************
 Gaussian 03:  EM64T-G03RevE.01 11-Sep-2007
                12-Jun-2015 
 ******************************************
 %nproc=2
 Will use up to    2 processors via shared memory.
 Default route:  MP2=Direct MaxDisk=2000MB
 ----------------------------------------------------
 # b3lyp/6-31+G(d,p) int=ultrafine pop=(ReadRadii,MK)
 ----------------------------------------------------

 Warning!  SCF SP cutoffs with diffuse functions may be unreliable.
 Consider SCF=Tight

 1/38=1/1;
 2/17=6,18=5,40=1/2;
 3/5=1,6=6,7=111,11=2,16=1,25=1,30=1,74=-5,75=5/1,2,3;
 4//1;
 5/5=2,32=1,38=5/2;
 6/7=2,8=2,9=2,10=2,15=8,20=101,28=1/1,2;
 99/5=1,9=1/99;
 -----------------------------------------
 mol_17.28.44.pdbcccc_plusQ.z58568.zip.xyz
 -----------------------------------------
 Symbolic Z-matrix:
 Charge =  1 Multiplicity = 1
 O                     2.53259   0.3406    0.98075 
 O                     0.56817   1.29003  -0.24751 
 P                     1.01626   0.64092   1.22841 
 Ca                   -1.65029   1.88516  -0.27319 
 Ca                    2.15113  -0.2301   -1.16334 
 O                     0.29671  -1.00118   0.97022 
 O                     0.53412  -1.67126  -0.39369 
 Ca                   -1.7372   -1.74985   0.12209 
 O                    -2.74621   0.07705  -0.32692 
 
                          Input orientation:                          
 ---------------------------------------------------------------------
 Center     Atomic     Atomic              Coordinates (Angstroms)
 Number     Number      Type              X           Y           Z
 ---------------------------------------------------------------------
    1          8             0        2.532590    0.340600    0.980750
    2          8             0        0.568170    1.290030   -0.247510
    3         15             0        1.016260    0.640920    1.228410
    4         20             0       -1.650290    1.885160   -0.273190
    5         20             0        2.151130   -0.230100   -1.163340
    6          8             0        0.296710   -1.001180    0.970220
    7          8             0        0.534120   -1.671260   -0.393690
    8         20             0       -1.737200   -1.749850    0.122090
    9          8             0       -2.746210    0.077050   -0.326920
 ---------------------------------------------------------------------
                    Distance matrix (angstroms):
                    1          2          3          4          5
     1  O    0.000000
     2  O    2.503794   0.000000
     3  P    1.565498   1.673460   0.000000
     4  Ca   4.631902   2.297042   3.303547   0.000000
     5  Ca   2.251296   2.378088   2.786947   4.440438   0.000000
     6  O    2.607613   2.608870   1.811327   3.697004   2.930105
     7  O    3.151277   2.965091   2.865282   4.175439   2.298701
     8  Ca   4.830982   3.833041   3.810678   3.657471   4.368190
     9  O    5.444740   3.530261   4.110132   2.114992   4.977738
                    6          7          8          9
     6  O    0.000000
     7  O    1.538058   0.000000
     8  Ca   2.327364   2.330472   0.000000
     9  O    3.479154   3.717743   2.134777   0.000000
 Stoichiometry    Ca3O5P(1+)
 Framework group  C1[X(Ca3O5P)]
 Deg. of freedom    21
 Full point group                 C1
 Largest Abelian subgroup         C1      NOp   1
 Largest concise Abelian subgroup C1      NOp   1
                         Standard orientation:                         
 ---------------------------------------------------------------------
 Center     Atomic     Atomic              Coordinates (Angstroms)
 Number     Number      Type              X           Y           Z
 ---------------------------------------------------------------------
    1          8             0        2.532593    0.340598    0.980749
    2          8             0        0.568174    1.290030   -0.247511
    3         15             0        1.016263    0.640920    1.228409
    4         20             0       -1.650286    1.885163   -0.273191
    5         20             0        2.151132   -0.230102   -1.163341
    6          8             0        0.296711   -1.001180    0.970219
    7          8             0        0.534120   -1.671260   -0.393691
    8         20             0       -1.737200   -1.749847    0.122089
    9          8             0       -2.746208    0.077054   -0.326921
 ---------------------------------------------------------------------
 Rotational constants (GHZ):      0.9938639      0.6157889      0.4816787
 Standard basis: 6-31+G(d,p) (6D, 7F)
 There are   199 symmetry adapted basis functions of A   symmetry.
 Integral buffers will be    131072 words long.
 Raffenetti 2 integral format.
 Two-electron integral symmetry is turned on.
   199 basis functions,   456 primitive gaussians,   199 cartesian basis functions
    57 alpha electrons       57 beta electrons
       nuclear repulsion energy      1016.4890013870 Hartrees.
 NAtoms=    9 NActive=    9 NUniq=    9 SFac= 7.50D-01 NAtFMM=   80 NAOKFM=F Big=F
 One-electron integrals computed using PRISM.
 NBasis=   199 RedAO= T  NBF=   199
 NBsUse=   199 1.00D-06 NBFU=   199
 Harris functional with IExCor=  402 diagonalized for initial guess.
 ExpMin= 7.10D-03 ExpMax= 3.53D+04 ExpMxC= 5.30D+03 IAcc=3 IRadAn=         5 AccDes= 0.00D+00
 HarFok:  IExCor= 402 AccDes= 0.00D+00 IRadAn=         5 IDoV=1
 ScaDFX=  1.000000  1.000000  1.000000  1.000000
 Initial guess orbital symmetries:
       Occupied  (A) (A) (A) (A) (A) (A) (A) (A) (A) (A) (A) (A)
                 (A) (A) (A) (A) (A) (A) (A) (A) (A) (A) (A) (A)
                 (A) (A) (A) (A) (A) (A) (A) (A) (A) (A) (A) (A)
                 (A) (A) (A) (A) (A) (A) (A) (A) (A) (A) (A) (A)
                 (A) (A) (A) (A) (A) (A) (A) (A) (A)
       Virtual   (A) (A) (A) (A) (A) (A) (A) (A) (A) (A) (A) (A)
                 (A) (A) (A) (A) (A) (A) (A) (A) (A) (A) (A) (A)
                 (A) (A) (A) (A) (A) (A) (A) (A) (A) (A) (A) (A)
                 (A) (A) (A) (A) (A) (A) (A) (A) (A) (A) (A) (A)
                 (A) (A) (A) (A) (A) (A) (A) (A) (A) (A) (A) (A)
                 (A) (A) (A) (A) (A) (A) (A) (A) (A) (A) (A) (A)
                 (A) (A) (A) (A) (A) (A) (A) (A) (A) (A) (A) (A)
                 (A) (A) (A) (A) (A) (A) (A) (A) (A) (A) (A) (A)
                 (A) (A) (A) (A) (A) (A) (A) (A) (A) (A) (A) (A)
                 (A) (A) (A) (A) (A) (A) (A) (A) (A) (A) (A) (A)
                 (A) (A) (A) (A) (A) (A) (A) (A) (A) (A) (A) (A)
                 (A) (A) (A) (A) (A) (A) (A) (A) (A) (A)
 The electronic state of the initial guess is 1-A.
 Requested convergence on RMS density matrix=1.00D-04 within 128 cycles.
 Requested convergence on MAX density matrix=1.00D-02.
 Requested convergence on             energy=1.00D-02.
 No special actions if energy rises.
 EnCoef did     4 forward-backward iterations
 SCF Done:  E(RB+HF-LYP) =  -2750.16692585     A.U. after    9 cycles
             Convg  =    0.7227D-04             -V/T =  2.0029
             S**2   =   0.0000

 **********************************************************************

            Population analysis using the SCF density.

 **********************************************************************

 Orbital symmetries:
       Occupied  (A) (A) (A) (A) (A) (A) (A) (A) (A) (A) (A) (A)
                 (A) (A) (A) (A) (A) (A) (A) (A) (A) (A) (A) (A)
                 (A) (A) (A) (A) (A) (A) (A) (A) (A) (A) (A) (A)
                 (A) (A) (A) (A) (A) (A) (A) (A) (A) (A) (A) (A)
                 (A) (A) (A) (A) (A) (A) (A) (A) (A)
       Virtual   (A) (A) (A) (A) (A) (A) (A) (A) (A) (A) (A) (A)
                 (A) (A) (A) (A) (A) (A) (A) (A) (A) (A) (A) (A)
                 (A) (A) (A) (A) (A) (A) (A) (A) (A) (A) (A) (A)
                 (A) (A) (A) (A) (A) (A) (A) (A) (A) (A) (A) (A)
                 (A) (A) (A) (A) (A) (A) (A) (A) (A) (A) (A) (A)
                 (A) (A) (A) (A) (A) (A) (A) (A) (A) (A) (A) (A)
                 (A) (A) (A) (A) (A) (A) (A) (A) (A) (A) (A) (A)
                 (A) (A) (A) (A) (A) (A) (A) (A) (A) (A) (A) (A)
                 (A) (A) (A) (A) (A) (A) (A) (A) (A) (A) (A) (A)
                 (A) (A) (A) (A) (A) (A) (A) (A) (A) (A) (A) (A)
                 (A) (A) (A) (A) (A) (A) (A) (A) (A) (A) (A) (A)
                 (A) (A) (A) (A) (A) (A) (A) (A) (A) (A)
 The electronic state is 1-A.
 Alpha  occ. eigenvalues -- -145.52694-145.49232-145.47395 -77.26191 -19.29373
 Alpha  occ. eigenvalues --  -19.26769 -19.23289 -19.20686 -19.12340 -15.59500
 Alpha  occ. eigenvalues --  -15.56126 -15.54294 -12.72695 -12.72690 -12.72641
 Alpha  occ. eigenvalues --  -12.69381 -12.69309 -12.69184 -12.67526 -12.67497
 Alpha  occ. eigenvalues --  -12.67360  -6.71453  -4.87898  -4.87729  -4.87244
 Alpha  occ. eigenvalues --   -1.96609  -1.93372  -1.91590  -1.24639  -1.23981
 Alpha  occ. eigenvalues --   -1.23903  -1.21269  -1.20945  -1.20300  -1.20005
 Alpha  occ. eigenvalues --   -1.19356  -1.18642  -1.12933  -1.06886  -1.01982
 Alpha  occ. eigenvalues --   -0.93281  -0.86557  -0.64624  -0.55149  -0.52555
 Alpha  occ. eigenvalues --   -0.51121  -0.48251  -0.47847  -0.43066  -0.40582
 Alpha  occ. eigenvalues --   -0.39647  -0.37838  -0.35835  -0.33999  -0.32601
 Alpha  occ. eigenvalues --   -0.30760  -0.30655
 Alpha virt. eigenvalues --   -0.20594  -0.18571  -0.16507  -0.14574  -0.12514
 Alpha virt. eigenvalues --   -0.10784  -0.10584  -0.08948  -0.08730  -0.08212
 Alpha virt. eigenvalues --   -0.07324  -0.07082  -0.06620  -0.05807  -0.05409
 Alpha virt. eigenvalues --   -0.04999  -0.04827  -0.04629  -0.04424  -0.04021
 Alpha virt. eigenvalues --   -0.03978  -0.03771  -0.03438  -0.03147  -0.02947
 Alpha virt. eigenvalues --   -0.02829  -0.02531  -0.01041   0.00284   0.00872
 Alpha virt. eigenvalues --    0.02243   0.03261   0.03587   0.04036   0.04374
 Alpha virt. eigenvalues --    0.04890   0.05164   0.05600   0.05682   0.06672
 Alpha virt. eigenvalues --    0.07301   0.07684   0.08094   0.08250   0.08610
 Alpha virt. eigenvalues --    0.09249   0.09551   0.10480   0.10958   0.11159
 Alpha virt. eigenvalues --    0.12135   0.13465   0.14250   0.15776   0.16552
 Alpha virt. eigenvalues --    0.17870   0.19242   0.20336   0.20584   0.21999
 Alpha virt. eigenvalues --    0.23120   0.23462   0.24010   0.25925   0.26745
 Alpha virt. eigenvalues --    0.27085   0.28068   0.29140   0.30706   0.32883
 Alpha virt. eigenvalues --    0.33903   0.35239   0.36275   0.38109   0.38718
 Alpha virt. eigenvalues --    0.40765   0.41893   0.45642   0.46873   0.52178
 Alpha virt. eigenvalues --    0.55733   0.57454   0.62395   0.64269   0.67708
 Alpha virt. eigenvalues --    0.72697   0.78235   0.85343   0.91135   0.92717
 Alpha virt. eigenvalues --    0.96155   1.07612   1.12728   1.15053   1.16203
 Alpha virt. eigenvalues --    1.16979   1.17686   1.18413   1.19597   1.21123
 Alpha virt. eigenvalues --    1.23834   1.23973   1.26342   1.26907   1.28667
 Alpha virt. eigenvalues --    1.31346   1.44163   1.47598   1.52182   1.53049
 Alpha virt. eigenvalues --    1.56893   1.68268   1.70176   1.73020   1.74648
 Alpha virt. eigenvalues --    1.76563   1.78354   1.80349   1.82109   1.83566
 Alpha virt. eigenvalues --    1.84818   1.85340   1.87849   1.89469   1.90986
 Alpha virt. eigenvalues --    1.95425   1.96712   1.99107   2.02910   2.05286
 Alpha virt. eigenvalues --    2.17285   2.19286   2.27865   2.48032   2.69678
 Alpha virt. eigenvalues --    3.04742   3.49678   3.97378   4.01456   4.06728
 Alpha virt. eigenvalues --    4.17852   4.25624
          Condensed to atoms (all electrons):
              1          2          3          4          5          6
     1  O    8.624320  -0.000342   0.113204   0.015000   0.104042   0.008732
     2  O   -0.000342   9.035445  -0.223954   0.091430   0.021931   0.082021
     3  P    0.113204  -0.223954  14.431248  -0.022759   0.094759  -0.338511
     4  Ca   0.015000   0.091430  -0.022759  18.298082  -0.013453   0.027200
     5  Ca   0.104042   0.021931   0.094759  -0.013453  18.286492  -0.048879
     6  O    0.008732   0.082021  -0.338511   0.027200  -0.048879   8.883189
     7  O    0.020194  -0.013875   0.031052  -0.005466   0.123436  -0.192817
     8  Ca   0.005299   0.011201  -0.037820  -0.017946  -0.014256   0.043457
     9  O    0.001091  -0.004270  -0.005794   0.238057   0.000550  -0.000145
              7          8          9
     1  O    0.020194   0.005299   0.001091
     2  O   -0.013875   0.011201  -0.004270
     3  P    0.031052  -0.037820  -0.005794
     4  Ca  -0.005466  -0.017946   0.238057
     5  Ca   0.123436  -0.014256   0.000550
     6  O   -0.192817   0.043457  -0.000145
     7  O    8.649454   0.077040  -0.000469
     8  Ca   0.077040  18.292950   0.203153
     9  O   -0.000469   0.203153   8.754637
 Mulliken atomic charges:
              1
     1  O   -0.891539
     2  O   -0.999587
     3  P    0.958575
     4  Ca   1.389855
     5  Ca   1.445378
     6  O   -0.464246
     7  O   -0.688548
     8  Ca   1.436922
     9  O   -1.186810
 Sum of Mulliken charges=   1.00000
 Atomic charges with hydrogens summed into heavy atoms:
              1
     1  O   -0.891539
     2  O   -0.999587
     3  P    0.958575
     4  Ca   1.389855
     5  Ca   1.445378
     6  O   -0.464246
     7  O   -0.688548
     8  Ca   1.436922
     9  O   -1.186810
 Sum of Mulliken charges=   1.00000
 Electronic spatial extent (au):  <R**2>=  2250.1549
 Charge=     1.0000 electrons
 Dipole moment (field-independent basis, Debye):
    X=    -0.3769    Y=     0.4507    Z=    -8.0695  Tot=     8.0909
 Quadrupole moment (field-independent basis, Debye-Ang):
   XX=   -66.3050   YY=   -40.7366   ZZ=   -68.4421
   XY=    -3.5116   XZ=   -27.7483   YZ=    -2.6100
 Traceless Quadrupole moment (field-independent basis, Debye-Ang):
   XX=    -7.8104   YY=    17.7580   ZZ=    -9.9475
   XY=    -3.5116   XZ=   -27.7483   YZ=    -2.6100
 Octapole moment (field-independent basis, Debye-Ang**2):
  XXX=    86.9216  YYY=    13.7316  ZZZ=   -42.7717  XYY=  -102.1092
  XXY=   -22.4103  XXZ=   -54.1849  XZZ=    21.4516  YZZ=    -3.5407
  YYZ=    -9.4996  XYZ=    14.6597
 Hexadecapole moment (field-independent basis, Debye-Ang**3):
 XXXX= -1621.8698 YYYY=  -553.5955 ZZZZ=  -354.5396 XXXY=   -26.3166
 XXXZ=  -242.2117 YYYX=   -16.9950 YYYZ=   -32.0850 ZZZX=   -88.2717
 ZZZY=   -13.4181 XXYY=  -190.9436 XXZZ=  -255.3416 YYZZ=  -175.2564
 XXYZ=   -12.1412 YYXZ=    -8.2073 ZZXY=   -10.6681
 N-N= 1.016489001387D+03 E-N=-8.534513910996D+03  KE= 2.742187699768D+03
 Merz-Kollman atomic radii used.
 Read replacement radii for each type of atom:
 Rad(20) =   1.188000000000D+00
 Atom Element Radius
    1     8    1.40
    2     8    1.40
    3    15    1.80
    4    20    1.19
    5    20    1.19
    6     8    1.40
    7     8    1.40
    8    20    1.19
    9     8    1.40

 **********************************************************************

            Electrostatic Properties Using The SCF Density

 **********************************************************************

       Atomic Center    1 is at   2.532593  0.340598  0.980749
       Atomic Center    2 is at   0.568174  1.290030 -0.247511
       Atomic Center    3 is at   1.016263  0.640920  1.228409
       Atomic Center    4 is at  -1.650286  1.885163 -0.273191
       Atomic Center    5 is at   2.151132 -0.230102 -1.163341
       Atomic Center    6 is at   0.296711 -1.001180  0.970219
       Atomic Center    7 is at   0.534120 -1.671260 -0.393691
       Atomic Center    8 is at  -1.737200 -1.749847  0.122089
       Atomic Center    9 is at  -2.746208  0.077054 -0.326921
     774 points will be used for fitting atomic charges
 Fitting point charges to eletrostatic potential
 Charges from ESP fit, RMS=   0.00668 RRMS=   0.04322:
 Charge=   1.00000 Dipole=    -0.3383     0.5014    -8.1125 Tot=     8.1351
              1
     1  O   -0.555053
     2  O   -1.041913
     3  P    0.303392
     4  Ca   1.681409
     5  Ca   1.673727
     6  O   -0.404428
     7  O   -0.789668
     8  Ca   1.683924
     9  O   -1.551390
 -----------------------------------------------------------------

              Electrostatic Properties (Atomic Units)

 -----------------------------------------------------------------
    Center     Electric         -------- Electric Field --------
               Potential          X             Y             Z
 -----------------------------------------------------------------
    1 Atom    -22.254676
    2 Atom    -22.234959
    3 Atom    -53.952346
    4 Atom    -80.049472
    5 Atom    -80.014161
    6 Atom    -22.176099
    7 Atom    -22.200736
    8 Atom    -80.067000
    9 Atom    -22.338279
 -----------------------------------------------------------------
 1\1\GINC-N028\SP\RB3LYP\6-31+G(d,p)\Ca3O5P1(1+)\TIMN\12-Jun-2015\0\\# 
 b3lyp/6-31+G(d,p) int=ultrafine pop=(ReadRadii,MK)\\mol_17.28.44.pdbcc
 cc_plusQ.z58568.zip.xyz\\1,1\O,0,2.53259,0.3406,0.98075\O,0,0.56817,1.
 29003,-0.24751\P,0,1.01626,0.64092,1.22841\Ca,0,-1.65029,1.88516,-0.27
 319\Ca,0,2.15113,-0.2301,-1.16334\O,0,0.29671,-1.00118,0.97022\O,0,0.5
 3412,-1.67126,-0.39369\Ca,0,-1.7372,-1.74985,0.12209\O,0,-2.74621,0.07
 705,-0.32692\\Version=EM64T-G03RevE.01\State=1-A\HF=-2750.1669258\RMSD
 =7.227e-05\Thermal=0.\Dipole=-0.1483006,0.1773155,-3.1747862\PG=C01 [X
 (Ca3O5P1)]\\@


 MANHOOD BEGINS BY TRYING TO SHAVE FACE,
 AND ENDS BY TRYING TO SAVE FACE.
 Job cpu time:  0 days  0 hours  2 minutes 21.4 seconds.
 File lengths (MBytes):  RWF=     36 Int=      0 D2E=      0 Chk=     11 Scr=      1
 Normal termination of Gaussian 03 at Fri Jun 12 18:10:23 2015.
