 Entering Gaussian System, Link 0=/home/timn/tmp/g03.e01/g03
 Input=mol_16.4.9.pdb_plusQ.out.z51614.zip.xyz.gjf
 Output=mol_16.4.9.pdb_plusQ.out.z51614.zip.xyz.out
 Initial command:
 /home/timn/tmp/g03.e01/l1.exe /home/timn/tmp/g03.e01/Gau-17892.inp -scrdir=/home/timn/tmp/g03.e01/
 Default is to use a total of   2 processors:
                                2 via shared-memory
                                1 via Linda
 Entering Link 1 = /home/timn/tmp/g03.e01/l1.exe PID=     17893.
  
 Copyright (c) 1988,1990,1992,1993,1995,1998,2003,2004,2007, Gaussian, Inc.
                  All Rights Reserved.
  
 This is the Gaussian(R) 03 program.  It is based on the
 the Gaussian(R) 98 system (copyright 1998, Gaussian, Inc.),
 the Gaussian(R) 94 system (copyright 1995, Gaussian, Inc.),
 the Gaussian 92(TM) system (copyright 1992, Gaussian, Inc.),
 the Gaussian 90(TM) system (copyright 1990, Gaussian, Inc.),
 the Gaussian 88(TM) system (copyright 1988, Gaussian, Inc.),
 the Gaussian 86(TM) system (copyright 1986, Carnegie Mellon
 University), and the Gaussian 82(TM) system (copyright 1983,
 Carnegie Mellon University). Gaussian is a federally registered
 trademark of Gaussian, Inc.
  
 This software contains proprietary and confidential information,
 including trade secrets, belonging to Gaussian, Inc.
  
 This software is provided under written license and may be
 used, copied, transmitted, or stored only in accord with that
 written license.
  
 The following legend is applicable only to US Government
 contracts under FAR:
  
                    RESTRICTED RIGHTS LEGEND
  
 Use, reproduction and disclosure by the US Government is
 subject to restrictions as set forth in subparagraphs (a)
 and (c) of the Commercial Computer Software - Restricted
 Rights clause in FAR 52.227-19.
  
 Gaussian, Inc.
 340 Quinnipiac St., Bldg. 40, Wallingford CT 06492
  
  
 ---------------------------------------------------------------
 Warning -- This program may not be used in any manner that
 competes with the business of Gaussian, Inc. or will provide
 assistance to any competitor of Gaussian, Inc.  The licensee
 of this program is prohibited from giving any competitor of
 Gaussian, Inc. access to this program.  By using this program,
 the user acknowledges that Gaussian, Inc. is engaged in the
 business of creating and licensing software in the field of
 computational chemistry and represents and warrants to the
 licensee that it is not a competitor of Gaussian, Inc. and that
 it will not use this program in any manner prohibited above.
 ---------------------------------------------------------------
  

 Cite this work as:
 Gaussian 03, Revision E.01,
 M. J. Frisch, G. W. Trucks, H. B. Schlegel, G. E. Scuseria, 
 M. A. Robb, J. R. Cheeseman, J. A. Montgomery, Jr., T. Vreven, 
 K. N. Kudin, J. C. Burant, J. M. Millam, S. S. Iyengar, J. Tomasi, 
 V. Barone, B. Mennucci, M. Cossi, G. Scalmani, N. Rega, 
 G. A. Petersson, H. Nakatsuji, M. Hada, M. Ehara, K. Toyota, 
 R. Fukuda, J. Hasegawa, M. Ishida, T. Nakajima, Y. Honda, O. Kitao, 
 H. Nakai, M. Klene, X. Li, J. E. Knox, H. P. Hratchian, J. B. Cross, 
 V. Bakken, C. Adamo, J. Jaramillo, R. Gomperts, R. E. Stratmann, 
 O. Yazyev, A. J. Austin, R. Cammi, C. Pomelli, J. W. Ochterski, 
 P. Y. Ayala, K. Morokuma, G. A. Voth, P. Salvador, J. J. Dannenberg, 
 V. G. Zakrzewski, S. Dapprich, A. D. Daniels, M. C. Strain, 
 O. Farkas, D. K. Malick, A. D. Rabuck, K. Raghavachari, 
 J. B. Foresman, J. V. Ortiz, Q. Cui, A. G. Baboul, S. Clifford, 
 J. Cioslowski, B. B. Stefanov, G. Liu, A. Liashenko, P. Piskorz, 
 I. Komaromi, R. L. Martin, D. J. Fox, T. Keith, M. A. Al-Laham, 
 C. Y. Peng, A. Nanayakkara, M. Challacombe, P. M. W. Gill, 
 B. Johnson, W. Chen, M. W. Wong, C. Gonzalez, and J. A. Pople, 
 Gaussian, Inc., Wallingford CT, 2004.
 
 ******************************************
 Gaussian 03:  EM64T-G03RevE.01 11-Sep-2007
                12-Jun-2015 
 ******************************************
 %nproc=2
 Will use up to    2 processors via shared memory.
 Default route:  MP2=Direct MaxDisk=2000MB
 ----------------------------------------------------
 # b3lyp/6-31+G(d,p) int=ultrafine pop=(ReadRadii,MK)
 ----------------------------------------------------

 Warning!  SCF SP cutoffs with diffuse functions may be unreliable.
 Consider SCF=Tight

 1/38=1/1;
 2/17=6,18=5,40=1/2;
 3/5=1,6=6,7=111,11=2,16=1,25=1,30=1,74=-5,75=5/1,2,3;
 4//1;
 5/5=2,32=1,38=5/2;
 6/7=2,8=2,9=2,10=2,15=8,20=101,28=1/1,2;
 99/5=1,9=1/99;
 ---------------------------------------
 mol_16.4.9.pdb_plusQ.out.z51614.zip.xyz
 ---------------------------------------
 Symbolic Z-matrix:
 Charge =  1 Multiplicity = 1
 O                    -2.60659   1.93659   0. 
 P                    -1.42665   1.0595    0. 
 O                    -1.52416  -0.45994   0. 
 Ca                   -0.12019  -2.27004   0. 
 O                     1.76083  -1.30735   0. 
 Ca                    2.13815   0.77108   0. 
 O                     0.        1.59154   0. 
 
                          Input orientation:                          
 ---------------------------------------------------------------------
 Center     Atomic     Atomic              Coordinates (Angstroms)
 Number     Number      Type              X           Y           Z
 ---------------------------------------------------------------------
    1          8             0       -2.606590    1.936590    0.000000
    2         15             0       -1.426650    1.059500    0.000000
    3          8             0       -1.524160   -0.459940    0.000000
    4         20             0       -0.120190   -2.270040    0.000000
    5          8             0        1.760830   -1.307350    0.000000
    6         20             0        2.138150    0.771080    0.000000
    7          8             0        0.000000    1.591540    0.000000
 ---------------------------------------------------------------------
                    Distance matrix (angstroms):
                    1          2          3          4          5
     1  O    0.000000
     2  P    1.470219   0.000000
     3  O    2.629641   1.522566   0.000000
     4  Ca   4.886504   3.576685   2.290763   0.000000
     5  O    5.440359   3.970140   3.392530   2.113057   0.000000
     6  Ca   4.885793   3.576449   3.863667   3.787943   2.112402
     7  O    2.629329   1.522628   2.555706   3.863450   3.391767
                    6          7
     6  Ca   0.000000
     7  O    2.290162   0.000000
 Stoichiometry    Ca2O4P(1+)
 Framework group  CS[SG(Ca2O4P)]
 Deg. of freedom    11
 Full point group                 CS
 Largest Abelian subgroup         CS      NOp   2
 Largest concise Abelian subgroup C1      NOp   1
                         Standard orientation:                         
 ---------------------------------------------------------------------
 Center     Atomic     Atomic              Coordinates (Angstroms)
 Number     Number      Type              X           Y           Z
 ---------------------------------------------------------------------
    1          8             0       -2.606590    1.936591    0.000000
    2         15             0       -1.426650    1.059501    0.000000
    3          8             0       -1.524161   -0.459939    0.000000
    4         20             0       -0.120193   -2.270040    0.000000
    5          8             0        1.760828   -1.307351    0.000000
    6         20             0        2.138149    0.771078    0.000000
    7          8             0        0.000000    1.591540    0.000000
 ---------------------------------------------------------------------
 Rotational constants (GHZ):      1.4910650      1.0138674      0.6035062
 Standard basis: 6-31+G(d,p) (6D, 7F)
 There are   113 symmetry adapted basis functions of A'  symmetry.
 There are    40 symmetry adapted basis functions of A"  symmetry.
 Integral buffers will be    131072 words long.
 Raffenetti 2 integral format.
 Two-electron integral symmetry is turned on.
   153 basis functions,   344 primitive gaussians,   153 cartesian basis functions
    43 alpha electrons       43 beta electrons
       nuclear repulsion energy       585.0246512692 Hartrees.
 NAtoms=    7 NActive=    7 NUniq=    7 SFac= 7.50D-01 NAtFMM=   80 NAOKFM=F Big=F
 One-electron integrals computed using PRISM.
 NBasis=   153 RedAO= T  NBF=   113    40
 NBsUse=   153 1.00D-06 NBFU=   113    40
 Harris functional with IExCor=  402 diagonalized for initial guess.
 ExpMin= 7.10D-03 ExpMax= 3.53D+04 ExpMxC= 5.30D+03 IAcc=3 IRadAn=         5 AccDes= 0.00D+00
 HarFok:  IExCor= 402 AccDes= 0.00D+00 IRadAn=         5 IDoV=1
 ScaDFX=  1.000000  1.000000  1.000000  1.000000
 Initial guess orbital symmetries:
       Occupied  (A') (A') (A') (A') (A') (A') (A') (A') (A') (A')
                 (A') (A') (A') (A") (A") (A') (A') (A') (A") (A')
                 (A') (A') (A') (A') (A') (A") (A") (A') (A') (A')
                 (A') (A') (A') (A') (A") (A') (A') (A') (A') (A")
                 (A") (A") (A')
       Virtual   (A') (A') (A') (A") (A") (A') (A") (A') (A') (A')
                 (A') (A') (A") (A') (A') (A") (A') (A') (A") (A')
                 (A') (A') (A') (A") (A') (A") (A') (A") (A') (A')
                 (A") (A') (A') (A") (A') (A') (A') (A') (A") (A')
                 (A") (A') (A') (A") (A') (A') (A') (A') (A') (A")
                 (A") (A') (A') (A') (A') (A") (A') (A') (A') (A")
                 (A') (A") (A') (A') (A') (A') (A') (A') (A') (A")
                 (A') (A") (A") (A') (A") (A') (A') (A') (A') (A')
                 (A') (A') (A') (A') (A') (A") (A") (A') (A") (A")
                 (A') (A") (A') (A') (A') (A') (A") (A') (A") (A")
                 (A') (A') (A') (A') (A') (A') (A') (A') (A') (A')
 The electronic state of the initial guess is 1-A'.
 Requested convergence on RMS density matrix=1.00D-04 within 128 cycles.
 Requested convergence on MAX density matrix=1.00D-02.
 Requested convergence on             energy=1.00D-02.
 No special actions if energy rises.
 EnCoef did     1 forward-backward iterations
 EnCoef did     3 forward-backward iterations
 SCF Done:  E(RB+HF-LYP) =  -1997.36495114     A.U. after    9 cycles
             Convg  =    0.4834D-04             -V/T =  2.0032
             S**2   =   0.0000

 **********************************************************************

            Population analysis using the SCF density.

 **********************************************************************

 Orbital symmetries:
       Occupied  (A') (A') (A') (A') (A') (A') (A') (A') (A') (A")
                 (A") (A') (A') (A') (A') (A') (A") (A') (A') (A')
                 (A') (A") (A") (A') (A') (A') (A') (A') (A') (A')
                 (A') (A') (A') (A") (A') (A') (A") (A') (A") (A')
                 (A') (A") (A')
       Virtual   (A') (A') (A') (A") (A") (A") (A') (A') (A') (A')
                 (A') (A') (A") (A') (A") (A') (A") (A') (A') (A')
                 (A') (A') (A') (A') (A") (A') (A") (A") (A") (A')
                 (A') (A") (A') (A') (A') (A') (A') (A") (A') (A')
                 (A") (A") (A') (A') (A') (A") (A') (A') (A') (A")
                 (A') (A') (A') (A') (A') (A") (A') (A') (A') (A")
                 (A") (A') (A') (A') (A') (A') (A') (A') (A') (A")
                 (A') (A") (A") (A") (A') (A') (A') (A') (A') (A')
                 (A') (A') (A') (A') (A') (A") (A") (A') (A") (A')
                 (A') (A') (A") (A") (A") (A') (A") (A') (A') (A")
                 (A') (A') (A') (A') (A') (A') (A') (A') (A') (A')
 The electronic state is 1-A'.
 Alpha  occ. eigenvalues -- -145.53602-145.53586 -77.35855 -19.29925 -19.29920
 Alpha  occ. eigenvalues --  -19.27566 -19.15848 -15.60457 -15.60442 -12.73708
 Alpha  occ. eigenvalues --  -12.73692 -12.73633 -12.73617 -12.73542 -12.73526
 Alpha  occ. eigenvalues --   -6.81064  -4.97682  -4.97211  -4.97115  -1.97569
 Alpha  occ. eigenvalues --   -1.97547  -1.25350  -1.25327  -1.25295  -1.25082
 Alpha  occ. eigenvalues --   -1.24705  -1.24174  -1.18398  -1.11377  -1.10409
 Alpha  occ. eigenvalues --   -0.90347  -0.67778  -0.60008  -0.56612  -0.55839
 Alpha  occ. eigenvalues --   -0.50171  -0.48049  -0.47792  -0.45420  -0.42510
 Alpha  occ. eigenvalues --   -0.36650  -0.34564  -0.34386
 Alpha virt. eigenvalues --   -0.22298  -0.20459  -0.16810  -0.14882  -0.13472
 Alpha virt. eigenvalues --   -0.12518  -0.11814  -0.10787  -0.09941  -0.08256
 Alpha virt. eigenvalues --   -0.07258  -0.06249  -0.05559  -0.05270  -0.04858
 Alpha virt. eigenvalues --   -0.04660  -0.04645  -0.04369  -0.03660  -0.01085
 Alpha virt. eigenvalues --   -0.01046  -0.00624   0.00368   0.01676   0.02309
 Alpha virt. eigenvalues --    0.02656   0.02898   0.03366   0.04419   0.04544
 Alpha virt. eigenvalues --    0.05203   0.06556   0.06576   0.06665   0.07207
 Alpha virt. eigenvalues --    0.07478   0.09169   0.09175   0.12103   0.12992
 Alpha virt. eigenvalues --    0.14116   0.14859   0.15425   0.17800   0.20131
 Alpha virt. eigenvalues --    0.20680   0.20804   0.21205   0.21897   0.23116
 Alpha virt. eigenvalues --    0.23959   0.26591   0.28727   0.29015   0.33788
 Alpha virt. eigenvalues --    0.35467   0.37213   0.45328   0.50545   0.53417
 Alpha virt. eigenvalues --    0.54098   0.54930   0.56959   0.64025   0.66957
 Alpha virt. eigenvalues --    0.80795   0.91857   0.92874   0.95144   1.03888
 Alpha virt. eigenvalues --    1.05553   1.05840   1.11444   1.12677   1.13850
 Alpha virt. eigenvalues --    1.15130   1.16980   1.20456   1.21577   1.22162
 Alpha virt. eigenvalues --    1.26601   1.38478   1.38799   1.41341   1.48646
 Alpha virt. eigenvalues --    1.63807   1.64484   1.65477   1.66582   1.69073
 Alpha virt. eigenvalues --    1.73594   1.74067   1.80212   1.80407   1.81523
 Alpha virt. eigenvalues --    1.84680   1.90565   1.93269   1.96186   1.98539
 Alpha virt. eigenvalues --    2.17075   2.18388   2.56333   2.69413   2.77918
 Alpha virt. eigenvalues --    3.35227   3.81861   3.93308   3.93337   3.96396
          Condensed to atoms (all electrons):
              1          2          3          4          5          6
     1  O    8.434605   0.472120  -0.147268   0.000120  -0.000508   0.000112
     2  P    0.472120  12.522574   0.252489  -0.017938  -0.023413  -0.017922
     3  O   -0.147268   0.252489   9.049604   0.090994   0.011470  -0.024949
     4  Ca   0.000120  -0.017938   0.090994  18.255677   0.228043  -0.017306
     5  O   -0.000508  -0.023413   0.011470   0.228043   8.742378   0.227999
     6  Ca   0.000112  -0.017922  -0.024949  -0.017306   0.227999  18.255890
     7  O   -0.147249   0.252601  -0.372005  -0.024970   0.011480   0.090988
              7
     1  O   -0.147249
     2  P    0.252601
     3  O   -0.372005
     4  Ca  -0.024970
     5  O    0.011480
     6  Ca   0.090988
     7  O    9.049501
 Mulliken atomic charges:
              1
     1  O   -0.611932
     2  P    1.559490
     3  O   -0.860334
     4  Ca   1.485381
     5  O   -1.197450
     6  Ca   1.485190
     7  O   -0.860345
 Sum of Mulliken charges=   1.00000
 Atomic charges with hydrogens summed into heavy atoms:
              1
     1  O   -0.611932
     2  P    1.559490
     3  O   -0.860334
     4  Ca   1.485381
     5  O   -1.197450
     6  Ca   1.485190
     7  O   -0.860345
 Sum of Mulliken charges=   1.00000
 Electronic spatial extent (au):  <R**2>=  1591.7770
 Charge=     1.0000 electrons
 Dipole moment (field-independent basis, Debye):
    X=     6.9636    Y=    -5.1779    Z=     0.0000  Tot=     8.6777
 Quadrupole moment (field-independent basis, Debye-Ang):
   XX=   -50.9296   YY=   -31.5711   ZZ=   -53.5426
   XY=    32.0385   XZ=     0.0000   YZ=     0.0000
 Traceless Quadrupole moment (field-independent basis, Debye-Ang):
   XX=    -5.5818   YY=    13.7767   ZZ=    -8.1949
   XY=    32.0385   XZ=     0.0000   YZ=     0.0000
 Octapole moment (field-independent basis, Debye-Ang**2):
  XXX=    96.4534  YYY=  -115.4251  ZZZ=     0.0000  XYY=     3.5163
  XXY=    41.1137  XXZ=     0.0000  XZZ=     3.0498  YZZ=    -2.2673
  YYZ=     0.0000  XYZ=     0.0000
 Hexadecapole moment (field-independent basis, Debye-Ang**3):
 XXXX=  -887.9934 YYYY=  -581.4797 ZZZZ=   -55.9818 XXXY=   297.8477
 XXXZ=     0.0000 YYYX=   209.7562 YYYZ=     0.0000 ZZZX=     0.0000
 ZZZY=     0.0000 XXYY=  -333.3616 XXZZ=  -157.8648 YYZZ=  -130.7862
 XXYZ=     0.0000 YYXZ=     0.0000 ZZXY=    44.8674
 N-N= 5.850246512692D+02 E-N=-5.888463925894D+03  KE= 1.991044714512D+03
 Symmetry A'   KE= 1.801088318562D+03
 Symmetry A"   KE= 1.899563959506D+02
 Merz-Kollman atomic radii used.
 Read replacement radii for each type of atom:
 Rad(20) =   1.188000000000D+00
 Atom Element Radius
    1     8    1.40
    2    15    1.80
    3     8    1.40
    4    20    1.19
    5     8    1.40
    6    20    1.19
    7     8    1.40

 **********************************************************************

            Electrostatic Properties Using The SCF Density

 **********************************************************************

       Atomic Center    1 is at  -2.606590  1.936591  0.000000
       Atomic Center    2 is at  -1.426650  1.059501  0.000000
       Atomic Center    3 is at  -1.524161 -0.459939  0.000000
       Atomic Center    4 is at  -0.120193 -2.270040  0.000000
       Atomic Center    5 is at   1.760828 -1.307351  0.000000
       Atomic Center    6 is at   2.138149  0.771078  0.000000
       Atomic Center    7 is at   0.000000  1.591540  0.000000
     677 points will be used for fitting atomic charges
 Fitting point charges to eletrostatic potential
 Charges from ESP fit, RMS=   0.00379 RRMS=   0.02382:
 Charge=   1.00000 Dipole=     7.1047    -5.2945     0.0000 Tot=     8.8605
              1
     1  O   -0.546544
     2  P    1.498874
     3  O   -0.932189
     4  Ca   1.735986
     5  O   -1.556232
     6  Ca   1.740291
     7  O   -0.940186
 -----------------------------------------------------------------

              Electrostatic Properties (Atomic Units)

 -----------------------------------------------------------------
    Center     Electric         -------- Electric Field --------
               Potential          X             Y             Z
 -----------------------------------------------------------------
    1 Atom    -22.195894
    2 Atom    -53.847865
    3 Atom    -22.162054
    4 Atom    -80.004747
    5 Atom    -22.292895
    6 Atom    -80.004907
    7 Atom    -22.162097
 -----------------------------------------------------------------
 1\1\GINC-N021\SP\RB3LYP\6-31+G(d,p)\Ca2O4P1(1+)\TIMN\12-Jun-2015\0\\# 
 b3lyp/6-31+G(d,p) int=ultrafine pop=(ReadRadii,MK)\\mol_16.4.9.pdb_plu
 sQ.out.z51614.zip.xyz\\1,1\O,0,-2.60659,1.93659,0.\P,0,-1.42665,1.0595
 ,0.\O,0,-1.52416,-0.45994,0.\Ca,0,-0.12019,-2.27004,0.\O,0,1.76083,-1.
 30735,0.\Ca,0,2.13815,0.77108,0.\O,0,0.,1.59154,0.\\Version=EM64T-G03R
 evE.01\State=1-A'\HF=-1997.3649511\RMSD=4.834e-05\Thermal=0.\Dipole=2.
 7396801,-2.0371295,0.\PG=CS [SG(Ca2O4P1)]\\@


 THE PROGRESS OF RIVERS TO THE SEA IS NOT AS RAPID
 AS THAT OF MAN TO ERROR.
                                              -- VOLTAIRE
 Job cpu time:  0 days  0 hours  0 minutes 47.8 seconds.
 File lengths (MBytes):  RWF=     28 Int=      0 D2E=      0 Chk=     10 Scr=      1
 Normal termination of Gaussian 03 at Fri Jun 12 17:49:02 2015.
