 Entering Gaussian System, Link 0=/home/timn/tmp/g03.e01/g03
 Input=mol_16.5.12.pdb_plusQ.out.z51618.zip.xyz.gjf
 Output=mol_16.5.12.pdb_plusQ.out.z51618.zip.xyz.out
 Initial command:
 /home/timn/tmp/g03.e01/l1.exe /home/timn/tmp/g03.e01/Gau-14476.inp -scrdir=/home/timn/tmp/g03.e01/
 Default is to use a total of   2 processors:
                                2 via shared-memory
                                1 via Linda
 Entering Link 1 = /home/timn/tmp/g03.e01/l1.exe PID=     14477.
  
 Copyright (c) 1988,1990,1992,1993,1995,1998,2003,2004,2007, Gaussian, Inc.
                  All Rights Reserved.
  
 This is the Gaussian(R) 03 program.  It is based on the
 the Gaussian(R) 98 system (copyright 1998, Gaussian, Inc.),
 the Gaussian(R) 94 system (copyright 1995, Gaussian, Inc.),
 the Gaussian 92(TM) system (copyright 1992, Gaussian, Inc.),
 the Gaussian 90(TM) system (copyright 1990, Gaussian, Inc.),
 the Gaussian 88(TM) system (copyright 1988, Gaussian, Inc.),
 the Gaussian 86(TM) system (copyright 1986, Carnegie Mellon
 University), and the Gaussian 82(TM) system (copyright 1983,
 Carnegie Mellon University). Gaussian is a federally registered
 trademark of Gaussian, Inc.
  
 This software contains proprietary and confidential information,
 including trade secrets, belonging to Gaussian, Inc.
  
 This software is provided under written license and may be
 used, copied, transmitted, or stored only in accord with that
 written license.
  
 The following legend is applicable only to US Government
 contracts under FAR:
  
                    RESTRICTED RIGHTS LEGEND
  
 Use, reproduction and disclosure by the US Government is
 subject to restrictions as set forth in subparagraphs (a)
 and (c) of the Commercial Computer Software - Restricted
 Rights clause in FAR 52.227-19.
  
 Gaussian, Inc.
 340 Quinnipiac St., Bldg. 40, Wallingford CT 06492
  
  
 ---------------------------------------------------------------
 Warning -- This program may not be used in any manner that
 competes with the business of Gaussian, Inc. or will provide
 assistance to any competitor of Gaussian, Inc.  The licensee
 of this program is prohibited from giving any competitor of
 Gaussian, Inc. access to this program.  By using this program,
 the user acknowledges that Gaussian, Inc. is engaged in the
 business of creating and licensing software in the field of
 computational chemistry and represents and warrants to the
 licensee that it is not a competitor of Gaussian, Inc. and that
 it will not use this program in any manner prohibited above.
 ---------------------------------------------------------------
  

 Cite this work as:
 Gaussian 03, Revision E.01,
 M. J. Frisch, G. W. Trucks, H. B. Schlegel, G. E. Scuseria, 
 M. A. Robb, J. R. Cheeseman, J. A. Montgomery, Jr., T. Vreven, 
 K. N. Kudin, J. C. Burant, J. M. Millam, S. S. Iyengar, J. Tomasi, 
 V. Barone, B. Mennucci, M. Cossi, G. Scalmani, N. Rega, 
 G. A. Petersson, H. Nakatsuji, M. Hada, M. Ehara, K. Toyota, 
 R. Fukuda, J. Hasegawa, M. Ishida, T. Nakajima, Y. Honda, O. Kitao, 
 H. Nakai, M. Klene, X. Li, J. E. Knox, H. P. Hratchian, J. B. Cross, 
 V. Bakken, C. Adamo, J. Jaramillo, R. Gomperts, R. E. Stratmann, 
 O. Yazyev, A. J. Austin, R. Cammi, C. Pomelli, J. W. Ochterski, 
 P. Y. Ayala, K. Morokuma, G. A. Voth, P. Salvador, J. J. Dannenberg, 
 V. G. Zakrzewski, S. Dapprich, A. D. Daniels, M. C. Strain, 
 O. Farkas, D. K. Malick, A. D. Rabuck, K. Raghavachari, 
 J. B. Foresman, J. V. Ortiz, Q. Cui, A. G. Baboul, S. Clifford, 
 J. Cioslowski, B. B. Stefanov, G. Liu, A. Liashenko, P. Piskorz, 
 I. Komaromi, R. L. Martin, D. J. Fox, T. Keith, M. A. Al-Laham, 
 C. Y. Peng, A. Nanayakkara, M. Challacombe, P. M. W. Gill, 
 B. Johnson, W. Chen, M. W. Wong, C. Gonzalez, and J. A. Pople, 
 Gaussian, Inc., Wallingford CT, 2004.
 
 ******************************************
 Gaussian 03:  EM64T-G03RevE.01 11-Sep-2007
                12-Jun-2015 
 ******************************************
 %nproc=2
 Will use up to    2 processors via shared memory.
 Default route:  MP2=Direct MaxDisk=2000MB
 ----------------------------------------------------
 # b3lyp/6-31+G(d,p) int=ultrafine pop=(ReadRadii,MK)
 ----------------------------------------------------

 Warning!  SCF SP cutoffs with diffuse functions may be unreliable.
 Consider SCF=Tight

 1/38=1/1;
 2/17=6,18=5,40=1/2;
 3/5=1,6=6,7=111,11=2,16=1,25=1,30=1,74=-5,75=5/1,2,3;
 4//1;
 5/5=2,32=1,38=5/2;
 6/7=2,8=2,9=2,10=2,15=8,20=101,28=1/1,2;
 99/5=1,9=1/99;
 ----------------------------------------
 mol_16.5.12.pdb_plusQ.out.z51618.zip.xyz
 ----------------------------------------
 Symbolic Z-matrix:
 Charge =  1 Multiplicity = 1
 O                    -0.98054   0.81537   1.25022 
 O                     1.34912   1.3164    0.00008 
 P                    -0.06729   0.67993   0. 
 O                    -0.98076   0.81595  -1.24991 
 Ca                   -2.24745  -0.68874  -0.00001 
 O                     0.25201  -0.98018  -0.00032 
 Ca                    2.44199  -0.60822  -0.00001 
 
                          Input orientation:                          
 ---------------------------------------------------------------------
 Center     Atomic     Atomic              Coordinates (Angstroms)
 Number     Number      Type              X           Y           Z
 ---------------------------------------------------------------------
    1          8             0       -0.980540    0.815370    1.250220
    2          8             0        1.349120    1.316400    0.000080
    3         15             0       -0.067290    0.679930    0.000000
    4          8             0       -0.980760    0.815950   -1.249910
    5         20             0       -2.247450   -0.688740   -0.000010
    6          8             0        0.252010   -0.980180   -0.000320
    7         20             0        2.441990   -0.608220   -0.000010
 ---------------------------------------------------------------------
                    Distance matrix (angstroms):
                    1          2          3          4          5
     1  O    0.000000
     2  O    2.690947   0.000000
     3  P    1.554162   1.552840   0.000000
     4  O    2.500130   2.690960   1.554093   0.000000
     5  Ca   2.330340   4.117755   2.574171   2.330417   0.000000
     6  O    2.511380   2.545178   1.690538   2.511430   2.516394
     7  Ca   3.911955   2.213262   2.820606   3.912254   4.690131
                    6          7
     6  O    0.000000
     7  Ca   2.221343   0.000000
 Stoichiometry    Ca2O4P(1+)
 Framework group  C1[X(Ca2O4P)]
 Deg. of freedom    15
 Full point group                 C1
 Largest Abelian subgroup         C1      NOp   1
 Largest concise Abelian subgroup C1      NOp   1
                         Standard orientation:                         
 ---------------------------------------------------------------------
 Center     Atomic     Atomic              Coordinates (Angstroms)
 Number     Number      Type              X           Y           Z
 ---------------------------------------------------------------------
    1          8             0       -0.980540    0.815370    1.250218
    2          8             0        1.349121    1.316398    0.000078
    3         15             0       -0.067290    0.679929   -0.000002
    4          8             0       -0.980760    0.815950   -1.249912
    5         20             0       -2.247452   -0.688738   -0.000012
    6          8             0        0.252008   -0.980181   -0.000322
    7         20             0        2.441988   -0.608224   -0.000012
 ---------------------------------------------------------------------
 Rotational constants (GHZ):      3.1116758      0.9168975      0.8236041
 Standard basis: 6-31+G(d,p) (6D, 7F)
 There are   153 symmetry adapted basis functions of A   symmetry.
 Integral buffers will be    131072 words long.
 Raffenetti 2 integral format.
 Two-electron integral symmetry is turned on.
   153 basis functions,   344 primitive gaussians,   153 cartesian basis functions
    43 alpha electrons       43 beta electrons
       nuclear repulsion energy       648.7863009254 Hartrees.
 NAtoms=    7 NActive=    7 NUniq=    7 SFac= 7.50D-01 NAtFMM=   80 NAOKFM=F Big=F
 One-electron integrals computed using PRISM.
 NBasis=   153 RedAO= T  NBF=   153
 NBsUse=   153 1.00D-06 NBFU=   153
 Harris functional with IExCor=  402 diagonalized for initial guess.
 ExpMin= 7.10D-03 ExpMax= 3.53D+04 ExpMxC= 5.30D+03 IAcc=3 IRadAn=         5 AccDes= 0.00D+00
 HarFok:  IExCor= 402 AccDes= 0.00D+00 IRadAn=         5 IDoV=1
 ScaDFX=  1.000000  1.000000  1.000000  1.000000
 Initial guess orbital symmetries:
       Occupied  (A) (A) (A) (A) (A) (A) (A) (A) (A) (A) (A) (A)
                 (A) (A) (A) (A) (A) (A) (A) (A) (A) (A) (A) (A)
                 (A) (A) (A) (A) (A) (A) (A) (A) (A) (A) (A) (A)
                 (A) (A) (A) (A) (A) (A) (A)
       Virtual   (A) (A) (A) (A) (A) (A) (A) (A) (A) (A) (A) (A)
                 (A) (A) (A) (A) (A) (A) (A) (A) (A) (A) (A) (A)
                 (A) (A) (A) (A) (A) (A) (A) (A) (A) (A) (A) (A)
                 (A) (A) (A) (A) (A) (A) (A) (A) (A) (A) (A) (A)
                 (A) (A) (A) (A) (A) (A) (A) (A) (A) (A) (A) (A)
                 (A) (A) (A) (A) (A) (A) (A) (A) (A) (A) (A) (A)
                 (A) (A) (A) (A) (A) (A) (A) (A) (A) (A) (A) (A)
                 (A) (A) (A) (A) (A) (A) (A) (A) (A) (A) (A) (A)
                 (A) (A) (A) (A) (A) (A) (A) (A) (A) (A) (A) (A)
                 (A) (A)
 The electronic state of the initial guess is 1-A.
 Requested convergence on RMS density matrix=1.00D-04 within 128 cycles.
 Requested convergence on MAX density matrix=1.00D-02.
 Requested convergence on             energy=1.00D-02.
 No special actions if energy rises.
 SCF Done:  E(RB+HF-LYP) =  -1997.39686934     A.U. after    8 cycles
             Convg  =    0.4883D-04             -V/T =  2.0032
             S**2   =   0.0000

 **********************************************************************

            Population analysis using the SCF density.

 **********************************************************************

 Orbital symmetries:
       Occupied  (A) (A) (A) (A) (A) (A) (A) (A) (A) (A) (A) (A)
                 (A) (A) (A) (A) (A) (A) (A) (A) (A) (A) (A) (A)
                 (A) (A) (A) (A) (A) (A) (A) (A) (A) (A) (A) (A)
                 (A) (A) (A) (A) (A) (A) (A)
       Virtual   (A) (A) (A) (A) (A) (A) (A) (A) (A) (A) (A) (A)
                 (A) (A) (A) (A) (A) (A) (A) (A) (A) (A) (A) (A)
                 (A) (A) (A) (A) (A) (A) (A) (A) (A) (A) (A) (A)
                 (A) (A) (A) (A) (A) (A) (A) (A) (A) (A) (A) (A)
                 (A) (A) (A) (A) (A) (A) (A) (A) (A) (A) (A) (A)
                 (A) (A) (A) (A) (A) (A) (A) (A) (A) (A) (A) (A)
                 (A) (A) (A) (A) (A) (A) (A) (A) (A) (A) (A) (A)
                 (A) (A) (A) (A) (A) (A) (A) (A) (A) (A) (A) (A)
                 (A) (A) (A) (A) (A) (A) (A) (A) (A) (A) (A) (A)
                 (A) (A)
 The electronic state is 1-A.
 Alpha  occ. eigenvalues -- -145.57544-145.56066 -77.29918 -19.22734 -19.22264
 Alpha  occ. eigenvalues --  -19.19555 -19.19552 -15.64329 -15.62747 -12.77572
 Alpha  occ. eigenvalues --  -12.77477 -12.77470 -12.75958 -12.75931 -12.75928
 Alpha  occ. eigenvalues --   -6.74490  -4.90945  -4.90803  -4.90709  -2.01282
 Alpha  occ. eigenvalues --   -1.99569  -1.28881  -1.28832  -1.28372  -1.27394
 Alpha  occ. eigenvalues --   -1.26801  -1.26704  -1.11447  -1.04130  -1.01267
 Alpha  occ. eigenvalues --   -1.01109  -0.61215  -0.53198  -0.51405  -0.50526
 Alpha  occ. eigenvalues --   -0.45808  -0.42792  -0.42565  -0.41453  -0.40257
 Alpha  occ. eigenvalues --   -0.38008  -0.36317  -0.34168
 Alpha virt. eigenvalues --   -0.23654  -0.21655  -0.14051  -0.13682  -0.12202
 Alpha virt. eigenvalues --   -0.12003  -0.11178  -0.08336  -0.07557  -0.06421
 Alpha virt. eigenvalues --   -0.05283  -0.05144  -0.04532  -0.04381  -0.04183
 Alpha virt. eigenvalues --   -0.03515  -0.02308  -0.01633  -0.01542  -0.00584
 Alpha virt. eigenvalues --    0.00853   0.01086   0.01684   0.02259   0.02799
 Alpha virt. eigenvalues --    0.02970   0.03214   0.03284   0.04207   0.04373
 Alpha virt. eigenvalues --    0.04479   0.05568   0.05959   0.08288   0.09558
 Alpha virt. eigenvalues --    0.10362   0.10412   0.13388   0.14051   0.14983
 Alpha virt. eigenvalues --    0.16414   0.16685   0.16841   0.18986   0.19230
 Alpha virt. eigenvalues --    0.20370   0.23226   0.23927   0.24611   0.27404
 Alpha virt. eigenvalues --    0.27493   0.28870   0.29812   0.32372   0.33471
 Alpha virt. eigenvalues --    0.35639   0.40685   0.43832   0.49840   0.53080
 Alpha virt. eigenvalues --    0.55948   0.57970   0.62399   0.64054   0.75003
 Alpha virt. eigenvalues --    0.89080   0.92538   0.99118   1.00885   1.07710
 Alpha virt. eigenvalues --    1.15260   1.15720   1.17452   1.18146   1.19505
 Alpha virt. eigenvalues --    1.21359   1.23764   1.24710   1.26294   1.27745
 Alpha virt. eigenvalues --    1.30619   1.46741   1.47111   1.54238   1.69699
 Alpha virt. eigenvalues --    1.70371   1.71754   1.72543   1.76458   1.77156
 Alpha virt. eigenvalues --    1.78375   1.80391   1.82976   1.84057   1.86165
 Alpha virt. eigenvalues --    1.92988   1.97163   2.02965   2.13308   2.14882
 Alpha virt. eigenvalues --    2.24062   2.48243   2.67306   2.77551   2.78524
 Alpha virt. eigenvalues --    3.48667   4.01193   4.02137   4.04579   4.29666
          Condensed to atoms (all electrons):
              1          2          3          4          5          6
     1  O    8.830274  -0.094653   0.096779  -0.054152   0.094921   0.022366
     2  O   -0.094653   8.818012   0.166991  -0.094685   0.030757  -0.109005
     3  P    0.096779   0.166991  12.758811   0.096734   0.036485   0.041021
     4  O   -0.054152  -0.094685   0.096734   8.830279   0.094887   0.022363
     5  Ca   0.094921   0.030757   0.036485   0.094887  18.236508   0.053803
     6  O    0.022366  -0.109005   0.041021   0.022363   0.053803   8.996486
     7  Ca  -0.011692   0.147161   0.016891  -0.011688   0.003871   0.101215
              7
     1  O   -0.011692
     2  O    0.147161
     3  P    0.016891
     4  O   -0.011688
     5  Ca   0.003871
     6  O    0.101215
     7  Ca  18.228891
 Mulliken atomic charges:
              1
     1  O   -0.883843
     2  O   -0.864577
     3  P    1.786288
     4  O   -0.883737
     5  Ca   1.448768
     6  O   -1.128250
     7  Ca   1.525351
 Sum of Mulliken charges=   1.00000
 Atomic charges with hydrogens summed into heavy atoms:
              1
     1  O   -0.883843
     2  O   -0.864577
     3  P    1.786288
     4  O   -0.883737
     5  Ca   1.448768
     6  O   -1.128250
     7  Ca   1.525351
 Sum of Mulliken charges=   1.00000
 Electronic spatial extent (au):  <R**2>=  1262.0978
 Charge=     1.0000 electrons
 Dipole moment (field-independent basis, Debye):
    X=     2.7826    Y=   -12.3754    Z=    -0.0007  Tot=    12.6843
 Quadrupole moment (field-independent basis, Debye-Ang):
   XX=    21.8567   YY=   -59.4259   ZZ=   -66.1583
   XY=     1.3353   XZ=     0.0009   YZ=    -0.0005
 Traceless Quadrupole moment (field-independent basis, Debye-Ang):
   XX=    56.4325   YY=   -24.8501   ZZ=   -31.5825
   XY=     1.3353   XZ=     0.0009   YZ=    -0.0005
 Octapole moment (field-independent basis, Debye-Ang**2):
  XXX=    29.4945  YYY=   -30.7882  ZZZ=    -0.0067  XYY=    -5.2829
  XXY=   -85.1170  XXZ=    -0.0016  XZZ=    14.3171  YZZ=   -16.9145
  YYZ=     0.0041  XYZ=    -0.0031
 Hexadecapole moment (field-independent basis, Debye-Ang**3):
 XXXX=  -242.4283 YYYY=  -295.1667 ZZZZ=  -200.7700 XXXY=   -11.5913
 XXXZ=    -0.0017 YYYX=    -0.6928 YYYZ=     0.0020 ZZZX=     0.0058
 ZZZY=    -0.0015 XXYY=  -151.5187 XXZZ=  -164.8528 YYZZ=   -85.5501
 XXYZ=     0.0020 YYXZ=    -0.0033 ZZXY=     9.6659
 N-N= 6.487863009254D+02 E-N=-6.017158117736D+03  KE= 1.991102323838D+03
 Merz-Kollman atomic radii used.
 Read replacement radii for each type of atom:
 Rad(20) =   1.188000000000D+00
 Atom Element Radius
    1     8    1.40
    2     8    1.40
    3    15    1.80
    4     8    1.40
    5    20    1.19
    6     8    1.40
    7    20    1.19

 **********************************************************************

            Electrostatic Properties Using The SCF Density

 **********************************************************************

       Atomic Center    1 is at  -0.980540  0.815370  1.250218
       Atomic Center    2 is at   1.349121  1.316398  0.000078
       Atomic Center    3 is at  -0.067290  0.679929 -0.000002
       Atomic Center    4 is at  -0.980760  0.815950 -1.249912
       Atomic Center    5 is at  -2.247452 -0.688738 -0.000012
       Atomic Center    6 is at   0.252008 -0.980181 -0.000322
       Atomic Center    7 is at   2.441988 -0.608224 -0.000012
     610 points will be used for fitting atomic charges
 Fitting point charges to eletrostatic potential
 Charges from ESP fit, RMS=   0.00379 RRMS=   0.02212:
 Charge=   1.00000 Dipole=     2.7751   -12.4878    -0.0008 Tot=    12.7924
              1
     1  O   -0.966084
     2  O   -0.904860
     3  P    1.678357
     4  O   -0.965954
     5  Ca   1.719768
     6  O   -1.283316
     7  Ca   1.722089
 -----------------------------------------------------------------

              Electrostatic Properties (Atomic Units)

 -----------------------------------------------------------------
    Center     Electric         -------- Electric Field --------
               Potential          X             Y             Z
 -----------------------------------------------------------------
    1 Atom    -22.269946
    2 Atom    -22.235845
    3 Atom    -53.905342
    4 Atom    -22.269851
    5 Atom    -79.979714
    6 Atom    -22.237839
    7 Atom    -79.965162
 -----------------------------------------------------------------
 1\1\GINC-N035\SP\RB3LYP\6-31+G(d,p)\Ca2O4P1(1+)\TIMN\12-Jun-2015\0\\# 
 b3lyp/6-31+G(d,p) int=ultrafine pop=(ReadRadii,MK)\\mol_16.5.12.pdb_pl
 usQ.out.z51618.zip.xyz\\1,1\O,0,-0.98054,0.81537,1.25022\O,0,1.34912,1
 .3164,0.00008\P,0,-0.06729,0.67993,0.\O,0,-0.98076,0.81595,-1.24991\Ca
 ,0,-2.24745,-0.68874,-0.00001\O,0,0.25201,-0.98018,-0.00032\Ca,0,2.441
 99,-0.60822,-0.00001\\Version=EM64T-G03RevE.01\State=1-A\HF=-1997.3968
 693\RMSD=4.883e-05\Thermal=0.\Dipole=1.09475,-4.8688403,-0.0002919\PG=
 C01 [X(Ca2O4P1)]\\@


 MATERIAL COPIED FROM ONE SCHOLARLY BOOK WITHOUT CREDIT COMPRISES PLAGIARISM.
 MATERIAL COPIED FROM TWO SCHOLARLY BOOKS COMPRISES AN ESSAY.
 MATERIAL COPIED FROM THREE SCHOLARLY BOOKS COMPRISES A DISSERTATION.
 MATERIAL COPIED FROM FOUR SCHOLARLY BOOKS COMPRISES A FIFTH SCHOLARLY BOOK.

                               -- C&EN, 25 FEB 1980
 Job cpu time:  0 days  0 hours  1 minutes  1.3 seconds.
 File lengths (MBytes):  RWF=     28 Int=      0 D2E=      0 Chk=     10 Scr=      1
 Normal termination of Gaussian 03 at Fri Jun 12 17:49:31 2015.
