 Entering Gaussian System, Link 0=/home/timn/tmp/g03.e01/g03
 Input=mol_17.27.28.pdbcccc_plusQ.z58495.zip.xyz.gjf
 Output=mol_17.27.28.pdbcccc_plusQ.z58495.zip.xyz.out
 Initial command:
 /home/timn/tmp/g03.e01/l1.exe /home/timn/tmp/g03.e01/Gau-20183.inp -scrdir=/home/timn/tmp/g03.e01/
 Default is to use a total of   2 processors:
                                2 via shared-memory
                                1 via Linda
 Entering Link 1 = /home/timn/tmp/g03.e01/l1.exe PID=     20184.
  
 Copyright (c) 1988,1990,1992,1993,1995,1998,2003,2004,2007, Gaussian, Inc.
                  All Rights Reserved.
  
 This is the Gaussian(R) 03 program.  It is based on the
 the Gaussian(R) 98 system (copyright 1998, Gaussian, Inc.),
 the Gaussian(R) 94 system (copyright 1995, Gaussian, Inc.),
 the Gaussian 92(TM) system (copyright 1992, Gaussian, Inc.),
 the Gaussian 90(TM) system (copyright 1990, Gaussian, Inc.),
 the Gaussian 88(TM) system (copyright 1988, Gaussian, Inc.),
 the Gaussian 86(TM) system (copyright 1986, Carnegie Mellon
 University), and the Gaussian 82(TM) system (copyright 1983,
 Carnegie Mellon University). Gaussian is a federally registered
 trademark of Gaussian, Inc.
  
 This software contains proprietary and confidential information,
 including trade secrets, belonging to Gaussian, Inc.
  
 This software is provided under written license and may be
 used, copied, transmitted, or stored only in accord with that
 written license.
  
 The following legend is applicable only to US Government
 contracts under FAR:
  
                    RESTRICTED RIGHTS LEGEND
  
 Use, reproduction and disclosure by the US Government is
 subject to restrictions as set forth in subparagraphs (a)
 and (c) of the Commercial Computer Software - Restricted
 Rights clause in FAR 52.227-19.
  
 Gaussian, Inc.
 340 Quinnipiac St., Bldg. 40, Wallingford CT 06492
  
  
 ---------------------------------------------------------------
 Warning -- This program may not be used in any manner that
 competes with the business of Gaussian, Inc. or will provide
 assistance to any competitor of Gaussian, Inc.  The licensee
 of this program is prohibited from giving any competitor of
 Gaussian, Inc. access to this program.  By using this program,
 the user acknowledges that Gaussian, Inc. is engaged in the
 business of creating and licensing software in the field of
 computational chemistry and represents and warrants to the
 licensee that it is not a competitor of Gaussian, Inc. and that
 it will not use this program in any manner prohibited above.
 ---------------------------------------------------------------
  

 Cite this work as:
 Gaussian 03, Revision E.01,
 M. J. Frisch, G. W. Trucks, H. B. Schlegel, G. E. Scuseria, 
 M. A. Robb, J. R. Cheeseman, J. A. Montgomery, Jr., T. Vreven, 
 K. N. Kudin, J. C. Burant, J. M. Millam, S. S. Iyengar, J. Tomasi, 
 V. Barone, B. Mennucci, M. Cossi, G. Scalmani, N. Rega, 
 G. A. Petersson, H. Nakatsuji, M. Hada, M. Ehara, K. Toyota, 
 R. Fukuda, J. Hasegawa, M. Ishida, T. Nakajima, Y. Honda, O. Kitao, 
 H. Nakai, M. Klene, X. Li, J. E. Knox, H. P. Hratchian, J. B. Cross, 
 V. Bakken, C. Adamo, J. Jaramillo, R. Gomperts, R. E. Stratmann, 
 O. Yazyev, A. J. Austin, R. Cammi, C. Pomelli, J. W. Ochterski, 
 P. Y. Ayala, K. Morokuma, G. A. Voth, P. Salvador, J. J. Dannenberg, 
 V. G. Zakrzewski, S. Dapprich, A. D. Daniels, M. C. Strain, 
 O. Farkas, D. K. Malick, A. D. Rabuck, K. Raghavachari, 
 J. B. Foresman, J. V. Ortiz, Q. Cui, A. G. Baboul, S. Clifford, 
 J. Cioslowski, B. B. Stefanov, G. Liu, A. Liashenko, P. Piskorz, 
 I. Komaromi, R. L. Martin, D. J. Fox, T. Keith, M. A. Al-Laham, 
 C. Y. Peng, A. Nanayakkara, M. Challacombe, P. M. W. Gill, 
 B. Johnson, W. Chen, M. W. Wong, C. Gonzalez, and J. A. Pople, 
 Gaussian, Inc., Wallingford CT, 2004.
 
 ******************************************
 Gaussian 03:  EM64T-G03RevE.01 11-Sep-2007
                12-Jun-2015 
 ******************************************
 %nproc=2
 Will use up to    2 processors via shared memory.
 Default route:  MP2=Direct MaxDisk=2000MB
 ----------------------------------------------------
 # b3lyp/6-31+G(d,p) int=ultrafine pop=(ReadRadii,MK)
 ----------------------------------------------------

 Warning!  SCF SP cutoffs with diffuse functions may be unreliable.
 Consider SCF=Tight

 1/38=1/1;
 2/17=6,18=5,40=1/2;
 3/5=1,6=6,7=111,11=2,16=1,25=1,30=1,74=-5,75=5/1,2,3;
 4//1;
 5/5=2,32=1,38=5/2;
 6/7=2,8=2,9=2,10=2,15=8,20=101,28=1/1,2;
 99/5=1,9=1/99;
 -----------------------------------------
 mol_17.27.28.pdbcccc_plusQ.z58495.zip.xyz
 -----------------------------------------
 Symbolic Z-matrix:
 Charge =  1 Multiplicity = 1
 O                    -2.53643   1.26237   0.04586 
 O                    -1.14253   0.87748   0.15937 
 O                     1.46233  -0.42554   0.78965 
 O                     1.40893  -0.45695  -0.76841 
 Ca                    3.68001  -0.44389  -0.06958 
 Ca                    1.01289   1.80331  -0.00466 
 P                    -3.61708   0.06046  -0.11443 
 Ca                   -0.51491  -1.40483   0.10223 
 O                    -2.85524  -1.25718  -0.08189 
 
                          Input orientation:                          
 ---------------------------------------------------------------------
 Center     Atomic     Atomic              Coordinates (Angstroms)
 Number     Number      Type              X           Y           Z
 ---------------------------------------------------------------------
    1          8             0       -2.536430    1.262370    0.045860
    2          8             0       -1.142530    0.877480    0.159370
    3          8             0        1.462330   -0.425540    0.789650
    4          8             0        1.408930   -0.456950   -0.768410
    5         20             0        3.680010   -0.443890   -0.069580
    6         20             0        1.012890    1.803310   -0.004660
    7         15             0       -3.617080    0.060460   -0.114430
    8         20             0       -0.514910   -1.404830    0.102230
    9          8             0       -2.855240   -1.257180   -0.081890
 ---------------------------------------------------------------------
                    Distance matrix (angstroms):
                    1          2          3          4          5
     1  O    0.000000
     2  O    1.450511   0.000000
     3  O    4.403674   2.980002   0.000000
     4  O    4.380064   3.025133   1.559291   0.000000
     5  Ca   6.447385   5.005530   2.378385   2.376202   0.000000
     6  Ca   3.590660   2.351574   2.408464   2.418458   3.488216
     7  P    1.624218   2.620284   5.182081   5.094721   7.314636
     8  Ca   3.347189   2.367723   2.311068   2.314660   4.307003
     9  O    2.542851   2.747427   4.482479   4.392587   6.585673
                    6          7          8          9
     6  Ca   0.000000
     7  P    4.948353   0.000000
     8  Ca   3.554963   3.437655   0.000000
     9  O    4.933051   1.522378   2.352200   0.000000
 Stoichiometry    Ca3O5P(1+)
 Framework group  C1[X(Ca3O5P)]
 Deg. of freedom    21
 Full point group                 C1
 Largest Abelian subgroup         C1      NOp   1
 Largest concise Abelian subgroup C1      NOp   1
                         Standard orientation:                         
 ---------------------------------------------------------------------
 Center     Atomic     Atomic              Coordinates (Angstroms)
 Number     Number      Type              X           Y           Z
 ---------------------------------------------------------------------
    1          8             0       -2.536432    1.262367    0.045860
    2          8             0       -1.142531    0.877478    0.159370
    3          8             0        1.462330   -0.425540    0.789650
    4          8             0        1.408930   -0.456950   -0.768410
    5         20             0        3.680010   -0.443888   -0.069580
    6         20             0        1.012888    1.803310   -0.004660
    7         15             0       -3.617081    0.060456   -0.114430
    8         20             0       -0.514910   -1.404832    0.102230
    9          8             0       -2.855240   -1.257184   -0.081890
 ---------------------------------------------------------------------
 Rotational constants (GHZ):      1.6455738      0.3774066      0.3150284
 Standard basis: 6-31+G(d,p) (6D, 7F)
 There are   199 symmetry adapted basis functions of A   symmetry.
 Integral buffers will be    131072 words long.
 Raffenetti 2 integral format.
 Two-electron integral symmetry is turned on.
   199 basis functions,   456 primitive gaussians,   199 cartesian basis functions
    57 alpha electrons       57 beta electrons
       nuclear repulsion energy       954.3717275684 Hartrees.
 NAtoms=    9 NActive=    9 NUniq=    9 SFac= 7.50D-01 NAtFMM=   80 NAOKFM=F Big=F
 One-electron integrals computed using PRISM.
 NBasis=   199 RedAO= T  NBF=   199
 NBsUse=   199 1.00D-06 NBFU=   199
 Harris functional with IExCor=  402 diagonalized for initial guess.
 ExpMin= 7.10D-03 ExpMax= 3.53D+04 ExpMxC= 5.30D+03 IAcc=3 IRadAn=         5 AccDes= 0.00D+00
 HarFok:  IExCor= 402 AccDes= 0.00D+00 IRadAn=         5 IDoV=1
 ScaDFX=  1.000000  1.000000  1.000000  1.000000
 Initial guess orbital symmetries:
       Occupied  (A) (A) (A) (A) (A) (A) (A) (A) (A) (A) (A) (A)
                 (A) (A) (A) (A) (A) (A) (A) (A) (A) (A) (A) (A)
                 (A) (A) (A) (A) (A) (A) (A) (A) (A) (A) (A) (A)
                 (A) (A) (A) (A) (A) (A) (A) (A) (A) (A) (A) (A)
                 (A) (A) (A) (A) (A) (A) (A) (A) (A)
       Virtual   (A) (A) (A) (A) (A) (A) (A) (A) (A) (A) (A) (A)
                 (A) (A) (A) (A) (A) (A) (A) (A) (A) (A) (A) (A)
                 (A) (A) (A) (A) (A) (A) (A) (A) (A) (A) (A) (A)
                 (A) (A) (A) (A) (A) (A) (A) (A) (A) (A) (A) (A)
                 (A) (A) (A) (A) (A) (A) (A) (A) (A) (A) (A) (A)
                 (A) (A) (A) (A) (A) (A) (A) (A) (A) (A) (A) (A)
                 (A) (A) (A) (A) (A) (A) (A) (A) (A) (A) (A) (A)
                 (A) (A) (A) (A) (A) (A) (A) (A) (A) (A) (A) (A)
                 (A) (A) (A) (A) (A) (A) (A) (A) (A) (A) (A) (A)
                 (A) (A) (A) (A) (A) (A) (A) (A) (A) (A) (A) (A)
                 (A) (A) (A) (A) (A) (A) (A) (A) (A) (A) (A) (A)
                 (A) (A) (A) (A) (A) (A) (A) (A) (A) (A)
 The electronic state of the initial guess is 1-A.
 Requested convergence on RMS density matrix=1.00D-04 within 128 cycles.
 Requested convergence on MAX density matrix=1.00D-02.
 Requested convergence on             energy=1.00D-02.
 No special actions if energy rises.
 EnCoef did     9 forward-backward iterations
 EnCoef did   100 forward-backward iterations
 EnCoef did     7 forward-backward iterations
 EnCoef did     1 forward-backward iterations
 SCF Done:  E(RB+HF-LYP) =  -2750.03894038     A.U. after   12 cycles
             Convg  =    0.7148D-04             -V/T =  2.0029
             S**2   =   0.0000

 **********************************************************************

            Population analysis using the SCF density.

 **********************************************************************

 Orbital symmetries:
       Occupied  (A) (A) (A) (A) (A) (A) (A) (A) (A) (A) (A) (A)
                 (A) (A) (A) (A) (A) (A) (A) (A) (A) (A) (A) (A)
                 (A) (A) (A) (A) (A) (A) (A) (A) (A) (A) (A) (A)
                 (A) (A) (A) (A) (A) (A) (A) (A) (A) (A) (A) (A)
                 (A) (A) (A) (A) (A) (A) (A) (A) (A)
       Virtual   (A) (A) (A) (A) (A) (A) (A) (A) (A) (A) (A) (A)
                 (A) (A) (A) (A) (A) (A) (A) (A) (A) (A) (A) (A)
                 (A) (A) (A) (A) (A) (A) (A) (A) (A) (A) (A) (A)
                 (A) (A) (A) (A) (A) (A) (A) (A) (A) (A) (A) (A)
                 (A) (A) (A) (A) (A) (A) (A) (A) (A) (A) (A) (A)
                 (A) (A) (A) (A) (A) (A) (A) (A) (A) (A) (A) (A)
                 (A) (A) (A) (A) (A) (A) (A) (A) (A) (A) (A) (A)
                 (A) (A) (A) (A) (A) (A) (A) (A) (A) (A) (A) (A)
                 (A) (A) (A) (A) (A) (A) (A) (A) (A) (A) (A) (A)
                 (A) (A) (A) (A) (A) (A) (A) (A) (A) (A) (A) (A)
                 (A) (A) (A) (A) (A) (A) (A) (A) (A) (A) (A) (A)
                 (A) (A) (A) (A) (A) (A) (A) (A) (A) (A)
 The electronic state is 1-A.
 Alpha  occ. eigenvalues -- -145.51714-145.50989-145.50239 -77.32927 -19.37637
 Alpha  occ. eigenvalues --  -19.31024 -19.30918 -19.28532 -19.28476 -15.58566
 Alpha  occ. eigenvalues --  -15.57873 -15.57204 -12.71801 -12.71774 -12.71653
 Alpha  occ. eigenvalues --  -12.71075 -12.71034 -12.71010 -12.70399 -12.70370
 Alpha  occ. eigenvalues --  -12.70302  -6.78658  -4.94973  -4.94950  -4.94428
 Alpha  occ. eigenvalues --   -1.95777  -1.94978  -1.94299  -1.25146  -1.24310
 Alpha  occ. eigenvalues --   -1.23476  -1.22821  -1.22588  -1.22471  -1.22052
 Alpha  occ. eigenvalues --   -1.21691  -1.21662  -1.21634  -1.14539  -1.11696
 Alpha  occ. eigenvalues --   -0.99834  -0.92199  -0.71670  -0.62618  -0.59450
 Alpha  occ. eigenvalues --   -0.57789  -0.51884  -0.51316  -0.50925  -0.50709
 Alpha  occ. eigenvalues --   -0.50114  -0.46083  -0.42588  -0.41027  -0.39250
 Alpha  occ. eigenvalues --   -0.37775  -0.25006
 Alpha virt. eigenvalues --   -0.22682  -0.19169  -0.18867  -0.15890  -0.15548
 Alpha virt. eigenvalues --   -0.13410  -0.11766  -0.11508  -0.10597  -0.10284
 Alpha virt. eigenvalues --   -0.10047  -0.08235  -0.07643  -0.07308  -0.06958
 Alpha virt. eigenvalues --   -0.06779  -0.06431  -0.05555  -0.05331  -0.05097
 Alpha virt. eigenvalues --   -0.04681  -0.04596  -0.04362  -0.04265  -0.03964
 Alpha virt. eigenvalues --   -0.03382  -0.03119  -0.03062  -0.02687  -0.02074
 Alpha virt. eigenvalues --   -0.00562   0.01481   0.01761   0.02131   0.02903
 Alpha virt. eigenvalues --    0.03269   0.03590   0.03826   0.04637   0.05150
 Alpha virt. eigenvalues --    0.05667   0.05790   0.06353   0.06499   0.06935
 Alpha virt. eigenvalues --    0.07493   0.07725   0.07883   0.08302   0.09080
 Alpha virt. eigenvalues --    0.09851   0.10020   0.11261   0.12172   0.13717
 Alpha virt. eigenvalues --    0.13885   0.14434   0.15433   0.16020   0.17886
 Alpha virt. eigenvalues --    0.18126   0.19480   0.19941   0.21584   0.23355
 Alpha virt. eigenvalues --    0.24439   0.24723   0.26150   0.30443   0.30754
 Alpha virt. eigenvalues --    0.30905   0.32394   0.33351   0.34348   0.36006
 Alpha virt. eigenvalues --    0.37474   0.39428   0.40331   0.44467   0.46810
 Alpha virt. eigenvalues --    0.47438   0.49059   0.51387   0.54320   0.54608
 Alpha virt. eigenvalues --    0.60957   0.72585   0.80661   0.83560   0.90514
 Alpha virt. eigenvalues --    0.93817   1.00114   1.04376   1.05299   1.09832
 Alpha virt. eigenvalues --    1.10215   1.10394   1.11715   1.12534   1.14122
 Alpha virt. eigenvalues --    1.15089   1.20547   1.22555   1.24679   1.27926
 Alpha virt. eigenvalues --    1.32842   1.38063   1.39934   1.41000   1.47651
 Alpha virt. eigenvalues --    1.50687   1.55232   1.56968   1.58558   1.60619
 Alpha virt. eigenvalues --    1.65954   1.67946   1.73096   1.74110   1.76530
 Alpha virt. eigenvalues --    1.78644   1.80806   1.82264   1.83446   1.85288
 Alpha virt. eigenvalues --    1.87978   1.91099   1.95680   2.15241   2.16433
 Alpha virt. eigenvalues --    2.21763   2.26219   2.44053   2.65930   2.99487
 Alpha virt. eigenvalues --    3.04569   3.38323   3.74069   3.88618   4.03407
 Alpha virt. eigenvalues --    4.09176   4.17134
          Condensed to atoms (all electrons):
              1          2          3          4          5          6
     1  O    8.301798   0.022235   0.001755  -0.004065   0.013217   0.013672
     2  O    0.022235   8.510677   0.019572   0.020023  -0.011140  -0.004101
     3  O    0.001755   0.019572   8.646530   0.006971  -0.090980  -0.078524
     4  O   -0.004065   0.020023   0.006971   8.683944  -0.099431  -0.084235
     5  Ca   0.013217  -0.011140  -0.090980  -0.099431  19.120515   0.322339
     6  Ca   0.013672  -0.004101  -0.078524  -0.084235   0.322339  18.923429
     7  P    0.003295  -0.080722  -0.004592  -0.002655  -0.007275   0.027688
     8  Ca  -0.009760   0.063557   0.051978   0.050206   0.073682   0.063003
     9  O   -0.031813  -0.027300  -0.000298  -0.000706   0.005307  -0.002993
              7          8          9
     1  O    0.003295  -0.009760  -0.031813
     2  O   -0.080722   0.063557  -0.027300
     3  O   -0.004592   0.051978  -0.000298
     4  O   -0.002655   0.050206  -0.000706
     5  Ca  -0.007275   0.073682   0.005307
     6  Ca   0.027688   0.063003  -0.002993
     7  P   14.129517  -0.015024   0.167073
     8  Ca  -0.015024  18.328541   0.050262
     9  O    0.167073   0.050262   8.514610
 Mulliken atomic charges:
              1
     1  O   -0.310334
     2  O   -0.512800
     3  O   -0.552411
     4  O   -0.570052
     5  Ca   0.673766
     6  Ca   0.819723
     7  P    0.782696
     8  Ca   1.343555
     9  O   -0.674143
 Sum of Mulliken charges=   1.00000
 Atomic charges with hydrogens summed into heavy atoms:
              1
     1  O   -0.310334
     2  O   -0.512800
     3  O   -0.552411
     4  O   -0.570052
     5  Ca   0.673766
     6  Ca   0.819723
     7  P    0.782696
     8  Ca   1.343555
     9  O   -0.674143
 Sum of Mulliken charges=   1.00000
 Electronic spatial extent (au):  <R**2>=  3036.7648
 Charge=     1.0000 electrons
 Dipole moment (field-independent basis, Debye):
    X=     1.2217    Y=    -3.0595    Z=     0.0923  Tot=     3.2957
 Quadrupole moment (field-independent basis, Debye-Ang):
   XX=   -56.4808   YY=   -66.8112   ZZ=   -86.5015
   XY=    -4.2052   XZ=    -0.0867   YZ=    -1.3486
 Traceless Quadrupole moment (field-independent basis, Debye-Ang):
   XX=    13.4504   YY=     3.1200   ZZ=   -16.5703
   XY=    -4.2052   XZ=    -0.0867   YZ=    -1.3486
 Octapole moment (field-independent basis, Debye-Ang**2):
  XXX=   -11.8090  YYY=   -20.5152  ZZZ=     2.5291  XYY=   -10.3270
  XXY=   -38.5527  XXZ=    -2.1403  XZZ=   -29.0666  YZZ=    -7.5802
  YYZ=     3.0057  XYZ=     3.3177
 Hexadecapole moment (field-independent basis, Debye-Ang**3):
 XXXX= -2791.6991 YYYY=  -694.4209 ZZZZ=  -195.3344 XXXY=  -232.2396
 XXXZ=    -2.1223 YYYX=   -24.1524 YYYZ=    -2.8013 ZZZX=     3.5829
 ZZZY=    -0.6651 XXYY=  -758.4531 XXZZ=  -592.6913 YYZZ=  -159.0408
 XXYZ=     0.8182 YYXZ=     0.5717 ZZXY=    -7.9044
 N-N= 9.543717275684D+02 E-N=-8.405194022173D+03  KE= 2.742157943413D+03
 Merz-Kollman atomic radii used.
 Read replacement radii for each type of atom:
 Rad(20) =   1.188000000000D+00
 Atom Element Radius
    1     8    1.40
    2     8    1.40
    3     8    1.40
    4     8    1.40
    5    20    1.19
    6    20    1.19
    7    15    1.80
    8    20    1.19
    9     8    1.40

 **********************************************************************

            Electrostatic Properties Using The SCF Density

 **********************************************************************

       Atomic Center    1 is at  -2.536432  1.262367  0.045860
       Atomic Center    2 is at  -1.142531  0.877478  0.159370
       Atomic Center    3 is at   1.462330 -0.425540  0.789650
       Atomic Center    4 is at   1.408930 -0.456950 -0.768410
       Atomic Center    5 is at   3.680010 -0.443888 -0.069580
       Atomic Center    6 is at   1.012888  1.803310 -0.004660
       Atomic Center    7 is at  -3.617081  0.060456 -0.114430
       Atomic Center    8 is at  -0.514910 -1.404832  0.102230
       Atomic Center    9 is at  -2.855240 -1.257184 -0.081890
     845 points will be used for fitting atomic charges
 Fitting point charges to eletrostatic potential
 Charges from ESP fit, RMS=   0.02270 RRMS=   0.15103:
 Charge=   1.00000 Dipole=     6.6960    -1.0386     0.0093 Tot=     6.7761
              1
     1  O   -0.321094
     2  O   -0.144305
     3  O   -0.747906
     4  O   -0.690075
     5  Ca   0.692734
     6  Ca   0.771504
     7  P    0.483028
     8  Ca   1.549814
     9  O   -0.593701
 -----------------------------------------------------------------

              Electrostatic Properties (Atomic Units)

 -----------------------------------------------------------------
    Center     Electric         -------- Electric Field --------
               Potential          X             Y             Z
 -----------------------------------------------------------------
    1 Atom    -22.084835
    2 Atom    -22.156537
    3 Atom    -22.187117
    4 Atom    -22.189404
    5 Atom    -80.042365
    6 Atom    -80.034591
    7 Atom    -53.885145
    8 Atom    -80.023865
    9 Atom    -22.151726
 -----------------------------------------------------------------
 1\1\GINC-N026\SP\RB3LYP\6-31+G(d,p)\Ca3O5P1(1+)\TIMN\12-Jun-2015\0\\# 
 b3lyp/6-31+G(d,p) int=ultrafine pop=(ReadRadii,MK)\\mol_17.27.28.pdbcc
 cc_plusQ.z58495.zip.xyz\\1,1\O,0,-2.53643,1.26237,0.04586\O,0,-1.14253
 ,0.87748,0.15937\O,0,1.46233,-0.42554,0.78965\O,0,1.40893,-0.45695,-0.
 76841\Ca,0,3.68001,-0.44389,-0.06958\Ca,0,1.01289,1.80331,-0.00466\P,0
 ,-3.61708,0.06046,-0.11443\Ca,0,-0.51491,-1.40483,0.10223\O,0,-2.85524
 ,-1.25718,-0.08189\\Version=EM64T-G03RevE.01\State=1-A\HF=-2750.038940
 4\RMSD=7.148e-05\Thermal=0.\Dipole=0.4806343,-1.2036895,0.0362982\PG=C
 01 [X(Ca3O5P1)]\\@


 IT'S WHAT A FELLER THINKS HE KNOWS THAT HURTS HIM...
                    ------
           KIN HUBBARD
 Job cpu time:  0 days  0 hours  2 minutes 48.2 seconds.
 File lengths (MBytes):  RWF=     36 Int=      0 D2E=      0 Chk=     11 Scr=      1
 Normal termination of Gaussian 03 at Fri Jun 12 18:07:13 2015.
