 Entering Gaussian System, Link 0=/home/timn/tmp/g03.e01/g03
 Input=mol_16.5.5.pdb_plusQ.out.z51630.zip.xyz.gjf
 Output=mol_16.5.5.pdb_plusQ.out.z51630.zip.xyz.out
 Initial command:
 /home/timn/tmp/g03.e01/l1.exe /home/timn/tmp/g03.e01/Gau-16853.inp -scrdir=/home/timn/tmp/g03.e01/
 Default is to use a total of   2 processors:
                                2 via shared-memory
                                1 via Linda
 Entering Link 1 = /home/timn/tmp/g03.e01/l1.exe PID=     16854.
  
 Copyright (c) 1988,1990,1992,1993,1995,1998,2003,2004,2007, Gaussian, Inc.
                  All Rights Reserved.
  
 This is the Gaussian(R) 03 program.  It is based on the
 the Gaussian(R) 98 system (copyright 1998, Gaussian, Inc.),
 the Gaussian(R) 94 system (copyright 1995, Gaussian, Inc.),
 the Gaussian 92(TM) system (copyright 1992, Gaussian, Inc.),
 the Gaussian 90(TM) system (copyright 1990, Gaussian, Inc.),
 the Gaussian 88(TM) system (copyright 1988, Gaussian, Inc.),
 the Gaussian 86(TM) system (copyright 1986, Carnegie Mellon
 University), and the Gaussian 82(TM) system (copyright 1983,
 Carnegie Mellon University). Gaussian is a federally registered
 trademark of Gaussian, Inc.
  
 This software contains proprietary and confidential information,
 including trade secrets, belonging to Gaussian, Inc.
  
 This software is provided under written license and may be
 used, copied, transmitted, or stored only in accord with that
 written license.
  
 The following legend is applicable only to US Government
 contracts under FAR:
  
                    RESTRICTED RIGHTS LEGEND
  
 Use, reproduction and disclosure by the US Government is
 subject to restrictions as set forth in subparagraphs (a)
 and (c) of the Commercial Computer Software - Restricted
 Rights clause in FAR 52.227-19.
  
 Gaussian, Inc.
 340 Quinnipiac St., Bldg. 40, Wallingford CT 06492
  
  
 ---------------------------------------------------------------
 Warning -- This program may not be used in any manner that
 competes with the business of Gaussian, Inc. or will provide
 assistance to any competitor of Gaussian, Inc.  The licensee
 of this program is prohibited from giving any competitor of
 Gaussian, Inc. access to this program.  By using this program,
 the user acknowledges that Gaussian, Inc. is engaged in the
 business of creating and licensing software in the field of
 computational chemistry and represents and warrants to the
 licensee that it is not a competitor of Gaussian, Inc. and that
 it will not use this program in any manner prohibited above.
 ---------------------------------------------------------------
  

 Cite this work as:
 Gaussian 03, Revision E.01,
 M. J. Frisch, G. W. Trucks, H. B. Schlegel, G. E. Scuseria, 
 M. A. Robb, J. R. Cheeseman, J. A. Montgomery, Jr., T. Vreven, 
 K. N. Kudin, J. C. Burant, J. M. Millam, S. S. Iyengar, J. Tomasi, 
 V. Barone, B. Mennucci, M. Cossi, G. Scalmani, N. Rega, 
 G. A. Petersson, H. Nakatsuji, M. Hada, M. Ehara, K. Toyota, 
 R. Fukuda, J. Hasegawa, M. Ishida, T. Nakajima, Y. Honda, O. Kitao, 
 H. Nakai, M. Klene, X. Li, J. E. Knox, H. P. Hratchian, J. B. Cross, 
 V. Bakken, C. Adamo, J. Jaramillo, R. Gomperts, R. E. Stratmann, 
 O. Yazyev, A. J. Austin, R. Cammi, C. Pomelli, J. W. Ochterski, 
 P. Y. Ayala, K. Morokuma, G. A. Voth, P. Salvador, J. J. Dannenberg, 
 V. G. Zakrzewski, S. Dapprich, A. D. Daniels, M. C. Strain, 
 O. Farkas, D. K. Malick, A. D. Rabuck, K. Raghavachari, 
 J. B. Foresman, J. V. Ortiz, Q. Cui, A. G. Baboul, S. Clifford, 
 J. Cioslowski, B. B. Stefanov, G. Liu, A. Liashenko, P. Piskorz, 
 I. Komaromi, R. L. Martin, D. J. Fox, T. Keith, M. A. Al-Laham, 
 C. Y. Peng, A. Nanayakkara, M. Challacombe, P. M. W. Gill, 
 B. Johnson, W. Chen, M. W. Wong, C. Gonzalez, and J. A. Pople, 
 Gaussian, Inc., Wallingford CT, 2004.
 
 ******************************************
 Gaussian 03:  EM64T-G03RevE.01 11-Sep-2007
                12-Jun-2015 
 ******************************************
 %nproc=2
 Will use up to    2 processors via shared memory.
 Default route:  MP2=Direct MaxDisk=2000MB
 ----------------------------------------------------
 # b3lyp/6-31+G(d,p) int=ultrafine pop=(ReadRadii,MK)
 ----------------------------------------------------

 Warning!  SCF SP cutoffs with diffuse functions may be unreliable.
 Consider SCF=Tight

 1/38=1/1;
 2/17=6,18=5,40=1/2;
 3/5=1,6=6,7=111,11=2,16=1,25=1,30=1,74=-5,75=5/1,2,3;
 4//1;
 5/5=2,32=1,38=5/2;
 6/7=2,8=2,9=2,10=2,15=8,20=101,28=1/1,2;
 99/5=1,9=1/99;
 ---------------------------------------
 mol_16.5.5.pdb_plusQ.out.z51630.zip.xyz
 ---------------------------------------
 Symbolic Z-matrix:
 Charge =  1 Multiplicity = 1
 O                    -1.71332   0.00239   0.78646 
 O                    -1.71384   0.00237  -0.7857 
 P                     2.32007  -0.00327   0.00012 
 Ca                   -0.76437  -1.85711  -0.00012 
 O                     1.4404   -1.27534  -0.00024 
 Ca                   -0.75878   1.85908  -0.0002 
 O                     1.44451   1.2718    0.00006 
 
                          Input orientation:                          
 ---------------------------------------------------------------------
 Center     Atomic     Atomic              Coordinates (Angstroms)
 Number     Number      Type              X           Y           Z
 ---------------------------------------------------------------------
    1          8             0       -1.713320    0.002390    0.786460
    2          8             0       -1.713840    0.002370   -0.785700
    3         15             0        2.320070   -0.003270    0.000120
    4         20             0       -0.764370   -1.857110   -0.000120
    5          8             0        1.440400   -1.275340   -0.000240
    6         20             0       -0.758780    1.859080   -0.000200
    7          8             0        1.444510    1.271800    0.000060
 ---------------------------------------------------------------------
                    Distance matrix (angstroms):
                    1          2          3          4          5
     1  O    0.000000
     2  O    1.572160   0.000000
     3  P    4.109331   4.109741   0.000000
     4  Ca   2.230909   2.230761   3.598679   0.000000
     5  O    3.492483   3.492667   1.546603   2.280234   0.000000
     6  Ca   2.230981   2.230812   3.598286   3.716194   3.828966
     7  O    3.493096   3.493429   1.546741   3.830043   2.547143
                    6          7
     6  Ca   0.000000
     7  O    2.280216   0.000000
 Stoichiometry    Ca2O4P(1+)
 Framework group  C1[X(Ca2O4P)]
 Deg. of freedom    15
 Full point group                 C1
 Largest Abelian subgroup         C1      NOp   1
 Largest concise Abelian subgroup C1      NOp   1
                         Standard orientation:                         
 ---------------------------------------------------------------------
 Center     Atomic     Atomic              Coordinates (Angstroms)
 Number     Number      Type              X           Y           Z
 ---------------------------------------------------------------------
    1          8             0       -1.713321    0.002363    0.786460
    2          8             0       -1.713841    0.002343   -0.785700
    3         15             0        2.320069   -0.003237    0.000120
    4         20             0       -0.764343   -1.857123   -0.000120
    5          8             0        1.440418   -1.275320   -0.000240
    6         20             0       -0.758808    1.859067   -0.000200
    7          8             0        1.444491    1.271820    0.000060
 ---------------------------------------------------------------------
 Rotational constants (GHZ):      1.4539187      1.2849354      0.7205554
 Standard basis: 6-31+G(d,p) (6D, 7F)
 There are   153 symmetry adapted basis functions of A   symmetry.
 Integral buffers will be    131072 words long.
 Raffenetti 2 integral format.
 Two-electron integral symmetry is turned on.
   153 basis functions,   344 primitive gaussians,   153 cartesian basis functions
    43 alpha electrons       43 beta electrons
       nuclear repulsion energy       602.1269726918 Hartrees.
 NAtoms=    7 NActive=    7 NUniq=    7 SFac= 7.50D-01 NAtFMM=   80 NAOKFM=F Big=F
 One-electron integrals computed using PRISM.
 NBasis=   153 RedAO= T  NBF=   153
 NBsUse=   153 1.00D-06 NBFU=   153
 Harris functional with IExCor=  402 diagonalized for initial guess.
 ExpMin= 7.10D-03 ExpMax= 3.53D+04 ExpMxC= 5.30D+03 IAcc=3 IRadAn=         5 AccDes= 0.00D+00
 HarFok:  IExCor= 402 AccDes= 0.00D+00 IRadAn=         5 IDoV=1
 ScaDFX=  1.000000  1.000000  1.000000  1.000000
 Initial guess orbital symmetries:
       Occupied  (A) (A) (A) (A) (A) (A) (A) (A) (A) (A) (A) (A)
                 (A) (A) (A) (A) (A) (A) (A) (A) (A) (A) (A) (A)
                 (A) (A) (A) (A) (A) (A) (A) (A) (A) (A) (A) (A)
                 (A) (A) (A) (A) (A) (A) (A)
       Virtual   (A) (A) (A) (A) (A) (A) (A) (A) (A) (A) (A) (A)
                 (A) (A) (A) (A) (A) (A) (A) (A) (A) (A) (A) (A)
                 (A) (A) (A) (A) (A) (A) (A) (A) (A) (A) (A) (A)
                 (A) (A) (A) (A) (A) (A) (A) (A) (A) (A) (A) (A)
                 (A) (A) (A) (A) (A) (A) (A) (A) (A) (A) (A) (A)
                 (A) (A) (A) (A) (A) (A) (A) (A) (A) (A) (A) (A)
                 (A) (A) (A) (A) (A) (A) (A) (A) (A) (A) (A) (A)
                 (A) (A) (A) (A) (A) (A) (A) (A) (A) (A) (A) (A)
                 (A) (A) (A) (A) (A) (A) (A) (A) (A) (A) (A) (A)
                 (A) (A)
 The electronic state of the initial guess is 1-A.
 Requested convergence on RMS density matrix=1.00D-04 within 128 cycles.
 Requested convergence on MAX density matrix=1.00D-02.
 Requested convergence on             energy=1.00D-02.
 No special actions if energy rises.
 SCF Done:  E(RB+HF-LYP) =  -1997.33372463     A.U. after    6 cycles
             Convg  =    0.4408D-04             -V/T =  2.0031
             S**2   =   0.0000

 **********************************************************************

            Population analysis using the SCF density.

 **********************************************************************

 Orbital symmetries:
       Occupied  (A) (A) (A) (A) (A) (A) (A) (A) (A) (A) (A) (A)
                 (A) (A) (A) (A) (A) (A) (A) (A) (A) (A) (A) (A)
                 (A) (A) (A) (A) (A) (A) (A) (A) (A) (A) (A) (A)
                 (A) (A) (A) (A) (A) (A) (A)
       Virtual   (A) (A) (A) (A) (A) (A) (A) (A) (A) (A) (A) (A)
                 (A) (A) (A) (A) (A) (A) (A) (A) (A) (A) (A) (A)
                 (A) (A) (A) (A) (A) (A) (A) (A) (A) (A) (A) (A)
                 (A) (A) (A) (A) (A) (A) (A) (A) (A) (A) (A) (A)
                 (A) (A) (A) (A) (A) (A) (A) (A) (A) (A) (A) (A)
                 (A) (A) (A) (A) (A) (A) (A) (A) (A) (A) (A) (A)
                 (A) (A) (A) (A) (A) (A) (A) (A) (A) (A) (A) (A)
                 (A) (A) (A) (A) (A) (A) (A) (A) (A) (A) (A) (A)
                 (A) (A) (A) (A) (A) (A) (A) (A) (A) (A) (A) (A)
                 (A) (A)
 The electronic state is 1-A.
 Alpha  occ. eigenvalues -- -145.53247-145.53246 -77.30165 -19.27958 -19.27949
 Alpha  occ. eigenvalues --  -19.25589 -19.25583 -15.60094 -15.60093 -12.73309
 Alpha  occ. eigenvalues --  -12.73308 -12.73291 -12.73290 -12.73209 -12.73206
 Alpha  occ. eigenvalues --   -6.75646  -4.92086  -4.91871  -4.91426  -1.97237
 Alpha  occ. eigenvalues --   -1.97210  -1.25766  -1.24806  -1.24792  -1.24726
 Alpha  occ. eigenvalues --   -1.24726  -1.24303  -1.13922  -1.08554  -1.08256
 Alpha  occ. eigenvalues --   -0.89515  -0.67707  -0.57281  -0.52822  -0.52599
 Alpha  occ. eigenvalues --   -0.48995  -0.47947  -0.46122  -0.45762  -0.43901
 Alpha  occ. eigenvalues --   -0.40702  -0.37186  -0.34162
 Alpha virt. eigenvalues --   -0.20456  -0.19856  -0.19631  -0.14477  -0.11367
 Alpha virt. eigenvalues --   -0.11280  -0.10319  -0.09667  -0.09036  -0.07376
 Alpha virt. eigenvalues --   -0.07216  -0.06432  -0.05962  -0.05215  -0.04858
 Alpha virt. eigenvalues --   -0.04431  -0.04390  -0.04083  -0.03999  -0.03875
 Alpha virt. eigenvalues --   -0.03337  -0.02378   0.00221   0.01109   0.02011
 Alpha virt. eigenvalues --    0.02949   0.03324   0.03644   0.04210   0.05048
 Alpha virt. eigenvalues --    0.05143   0.05190   0.06779   0.07028   0.07277
 Alpha virt. eigenvalues --    0.07477   0.08123   0.08215   0.12231   0.13582
 Alpha virt. eigenvalues --    0.14151   0.14767   0.16274   0.16814   0.16921
 Alpha virt. eigenvalues --    0.18688   0.20333   0.21715   0.24406   0.26748
 Alpha virt. eigenvalues --    0.28308   0.29464   0.31797   0.32142   0.32486
 Alpha virt. eigenvalues --    0.36020   0.36747   0.40443   0.43968   0.45536
 Alpha virt. eigenvalues --    0.48008   0.56596   0.57818   0.60212   0.65642
 Alpha virt. eigenvalues --    0.71333   0.87004   0.90190   0.94367   1.03578
 Alpha virt. eigenvalues --    1.05863   1.07982   1.08399   1.12008   1.12337
 Alpha virt. eigenvalues --    1.14814   1.15157   1.17892   1.20707   1.23934
 Alpha virt. eigenvalues --    1.28614   1.38342   1.43003   1.46785   1.50556
 Alpha virt. eigenvalues --    1.50914   1.58078   1.66233   1.68013   1.70644
 Alpha virt. eigenvalues --    1.71270   1.75747   1.80027   1.81205   1.82385
 Alpha virt. eigenvalues --    1.84424   1.85974   1.86049   1.92954   2.09459
 Alpha virt. eigenvalues --    2.16220   2.16988   2.53526   2.67502   3.00318
 Alpha virt. eigenvalues --    3.38476   3.83793   3.90574   3.97504   4.05866
          Condensed to atoms (all electrons):
              1          2          3          4          5          6
     1  O    8.515861  -0.059951  -0.004377   0.105952   0.002545   0.105934
     2  O   -0.059951   8.515929  -0.004390   0.105964   0.002542   0.105980
     3  P   -0.004377  -0.004390  14.566647  -0.019092  -0.094412  -0.019098
     4  Ca   0.105952   0.105964  -0.019092  18.210040   0.067437  -0.016660
     5  O    0.002545   0.002542  -0.094412   0.067437   8.815195   0.002338
     6  Ca   0.105934   0.105980  -0.019098  -0.016660   0.002338  18.210038
     7  O    0.002553   0.002540  -0.094158   0.002348  -0.085906   0.067462
              7
     1  O    0.002553
     2  O    0.002540
     3  P   -0.094158
     4  Ca   0.002348
     5  O   -0.085906
     6  Ca   0.067462
     7  O    8.815189
 Mulliken atomic charges:
              1
     1  O   -0.668518
     2  O   -0.668614
     3  P    0.668881
     4  Ca   1.544012
     5  O   -0.709739
     6  Ca   1.544005
     7  O   -0.710028
 Sum of Mulliken charges=   1.00000
 Atomic charges with hydrogens summed into heavy atoms:
              1
     1  O   -0.668518
     2  O   -0.668614
     3  P    0.668881
     4  Ca   1.544012
     5  O   -0.709739
     6  Ca   1.544005
     7  O   -0.710028
 Sum of Mulliken charges=   1.00000
 Electronic spatial extent (au):  <R**2>=  1378.3523
 Charge=     1.0000 electrons
 Dipole moment (field-independent basis, Debye):
    X=    -3.1392    Y=     0.0003    Z=    -0.0036  Tot=     3.1392
 Quadrupole moment (field-independent basis, Debye-Ang):
   XX=   -66.5079   YY=    -8.8873   ZZ=   -58.2533
   XY=     0.0802   XZ=     0.0047   YZ=    -0.0027
 Traceless Quadrupole moment (field-independent basis, Debye-Ang):
   XX=   -21.9584   YY=    35.6622   ZZ=   -13.7038
   XY=     0.0802   XZ=     0.0047   YZ=    -0.0027
 Octapole moment (field-independent basis, Debye-Ang**2):
  XXX=     6.9446  YYY=     0.2652  ZZZ=    -0.0115  XYY=   -70.8648
  XXY=    -0.2277  XXZ=    -0.0051  XZZ=     1.4174  YZZ=    -0.0033
  YYZ=    -0.0109  XYZ=    -0.0010
 Hexadecapole moment (field-independent basis, Debye-Ang**3):
 XXXX=  -943.0294 YYYY=  -329.5569 ZZZZ=  -103.9462 XXXY=     0.3370
 XXXZ=     0.0002 YYYX=     0.4242 YYYZ=    -0.0112 ZZZX=     0.0156
 ZZZY=    -0.0045 XXYY=  -220.7562 XXZZ=  -174.5024 YYZZ=  -103.3804
 XXYZ=    -0.0047 YYXZ=     0.0123 ZZXY=     0.0825
 N-N= 6.021269726918D+02 E-N=-5.923687472835D+03  KE= 1.991110232528D+03
 Merz-Kollman atomic radii used.
 Read replacement radii for each type of atom:
 Rad(20) =   1.188000000000D+00
 Atom Element Radius
    1     8    1.40
    2     8    1.40
    3    15    1.80
    4    20    1.19
    5     8    1.40
    6    20    1.19
    7     8    1.40

 **********************************************************************

            Electrostatic Properties Using The SCF Density

 **********************************************************************

       Atomic Center    1 is at  -1.713321  0.002363  0.786460
       Atomic Center    2 is at  -1.713841  0.002343 -0.785700
       Atomic Center    3 is at   2.320069 -0.003237  0.000120
       Atomic Center    4 is at  -0.764343 -1.857123 -0.000120
       Atomic Center    5 is at   1.440418 -1.275320 -0.000240
       Atomic Center    6 is at  -0.758808  1.859067 -0.000200
       Atomic Center    7 is at   1.444491  1.271820  0.000060
     705 points will be used for fitting atomic charges
 Fitting point charges to eletrostatic potential
 Charges from ESP fit, RMS=   0.00424 RRMS=   0.02787:
 Charge=   1.00000 Dipole=    -2.9800     0.0000    -0.0034 Tot=     2.9800
              1
     1  O   -0.787519
     2  O   -0.787810
     3  P    0.639838
     4  Ca   1.723251
     5  O   -0.755421
     6  Ca   1.723251
     7  O   -0.755591
 -----------------------------------------------------------------

              Electrostatic Properties (Atomic Units)

 -----------------------------------------------------------------
    Center     Electric         -------- Electric Field --------
               Potential          X             Y             Z
 -----------------------------------------------------------------
    1 Atom    -22.214037
    2 Atom    -22.214106
    3 Atom    -53.916325
    4 Atom    -80.007927
    5 Atom    -22.183948
    6 Atom    -80.007958
    7 Atom    -22.184273
 -----------------------------------------------------------------
 1\1\GINC-N028\SP\RB3LYP\6-31+G(d,p)\Ca2O4P1(1+)\TIMN\12-Jun-2015\0\\# 
 b3lyp/6-31+G(d,p) int=ultrafine pop=(ReadRadii,MK)\\mol_16.5.5.pdb_plu
 sQ.out.z51630.zip.xyz\\1,1\O,0,-1.71332,0.00239,0.78646\O,0,-1.71384,0
 .00237,-0.7857\P,0,2.32007,-0.00327,0.00012\Ca,0,-0.76437,-1.85711,-0.
 00012\O,0,1.4404,-1.27534,-0.00024\Ca,0,-0.75878,1.85908,-0.0002\O,0,1
 .44451,1.2718,0.00006\\Version=EM64T-G03RevE.01\State=1-A\HF=-1997.333
 7246\RMSD=4.408e-05\Thermal=0.\Dipole=-1.2350552,0.0001335,-0.0013971\
 PG=C01 [X(Ca2O4P1)]\\@


 "THE ACADEMIC HIERARCHY"


 THE PRESIDENT:
   LEAPS TALL BUILDINGS IN A SINGLE BOUND,
     IS MORE POWERFUL THAN A LOCOMOTIVE,
       IS FASTER THAN A SPEEDING BULLET,
         WALKS ON WATER,
           GIVES POLICY TO GOD.

 THE VICE PRESIDENT FOR ACADEMIC AFFAIRS:
   LEAPS SHORT BUILDINGS IN A SINGLE BOUND,
     IS MORE POWERFUL THAN A SWITCH ENGINE,
       IS JUST AS FAST AS A SPEEDING BULLET,
         WALKS ON WATER IF SEA IS CALM,
           TALKS WITH GOD.

 PROFESSOR:
   LEAPS SHORT BUILDINGS WITH A RUNNING START AND FAVORABLE WINDS,
     IS ALMOST AS POWERFUL AS A SWITCH ENGINE,
       CAN FIRE A SPEEDING BULLET,
         WALKS ON WATER IN AN INDOOR SWIMMING POOL,
          TALKS WITH GOD IF SPECIAL REQUEST IS APPROVED.

 ASSOCIATE PROFESSOR:
   BARELY CLEARS A QUONSET HUT,
     LOSES TUG OF WAR WITH LOCOMOTIVE,
       MISFIRES FREQUENTLY,
         SWIMS WELL,
           IS OCCASIONALLY ADDRESSED BY GOD.

 ASSISTANT PROFESSOR:
   MAKES HIGH MARKS ON WALLS WHEN TRYING TO LEAP TALL BUILDINGS,
     IS RUN OVER BY LOCOMOTIVES,
       CAN SOMETIMES HANDLE A GUN WITHOUT INFLICTING SELF INJURY,
         DOG PADDLES,
           TALKS TO ANIMALS.

 GRADUATE STUDENT:
   RUNS INTO BUILDINGS,
     RECOGNIZES LOCOMOTIVES TWO OUT OF THREE TIMES,
       IS NOT ISSUED AMMUNITION,
         CAN STAY AFLOAT WITH A LIFE JACKET,
           TALKS TO WALLS.

 UNDERGRADUATE AND WORK STUDY STUDENT:
   FALLS OVER DOORSTEP WHEN TRYING TO ENTER BUILDINGS,
     SAYS, "LOOK AT THE CHOO-CHOO,"
       WETS HIMSELF WITH A WATER PISTOL,
        PLAYS IN MUD PUDDLES,
          MUMBLES TO HIMSELF.

 DEPARTMENT SECRETARY:
   LIFTS TALL BUILDINGS AND WALKS UNDER THEM,
     KICKS LOCOMOTIVES OFF THE TRACKS,
       CATCHES SPEEDING BULLETS IN HER TEETH AND EATS THEM,
         FREEZES WATER WITH A SINGLE GLANCE,
           IS GOD.
 Job cpu time:  0 days  0 hours  0 minutes 44.6 seconds.
 File lengths (MBytes):  RWF=     28 Int=      0 D2E=      0 Chk=     10 Scr=      1
 Normal termination of Gaussian 03 at Fri Jun 12 17:49:32 2015.
