 Entering Gaussian System, Link 0=/home/timn/tmp/g03.e01/g03
 Input=mol_17.24.43.pdbcc_plusQ.z58296.zip.xyz.gjf
 Output=mol_17.24.43.pdbcc_plusQ.z58296.zip.xyz.out
 Initial command:
 /home/timn/tmp/g03.e01/l1.exe /home/timn/tmp/g03.e01/Gau-14884.inp -scrdir=/home/timn/tmp/g03.e01/
 Default is to use a total of   2 processors:
                                2 via shared-memory
                                1 via Linda
 Entering Link 1 = /home/timn/tmp/g03.e01/l1.exe PID=     14885.
  
 Copyright (c) 1988,1990,1992,1993,1995,1998,2003,2004,2007, Gaussian, Inc.
                  All Rights Reserved.
  
 This is the Gaussian(R) 03 program.  It is based on the
 the Gaussian(R) 98 system (copyright 1998, Gaussian, Inc.),
 the Gaussian(R) 94 system (copyright 1995, Gaussian, Inc.),
 the Gaussian 92(TM) system (copyright 1992, Gaussian, Inc.),
 the Gaussian 90(TM) system (copyright 1990, Gaussian, Inc.),
 the Gaussian 88(TM) system (copyright 1988, Gaussian, Inc.),
 the Gaussian 86(TM) system (copyright 1986, Carnegie Mellon
 University), and the Gaussian 82(TM) system (copyright 1983,
 Carnegie Mellon University). Gaussian is a federally registered
 trademark of Gaussian, Inc.
  
 This software contains proprietary and confidential information,
 including trade secrets, belonging to Gaussian, Inc.
  
 This software is provided under written license and may be
 used, copied, transmitted, or stored only in accord with that
 written license.
  
 The following legend is applicable only to US Government
 contracts under FAR:
  
                    RESTRICTED RIGHTS LEGEND
  
 Use, reproduction and disclosure by the US Government is
 subject to restrictions as set forth in subparagraphs (a)
 and (c) of the Commercial Computer Software - Restricted
 Rights clause in FAR 52.227-19.
  
 Gaussian, Inc.
 340 Quinnipiac St., Bldg. 40, Wallingford CT 06492
  
  
 ---------------------------------------------------------------
 Warning -- This program may not be used in any manner that
 competes with the business of Gaussian, Inc. or will provide
 assistance to any competitor of Gaussian, Inc.  The licensee
 of this program is prohibited from giving any competitor of
 Gaussian, Inc. access to this program.  By using this program,
 the user acknowledges that Gaussian, Inc. is engaged in the
 business of creating and licensing software in the field of
 computational chemistry and represents and warrants to the
 licensee that it is not a competitor of Gaussian, Inc. and that
 it will not use this program in any manner prohibited above.
 ---------------------------------------------------------------
  

 Cite this work as:
 Gaussian 03, Revision E.01,
 M. J. Frisch, G. W. Trucks, H. B. Schlegel, G. E. Scuseria, 
 M. A. Robb, J. R. Cheeseman, J. A. Montgomery, Jr., T. Vreven, 
 K. N. Kudin, J. C. Burant, J. M. Millam, S. S. Iyengar, J. Tomasi, 
 V. Barone, B. Mennucci, M. Cossi, G. Scalmani, N. Rega, 
 G. A. Petersson, H. Nakatsuji, M. Hada, M. Ehara, K. Toyota, 
 R. Fukuda, J. Hasegawa, M. Ishida, T. Nakajima, Y. Honda, O. Kitao, 
 H. Nakai, M. Klene, X. Li, J. E. Knox, H. P. Hratchian, J. B. Cross, 
 V. Bakken, C. Adamo, J. Jaramillo, R. Gomperts, R. E. Stratmann, 
 O. Yazyev, A. J. Austin, R. Cammi, C. Pomelli, J. W. Ochterski, 
 P. Y. Ayala, K. Morokuma, G. A. Voth, P. Salvador, J. J. Dannenberg, 
 V. G. Zakrzewski, S. Dapprich, A. D. Daniels, M. C. Strain, 
 O. Farkas, D. K. Malick, A. D. Rabuck, K. Raghavachari, 
 J. B. Foresman, J. V. Ortiz, Q. Cui, A. G. Baboul, S. Clifford, 
 J. Cioslowski, B. B. Stefanov, G. Liu, A. Liashenko, P. Piskorz, 
 I. Komaromi, R. L. Martin, D. J. Fox, T. Keith, M. A. Al-Laham, 
 C. Y. Peng, A. Nanayakkara, M. Challacombe, P. M. W. Gill, 
 B. Johnson, W. Chen, M. W. Wong, C. Gonzalez, and J. A. Pople, 
 Gaussian, Inc., Wallingford CT, 2004.
 
 ******************************************
 Gaussian 03:  EM64T-G03RevE.01 11-Sep-2007
                12-Jun-2015 
 ******************************************
 %nproc=2
 Will use up to    2 processors via shared memory.
 Default route:  MP2=Direct MaxDisk=2000MB
 ----------------------------------------------------
 # b3lyp/6-31+G(d,p) int=ultrafine pop=(ReadRadii,MK)
 ----------------------------------------------------

 Warning!  SCF SP cutoffs with diffuse functions may be unreliable.
 Consider SCF=Tight

 1/38=1/1;
 2/17=6,18=5,40=1/2;
 3/5=1,6=6,7=111,11=2,16=1,25=1,30=1,74=-5,75=5/1,2,3;
 4//1;
 5/5=2,32=1,38=5/2;
 6/7=2,8=2,9=2,10=2,15=8,20=101,28=1/1,2;
 99/5=1,9=1/99;
 ---------------------------------------
 mol_17.24.43.pdbcc_plusQ.z58296.zip.xyz
 ---------------------------------------
 Symbolic Z-matrix:
 Charge =  1 Multiplicity = 1
 O                     2.33326   0.07292  -1.25876 
 O                     2.33561   0.08311   1.26109 
 P                     2.11112  -0.72417   0.00482 
 O                     1.41518  -2.053     0.00953 
 Ca                   -0.96185  -1.57116  -0.00733 
 O                    -3.06048  -1.08206   0.00021 
 Ca                   -2.87698   1.02894   0.00569 
 O                    -0.60415   0.85193  -0.00256 
 Ca                    1.28773   1.93619  -0.00577 
 
                          Input orientation:                          
 ---------------------------------------------------------------------
 Center     Atomic     Atomic              Coordinates (Angstroms)
 Number     Number      Type              X           Y           Z
 ---------------------------------------------------------------------
    1          8             0        2.333260    0.072920   -1.258760
    2          8             0        2.335610    0.083110    1.261090
    3         15             0        2.111120   -0.724170    0.004820
    4          8             0        1.415180   -2.053000    0.009530
    5         20             0       -0.961850   -1.571160   -0.007330
    6          8             0       -3.060480   -1.082060    0.000210
    7         20             0       -2.876980    1.028940    0.005690
    8          8             0       -0.604150    0.851930   -0.002560
    9         20             0        1.287730    1.936190   -0.005770
 ---------------------------------------------------------------------
                    Distance matrix (angstroms):
                    1          2          3          4          5
     1  O    0.000000
     2  O    2.519872   0.000000
     3  P    1.510408   1.510070   0.000000
     4  O    2.640259   2.641318   1.500048   0.000000
     5  Ca   3.889322   3.901120   3.187583   2.425433   0.000000
     6  O    5.657863   5.662617   5.183971   4.579776   2.154884
     7  Ca   5.446045   5.444421   5.287205   5.284033   3.229305
     8  O    3.288354   3.290909   3.139560   3.537861   2.449354
     9  Ca   2.476871   2.477275   2.784888   3.991255   4.166787
                    6          7          8          9
     6  O    0.000000
     7  Ca   2.118968   0.000000
     8  O    3.126321   2.279727   0.000000
     9  Ca   5.293090   4.262399   2.180560   0.000000
 Stoichiometry    Ca3O5P(1+)
 Framework group  C1[X(Ca3O5P)]
 Deg. of freedom    21
 Full point group                 C1
 Largest Abelian subgroup         C1      NOp   1
 Largest concise Abelian subgroup C1      NOp   1
                         Standard orientation:                         
 ---------------------------------------------------------------------
 Center     Atomic     Atomic              Coordinates (Angstroms)
 Number     Number      Type              X           Y           Z
 ---------------------------------------------------------------------
    1          8             0        2.333259    0.072921   -1.258762
    2          8             0        2.335609    0.083111    1.261088
    3         15             0        2.111119   -0.724169    0.004818
    4          8             0        1.415180   -2.052999    0.009528
    5         20             0       -0.961850   -1.571161   -0.007332
    6          8             0       -3.060481   -1.082063    0.000208
    7         20             0       -2.876982    1.028938    0.005688
    8          8             0       -0.604152    0.851929   -0.002562
    9         20             0        1.287727    1.936190   -0.005772
 ---------------------------------------------------------------------
 Rotational constants (GHZ):      1.1089104      0.5131544      0.3774258
 Standard basis: 6-31+G(d,p) (6D, 7F)
 There are   199 symmetry adapted basis functions of A   symmetry.
 Integral buffers will be    131072 words long.
 Raffenetti 2 integral format.
 Two-electron integral symmetry is turned on.
   199 basis functions,   456 primitive gaussians,   199 cartesian basis functions
    57 alpha electrons       57 beta electrons
       nuclear repulsion energy       982.0505364909 Hartrees.
 NAtoms=    9 NActive=    9 NUniq=    9 SFac= 7.50D-01 NAtFMM=   80 NAOKFM=F Big=F
 One-electron integrals computed using PRISM.
 NBasis=   199 RedAO= T  NBF=   199
 NBsUse=   199 1.00D-06 NBFU=   199
 Harris functional with IExCor=  402 diagonalized for initial guess.
 ExpMin= 7.10D-03 ExpMax= 3.53D+04 ExpMxC= 5.30D+03 IAcc=3 IRadAn=         5 AccDes= 0.00D+00
 HarFok:  IExCor= 402 AccDes= 0.00D+00 IRadAn=         5 IDoV=1
 ScaDFX=  1.000000  1.000000  1.000000  1.000000
 Initial guess orbital symmetries:
       Occupied  (A) (A) (A) (A) (A) (A) (A) (A) (A) (A) (A) (A)
                 (A) (A) (A) (A) (A) (A) (A) (A) (A) (A) (A) (A)
                 (A) (A) (A) (A) (A) (A) (A) (A) (A) (A) (A) (A)
                 (A) (A) (A) (A) (A) (A) (A) (A) (A) (A) (A) (A)
                 (A) (A) (A) (A) (A) (A) (A) (A) (A)
       Virtual   (A) (A) (A) (A) (A) (A) (A) (A) (A) (A) (A) (A)
                 (A) (A) (A) (A) (A) (A) (A) (A) (A) (A) (A) (A)
                 (A) (A) (A) (A) (A) (A) (A) (A) (A) (A) (A) (A)
                 (A) (A) (A) (A) (A) (A) (A) (A) (A) (A) (A) (A)
                 (A) (A) (A) (A) (A) (A) (A) (A) (A) (A) (A) (A)
                 (A) (A) (A) (A) (A) (A) (A) (A) (A) (A) (A) (A)
                 (A) (A) (A) (A) (A) (A) (A) (A) (A) (A) (A) (A)
                 (A) (A) (A) (A) (A) (A) (A) (A) (A) (A) (A) (A)
                 (A) (A) (A) (A) (A) (A) (A) (A) (A) (A) (A) (A)
                 (A) (A) (A) (A) (A) (A) (A) (A) (A) (A) (A) (A)
                 (A) (A) (A) (A) (A) (A) (A) (A) (A) (A) (A) (A)
                 (A) (A) (A) (A) (A) (A) (A) (A) (A) (A)
 The electronic state of the initial guess is 1-A.
 Requested convergence on RMS density matrix=1.00D-04 within 128 cycles.
 Requested convergence on MAX density matrix=1.00D-02.
 Requested convergence on             energy=1.00D-02.
 No special actions if energy rises.
 EnCoef did     5 forward-backward iterations
 EnCoef did   100 forward-backward iterations
 EnCoef did     3 forward-backward iterations
 EnCoef did     2 forward-backward iterations
 EnCoef did   100 forward-backward iterations
 SCF Done:  E(RB+HF-LYP) =  -2750.22493136     A.U. after   13 cycles
             Convg  =    0.1891D-04             -V/T =  2.0029
             S**2   =   0.0000

 **********************************************************************

            Population analysis using the SCF density.

 **********************************************************************

 Orbital symmetries:
       Occupied  (A) (A) (A) (A) (A) (A) (A) (A) (A) (A) (A) (A)
                 (A) (A) (A) (A) (A) (A) (A) (A) (A) (A) (A) (A)
                 (A) (A) (A) (A) (A) (A) (A) (A) (A) (A) (A) (A)
                 (A) (A) (A) (A) (A) (A) (A) (A) (A) (A) (A) (A)
                 (A) (A) (A) (A) (A) (A) (A) (A) (A)
       Virtual   (A) (A) (A) (A) (A) (A) (A) (A) (A) (A) (A) (A)
                 (A) (A) (A) (A) (A) (A) (A) (A) (A) (A) (A) (A)
                 (A) (A) (A) (A) (A) (A) (A) (A) (A) (A) (A) (A)
                 (A) (A) (A) (A) (A) (A) (A) (A) (A) (A) (A) (A)
                 (A) (A) (A) (A) (A) (A) (A) (A) (A) (A) (A) (A)
                 (A) (A) (A) (A) (A) (A) (A) (A) (A) (A) (A) (A)
                 (A) (A) (A) (A) (A) (A) (A) (A) (A) (A) (A) (A)
                 (A) (A) (A) (A) (A) (A) (A) (A) (A) (A) (A) (A)
                 (A) (A) (A) (A) (A) (A) (A) (A) (A) (A) (A) (A)
                 (A) (A) (A) (A) (A) (A) (A) (A) (A) (A) (A) (A)
                 (A) (A) (A) (A) (A) (A) (A) (A) (A) (A) (A) (A)
                 (A) (A) (A) (A) (A) (A) (A) (A) (A) (A)
 The electronic state is 1-A.
 Alpha  occ. eigenvalues -- -145.54813-145.48082-145.46625 -77.36619 -19.30715
 Alpha  occ. eigenvalues --  -19.29782 -19.29661 -19.18887 -19.11437 -15.61598
 Alpha  occ. eigenvalues --  -15.54982 -15.53533 -12.74814 -12.74813 -12.74708
 Alpha  occ. eigenvalues --  -12.68220 -12.68141 -12.68062 -12.66799 -12.66721
 Alpha  occ. eigenvalues --  -12.66587  -6.81953  -4.98566  -4.98052  -4.98027
 Alpha  occ. eigenvalues --   -1.98633  -1.92281  -1.90861  -1.26781  -1.26120
 Alpha  occ. eigenvalues --   -1.25508  -1.20125  -1.20114  -1.19774  -1.19249
 Alpha  occ. eigenvalues --   -1.18823  -1.18246  -1.17555  -1.12514  -1.11298
 Alpha  occ. eigenvalues --   -0.93253  -0.85480  -0.67343  -0.58760  -0.57947
 Alpha  occ. eigenvalues --   -0.57887  -0.51182  -0.49178  -0.48423  -0.47302
 Alpha  occ. eigenvalues --   -0.43496  -0.39397  -0.38544  -0.36752  -0.31008
 Alpha  occ. eigenvalues --   -0.29568  -0.29325
 Alpha virt. eigenvalues --   -0.22705  -0.19529  -0.19089  -0.14336  -0.13254
 Alpha virt. eigenvalues --   -0.12957  -0.12288  -0.10722  -0.09678  -0.08601
 Alpha virt. eigenvalues --   -0.08395  -0.07654  -0.06994  -0.05960  -0.05496
 Alpha virt. eigenvalues --   -0.05312  -0.04908  -0.04762  -0.04471  -0.04140
 Alpha virt. eigenvalues --   -0.03829  -0.03710  -0.03333  -0.03203  -0.02793
 Alpha virt. eigenvalues --   -0.02745  -0.01710  -0.00958   0.00323   0.00565
 Alpha virt. eigenvalues --    0.02162   0.02326   0.03085   0.03615   0.03992
 Alpha virt. eigenvalues --    0.04506   0.04883   0.05227   0.05912   0.06480
 Alpha virt. eigenvalues --    0.07110   0.07257   0.07459   0.08192   0.09054
 Alpha virt. eigenvalues --    0.09339   0.10030   0.10541   0.10573   0.11055
 Alpha virt. eigenvalues --    0.11513   0.13280   0.14726   0.14764   0.15931
 Alpha virt. eigenvalues --    0.16326   0.17628   0.18522   0.19051   0.19267
 Alpha virt. eigenvalues --    0.20974   0.21854   0.22091   0.23427   0.24095
 Alpha virt. eigenvalues --    0.24496   0.25606   0.26831   0.29362   0.30077
 Alpha virt. eigenvalues --    0.30880   0.31985   0.34165   0.37582   0.38807
 Alpha virt. eigenvalues --    0.39208   0.40498   0.44035   0.47437   0.49314
 Alpha virt. eigenvalues --    0.50959   0.53801   0.59323   0.61318   0.63010
 Alpha virt. eigenvalues --    0.79163   0.82890   0.86746   0.90618   0.92192
 Alpha virt. eigenvalues --    1.03369   1.07377   1.08373   1.11544   1.11740
 Alpha virt. eigenvalues --    1.13144   1.13222   1.15350   1.16703   1.18146
 Alpha virt. eigenvalues --    1.18282   1.19730   1.24218   1.26995   1.29966
 Alpha virt. eigenvalues --    1.32922   1.35760   1.41548   1.42628   1.55186
 Alpha virt. eigenvalues --    1.61008   1.61195   1.64566   1.66675   1.72497
 Alpha virt. eigenvalues --    1.72919   1.76534   1.76913   1.80164   1.81887
 Alpha virt. eigenvalues --    1.83175   1.85962   1.86092   1.87093   1.87170
 Alpha virt. eigenvalues --    1.89759   1.92583   1.95843   1.98559   2.00295
 Alpha virt. eigenvalues --    2.13436   2.17707   2.20060   2.63466   2.71252
 Alpha virt. eigenvalues --    2.72382   3.34146   3.90919   3.91757   3.95868
 Alpha virt. eigenvalues --    4.07415   4.08900
          Condensed to atoms (all electrons):
              1          2          3          4          5          6
     1  O    8.586692  -0.131706   0.286125  -0.114958  -0.015839  -0.000164
     2  O   -0.131706   8.587312   0.285750  -0.113461  -0.016401  -0.000171
     3  P    0.286125   0.285750  12.932727   0.188710   0.007063   0.009814
     4  O   -0.114958  -0.113461   0.188710   8.649059   0.056483  -0.002745
     5  Ca  -0.015839  -0.016401   0.007063   0.056483  18.379109   0.218350
     6  O   -0.000164  -0.000171   0.009814  -0.002745   0.218350   8.674683
     7  Ca  -0.008704  -0.008371   0.026207   0.003115  -0.038998   0.229894
     8  O   -0.020042  -0.019836   0.071860  -0.021638   0.032000  -0.020128
     9  Ca   0.041789   0.041315   0.004390   0.009857   0.006879  -0.003757
              7          8          9
     1  O   -0.008704  -0.020042   0.041789
     2  O   -0.008371  -0.019836   0.041315
     3  P    0.026207   0.071860   0.004390
     4  O    0.003115  -0.021638   0.009857
     5  Ca  -0.038998   0.032000   0.006879
     6  O    0.229894  -0.020128  -0.003757
     7  Ca  18.390404   0.083682  -0.011815
     8  O    0.083682   9.077825   0.173758
     9  Ca  -0.011815   0.173758  18.265573
 Mulliken atomic charges:
              1
     1  O   -0.623193
     2  O   -0.624432
     3  P    1.187355
     4  O   -0.654423
     5  Ca   1.371354
     6  O   -1.105776
     7  Ca   1.334586
     8  O   -1.357481
     9  Ca   1.472010
 Sum of Mulliken charges=   1.00000
 Atomic charges with hydrogens summed into heavy atoms:
              1
     1  O   -0.623193
     2  O   -0.624432
     3  P    1.187355
     4  O   -0.654423
     5  Ca   1.371354
     6  O   -1.105776
     7  Ca   1.334586
     8  O   -1.357481
     9  Ca   1.472010
 Sum of Mulliken charges=   1.00000
 Electronic spatial extent (au):  <R**2>=  2615.6622
 Charge=     1.0000 electrons
 Dipole moment (field-independent basis, Debye):
    X=    -0.4310    Y=    12.1796    Z=    -0.0531  Tot=    12.1873
 Quadrupole moment (field-independent basis, Debye-Ang):
   XX=   -68.6968   YY=   -38.1085   ZZ=   -83.1709
   XY=   -10.9187   XZ=    -0.1493   YZ=     0.0572
 Traceless Quadrupole moment (field-independent basis, Debye-Ang):
   XX=    -5.3714   YY=    25.2169   ZZ=   -19.8455
   XY=   -10.9187   XZ=    -0.1493   YZ=     0.0572
 Octapole moment (field-independent basis, Debye-Ang**2):
  XXX=    -5.9975  YYY=    78.7443  ZZZ=    -0.1326  XYY=    15.3097
  XXY=   132.2760  XXZ=     0.2079  XZZ=   -20.1693  YZZ=     6.8308
  YYZ=    -0.4065  XYZ=    -0.4269
 Hexadecapole moment (field-independent basis, Debye-Ang**3):
 XXXX= -1993.4582 YYYY=  -639.7666 ZZZZ=  -216.0381 XXXY=  -400.8189
 XXXZ=    -1.3468 YYYX=    95.7536 YYYZ=     0.2689 ZZZX=    -0.3704
 ZZZY=     0.0721 XXYY=  -385.3456 XXZZ=  -407.3286 YYZZ=  -157.8389
 XXYZ=     0.0981 YYXZ=    -0.4000 ZZXY=    -5.3824
 N-N= 9.820505364909D+02 E-N=-8.463228763238D+03  KE= 2.742176988119D+03
 Merz-Kollman atomic radii used.
 Read replacement radii for each type of atom:
 Rad(20) =   1.188000000000D+00
 Atom Element Radius
    1     8    1.40
    2     8    1.40
    3    15    1.80
    4     8    1.40
    5    20    1.19
    6     8    1.40
    7    20    1.19
    8     8    1.40
    9    20    1.19

 **********************************************************************

            Electrostatic Properties Using The SCF Density

 **********************************************************************

       Atomic Center    1 is at   2.333259  0.072921 -1.258762
       Atomic Center    2 is at   2.335609  0.083111  1.261088
       Atomic Center    3 is at   2.111119 -0.724169  0.004818
       Atomic Center    4 is at   1.415180 -2.052999  0.009528
       Atomic Center    5 is at  -0.961850 -1.571161 -0.007332
       Atomic Center    6 is at  -3.060481 -1.082063  0.000208
       Atomic Center    7 is at  -2.876982  1.028938  0.005688
       Atomic Center    8 is at  -0.604152  0.851929 -0.002562
       Atomic Center    9 is at   1.287727  1.936190 -0.005772
     791 points will be used for fitting atomic charges
 Fitting point charges to eletrostatic potential
 Charges from ESP fit, RMS=   0.00524 RRMS=   0.03439:
 Charge=   1.00000 Dipole=    -0.8724    12.6329    -0.0499 Tot=    12.6630
              1
     1  O   -0.800002
     2  O   -0.799946
     3  P    1.535353
     4  O   -0.747309
     5  Ca   1.687127
     6  O   -1.431243
     7  Ca   1.598838
     8  O   -1.726883
     9  Ca   1.684065
 -----------------------------------------------------------------

              Electrostatic Properties (Atomic Units)

 -----------------------------------------------------------------
    Center     Electric         -------- Electric Field --------
               Potential          X             Y             Z
 -----------------------------------------------------------------
    1 Atom    -22.168426
    2 Atom    -22.171419
    3 Atom    -53.842056
    4 Atom    -22.159076
    5 Atom    -80.074471
    6 Atom    -22.346396
    7 Atom    -80.060542
    8 Atom    -22.271510
    9 Atom    -79.993097
 -----------------------------------------------------------------
 1\1\GINC-N035\SP\RB3LYP\6-31+G(d,p)\Ca3O5P1(1+)\TIMN\12-Jun-2015\0\\# 
 b3lyp/6-31+G(d,p) int=ultrafine pop=(ReadRadii,MK)\\mol_17.24.43.pdbcc
 _plusQ.z58296.zip.xyz\\1,1\O,0,2.33326,0.07292,-1.25876\O,0,2.33561,0.
 08311,1.26109\P,0,2.11112,-0.72417,0.00482\O,0,1.41518,-2.053,0.00953\
 Ca,0,-0.96185,-1.57116,-0.00733\O,0,-3.06048,-1.08206,0.00021\Ca,0,-2.
 87698,1.02894,0.00569\O,0,-0.60415,0.85193,-0.00256\Ca,0,1.28773,1.936
 19,-0.00577\\Version=EM64T-G03RevE.01\State=1-A\HF=-2750.2249314\RMSD=
 1.891e-05\Thermal=0.\Dipole=-0.1695564,4.7918086,-0.0208804\PG=C01 [X(
 Ca3O5P1)]\\@


 ADAM SMITH SAID, "THE REAL PRICE OF ANYTHING IS THE TOIL AND TROUBLE
 OF ACQUIRING IT."  BUT IN ALL UNDERTAKINGS WITH NATURE WE SHOULD FIRST
 READ CAREFULLY THE SMALL PRINT IN THE CONTRACT. THIS MIGHT DISCLOSE
 THAT THE REAL PRICE IS TO BE PAID BY THOSE WHO INHERIT THE DEPLETION
 AND DESPOILATION THAT FOLLOWS.
                               -- E. R. HARRISON IN "COSMOLOGY" (1980)
 Job cpu time:  0 days  0 hours  3 minutes  6.8 seconds.
 File lengths (MBytes):  RWF=     36 Int=      0 D2E=      0 Chk=     11 Scr=      1
 Normal termination of Gaussian 03 at Fri Jun 12 17:56:59 2015.
