 Entering Gaussian System, Link 0=/home/timn/tmp/g03.e01/g03
 Input=mol_17.26.26.pdbc_plusQ.z58385.zip.xyz.gjf
 Output=mol_17.26.26.pdbc_plusQ.z58385.zip.xyz.out
 Initial command:
 /home/timn/tmp/g03.e01/l1.exe /home/timn/tmp/g03.e01/Gau-19890.inp -scrdir=/home/timn/tmp/g03.e01/
 Default is to use a total of   2 processors:
                                2 via shared-memory
                                1 via Linda
 Entering Link 1 = /home/timn/tmp/g03.e01/l1.exe PID=     19891.
  
 Copyright (c) 1988,1990,1992,1993,1995,1998,2003,2004,2007, Gaussian, Inc.
                  All Rights Reserved.
  
 This is the Gaussian(R) 03 program.  It is based on the
 the Gaussian(R) 98 system (copyright 1998, Gaussian, Inc.),
 the Gaussian(R) 94 system (copyright 1995, Gaussian, Inc.),
 the Gaussian 92(TM) system (copyright 1992, Gaussian, Inc.),
 the Gaussian 90(TM) system (copyright 1990, Gaussian, Inc.),
 the Gaussian 88(TM) system (copyright 1988, Gaussian, Inc.),
 the Gaussian 86(TM) system (copyright 1986, Carnegie Mellon
 University), and the Gaussian 82(TM) system (copyright 1983,
 Carnegie Mellon University). Gaussian is a federally registered
 trademark of Gaussian, Inc.
  
 This software contains proprietary and confidential information,
 including trade secrets, belonging to Gaussian, Inc.
  
 This software is provided under written license and may be
 used, copied, transmitted, or stored only in accord with that
 written license.
  
 The following legend is applicable only to US Government
 contracts under FAR:
  
                    RESTRICTED RIGHTS LEGEND
  
 Use, reproduction and disclosure by the US Government is
 subject to restrictions as set forth in subparagraphs (a)
 and (c) of the Commercial Computer Software - Restricted
 Rights clause in FAR 52.227-19.
  
 Gaussian, Inc.
 340 Quinnipiac St., Bldg. 40, Wallingford CT 06492
  
  
 ---------------------------------------------------------------
 Warning -- This program may not be used in any manner that
 competes with the business of Gaussian, Inc. or will provide
 assistance to any competitor of Gaussian, Inc.  The licensee
 of this program is prohibited from giving any competitor of
 Gaussian, Inc. access to this program.  By using this program,
 the user acknowledges that Gaussian, Inc. is engaged in the
 business of creating and licensing software in the field of
 computational chemistry and represents and warrants to the
 licensee that it is not a competitor of Gaussian, Inc. and that
 it will not use this program in any manner prohibited above.
 ---------------------------------------------------------------
  

 Cite this work as:
 Gaussian 03, Revision E.01,
 M. J. Frisch, G. W. Trucks, H. B. Schlegel, G. E. Scuseria, 
 M. A. Robb, J. R. Cheeseman, J. A. Montgomery, Jr., T. Vreven, 
 K. N. Kudin, J. C. Burant, J. M. Millam, S. S. Iyengar, J. Tomasi, 
 V. Barone, B. Mennucci, M. Cossi, G. Scalmani, N. Rega, 
 G. A. Petersson, H. Nakatsuji, M. Hada, M. Ehara, K. Toyota, 
 R. Fukuda, J. Hasegawa, M. Ishida, T. Nakajima, Y. Honda, O. Kitao, 
 H. Nakai, M. Klene, X. Li, J. E. Knox, H. P. Hratchian, J. B. Cross, 
 V. Bakken, C. Adamo, J. Jaramillo, R. Gomperts, R. E. Stratmann, 
 O. Yazyev, A. J. Austin, R. Cammi, C. Pomelli, J. W. Ochterski, 
 P. Y. Ayala, K. Morokuma, G. A. Voth, P. Salvador, J. J. Dannenberg, 
 V. G. Zakrzewski, S. Dapprich, A. D. Daniels, M. C. Strain, 
 O. Farkas, D. K. Malick, A. D. Rabuck, K. Raghavachari, 
 J. B. Foresman, J. V. Ortiz, Q. Cui, A. G. Baboul, S. Clifford, 
 J. Cioslowski, B. B. Stefanov, G. Liu, A. Liashenko, P. Piskorz, 
 I. Komaromi, R. L. Martin, D. J. Fox, T. Keith, M. A. Al-Laham, 
 C. Y. Peng, A. Nanayakkara, M. Challacombe, P. M. W. Gill, 
 B. Johnson, W. Chen, M. W. Wong, C. Gonzalez, and J. A. Pople, 
 Gaussian, Inc., Wallingford CT, 2004.
 
 ******************************************
 Gaussian 03:  EM64T-G03RevE.01 11-Sep-2007
                12-Jun-2015 
 ******************************************
 %nproc=2
 Will use up to    2 processors via shared memory.
 Default route:  MP2=Direct MaxDisk=2000MB
 ----------------------------------------------------
 # b3lyp/6-31+G(d,p) int=ultrafine pop=(ReadRadii,MK)
 ----------------------------------------------------

 Warning!  SCF SP cutoffs with diffuse functions may be unreliable.
 Consider SCF=Tight

 1/38=1/1;
 2/17=6,18=5,40=1/2;
 3/5=1,6=6,7=111,11=2,16=1,25=1,30=1,74=-5,75=5/1,2,3;
 4//1;
 5/5=2,32=1,38=5/2;
 6/7=2,8=2,9=2,10=2,15=8,20=101,28=1/1,2;
 99/5=1,9=1/99;
 --------------------------------------
 mol_17.26.26.pdbc_plusQ.z58385.zip.xyz
 --------------------------------------
 Symbolic Z-matrix:
 Charge =  1 Multiplicity = 1
 Ca                    2.17958   1.34362   0. 
 P                     3.72086  -1.08928   0. 
 O                     0.        1.1345    0. 
 Ca                   -2.16884   1.68457   0. 
 O                    -3.75838   0.07269   0. 
 O                    -2.43543  -0.57169   0. 
 O                    -2.37038  -2.02322   0. 
 Ca                   -0.22025  -1.22566   0. 
 O                     2.11135  -1.07619   0. 
 
                          Input orientation:                          
 ---------------------------------------------------------------------
 Center     Atomic     Atomic              Coordinates (Angstroms)
 Number     Number      Type              X           Y           Z
 ---------------------------------------------------------------------
    1         20             0        2.179580    1.343620    0.000000
    2         15             0        3.720860   -1.089280    0.000000
    3          8             0        0.000000    1.134500    0.000000
    4         20             0       -2.168840    1.684570    0.000000
    5          8             0       -3.758380    0.072690    0.000000
    6          8             0       -2.435430   -0.571690    0.000000
    7          8             0       -2.370380   -2.023220    0.000000
    8         20             0       -0.220250   -1.225660    0.000000
    9          8             0        2.111350   -1.076190    0.000000
 ---------------------------------------------------------------------
                    Distance matrix (angstroms):
                    1          2          3          4          5
     1  Ca   0.000000
     2  P    2.880025   0.000000
     3  O    2.189589   4.334743   0.000000
     4  Ca   4.361766   6.510208   2.237508   0.000000
     5  O    6.072449   7.568963   3.905491   2.263801   0.000000
     6  O    4.996672   6.178010   2.973618   2.271955   1.471537
     7  O    5.660190   6.162422   3.948404   3.713263   2.513838
     8  Ca   3.515734   3.943469   2.370415   3.502348   3.768830
     9  O    2.420772   1.609563   3.056951   5.093312   5.981108
                    6          7          8          9
     6  O    0.000000
     7  O    1.452987   0.000000
     8  Ca   2.309697   2.293286   0.000000
     9  O    4.574683   4.580695   2.336386   0.000000
 Stoichiometry    Ca3O5P(1+)
 Framework group  CS[SG(Ca3O5P)]
 Deg. of freedom    15
 Full point group                 CS
 Largest Abelian subgroup         CS      NOp   2
 Largest concise Abelian subgroup C1      NOp   1
                         Standard orientation:                         
 ---------------------------------------------------------------------
 Center     Atomic     Atomic              Coordinates (Angstroms)
 Number     Number      Type              X           Y           Z
 ---------------------------------------------------------------------
    1         20             0        2.179580    1.343619    0.000000
    2         15             0        3.720860   -1.089280    0.000000
    3          8             0        0.000000    1.134499    0.000000
    4         20             0       -2.168840    1.684569    0.000000
    5          8             0       -3.758380    0.072688    0.000000
    6          8             0       -2.435430   -0.571691    0.000000
    7          8             0       -2.370380   -2.023221    0.000000
    8         20             0       -0.220250   -1.225661    0.000000
    9          8             0        2.111350   -1.076191    0.000000
 ---------------------------------------------------------------------
 Rotational constants (GHZ):      1.3155002      0.3891832      0.3003318
 Standard basis: 6-31+G(d,p) (6D, 7F)
 There are   147 symmetry adapted basis functions of A'  symmetry.
 There are    52 symmetry adapted basis functions of A"  symmetry.
 Integral buffers will be    131072 words long.
 Raffenetti 2 integral format.
 Two-electron integral symmetry is turned on.
   199 basis functions,   456 primitive gaussians,   199 cartesian basis functions
    57 alpha electrons       57 beta electrons
       nuclear repulsion energy       931.4093823661 Hartrees.
 NAtoms=    9 NActive=    9 NUniq=    9 SFac= 7.50D-01 NAtFMM=   80 NAOKFM=F Big=F
 One-electron integrals computed using PRISM.
 NBasis=   199 RedAO= T  NBF=   147    52
 NBsUse=   199 1.00D-06 NBFU=   147    52
 Harris functional with IExCor=  402 diagonalized for initial guess.
 ExpMin= 7.10D-03 ExpMax= 3.53D+04 ExpMxC= 5.30D+03 IAcc=3 IRadAn=         5 AccDes= 0.00D+00
 HarFok:  IExCor= 402 AccDes= 0.00D+00 IRadAn=         5 IDoV=1
 ScaDFX=  1.000000  1.000000  1.000000  1.000000
 Initial guess orbital symmetries:
       Occupied  (A') (A') (A') (A') (A') (A') (A') (A') (A') (A')
                 (A') (A') (A') (A') (A") (A') (A') (A") (A') (A')
                 (A") (A') (A') (A') (A") (A') (A') (A') (A') (A')
                 (A') (A') (A') (A') (A") (A") (A") (A') (A') (A')
                 (A') (A') (A') (A') (A') (A") (A') (A') (A') (A")
                 (A") (A') (A') (A') (A") (A") (A')
       Virtual   (A") (A') (A') (A') (A') (A') (A") (A') (A") (A')
                 (A') (A") (A') (A') (A') (A') (A") (A') (A') (A")
                 (A') (A') (A") (A') (A') (A') (A') (A') (A") (A')
                 (A") (A") (A') (A') (A') (A") (A') (A') (A') (A')
                 (A") (A") (A') (A") (A") (A') (A') (A') (A') (A")
                 (A') (A') (A') (A") (A') (A") (A') (A') (A') (A")
                 (A") (A') (A') (A') (A") (A') (A') (A') (A') (A")
                 (A') (A') (A") (A') (A') (A') (A') (A') (A') (A')
                 (A') (A') (A") (A") (A') (A') (A') (A') (A") (A")
                 (A') (A") (A') (A") (A') (A") (A') (A') (A') (A')
                 (A') (A') (A') (A') (A') (A') (A") (A') (A') (A')
                 (A") (A') (A") (A") (A") (A') (A') (A") (A') (A")
                 (A') (A') (A") (A') (A') (A') (A') (A') (A') (A')
                 (A") (A") (A') (A') (A') (A') (A') (A') (A') (A')
                 (A') (A')
 The electronic state of the initial guess is 1-A'.
 Requested convergence on RMS density matrix=1.00D-04 within 128 cycles.
 Requested convergence on MAX density matrix=1.00D-02.
 Requested convergence on             energy=1.00D-02.
 No special actions if energy rises.
 EnCoef did     7 forward-backward iterations
 EnCoef did   100 forward-backward iterations
 EnCoef did   100 forward-backward iterations
 EnCoef did   100 forward-backward iterations
 EnCoef did   100 forward-backward iterations
 EnCoef did     4 forward-backward iterations
 EnCoef did   100 forward-backward iterations
 EnCoef did   100 forward-backward iterations
 EnCoef did    10 forward-backward iterations
 EnCoef did     5 forward-backward iterations
 Rare condition: small coef for last iteration:  0.000D+00
 EnCoef did     3 forward-backward iterations
 EnCoef did   100 forward-backward iterations
 EnCoef did     2 forward-backward iterations
 SCF Done:  E(RB+HF-LYP) =  -2749.95559500     A.U. after   19 cycles
             Convg  =    0.6559D-04             -V/T =  2.0029
             S**2   =   0.0000

 **********************************************************************

            Population analysis using the SCF density.

 **********************************************************************

 Orbital symmetries:
       Occupied  (A') (A') (A') (A') (A') (A') (A') (A') (A') (A')
                 (A') (A') (A") (A') (A') (A") (A') (A') (A") (A')
                 (A') (A') (A") (A') (A') (A') (A') (A') (A") (A')
                 (A') (A') (A") (A') (A') (A") (A') (A') (A') (A')
                 (A') (A') (A') (A') (A') (A') (A") (A') (A") (A')
                 (A') (A") (A') (A") (A') (A') (A")
       Virtual   (A") (A') (A') (A') (A") (A') (A") (A') (A') (A")
                 (A') (A') (A') (A') (A') (A") (A') (A') (A") (A')
                 (A") (A') (A') (A') (A') (A") (A') (A') (A') (A')
                 (A') (A') (A") (A") (A') (A") (A') (A") (A') (A")
                 (A') (A') (A') (A") (A') (A") (A') (A') (A") (A')
                 (A') (A') (A") (A') (A') (A") (A") (A') (A') (A')
                 (A') (A") (A') (A") (A') (A') (A") (A') (A') (A")
                 (A') (A') (A') (A') (A') (A') (A') (A') (A') (A')
                 (A') (A") (A') (A") (A') (A') (A') (A') (A') (A")
                 (A") (A') (A") (A') (A") (A') (A") (A') (A') (A')
                 (A') (A') (A') (A') (A') (A') (A') (A") (A') (A')
                 (A") (A') (A") (A') (A') (A") (A') (A") (A") (A")
                 (A") (A') (A') (A') (A') (A') (A') (A') (A') (A')
                 (A") (A") (A') (A') (A') (A') (A') (A') (A') (A')
                 (A') (A')
 The electronic state is 1-A'.
 Alpha  occ. eigenvalues -- -145.53655-145.51471-145.49009 -77.26287 -19.32269
 Alpha  occ. eigenvalues --  -19.30696 -19.22657 -19.22321 -19.19815 -15.60591
 Alpha  occ. eigenvalues --  -15.58332 -15.55817 -12.73852 -12.73784 -12.73629
 Alpha  occ. eigenvalues --  -12.71592 -12.71538 -12.71376 -12.69105 -12.68996
 Alpha  occ. eigenvalues --  -12.68891  -6.72564  -4.89223  -4.88796  -4.87929
 Alpha  occ. eigenvalues --   -1.97826  -1.95563  -1.93076  -1.25727  -1.25654
 Alpha  occ. eigenvalues --   -1.24580  -1.24436  -1.23415  -1.22448  -1.21535
 Alpha  occ. eigenvalues --   -1.21114  -1.20243  -1.16193  -1.11849  -0.98949
 Alpha  occ. eigenvalues --   -0.94577  -0.82192  -0.69019  -0.53794  -0.52960
 Alpha  occ. eigenvalues --   -0.52300  -0.51360  -0.51015  -0.50222  -0.40577
 Alpha  occ. eigenvalues --   -0.39835  -0.38530  -0.35169  -0.35022  -0.34598
 Alpha  occ. eigenvalues --   -0.31440  -0.27537
 Alpha virt. eigenvalues --   -0.25805  -0.22046  -0.19443  -0.16156  -0.14676
 Alpha virt. eigenvalues --   -0.12386  -0.11646  -0.11617  -0.10887  -0.09962
 Alpha virt. eigenvalues --   -0.09220  -0.08828  -0.07643  -0.06781  -0.06130
 Alpha virt. eigenvalues --   -0.06107  -0.05865  -0.04922  -0.04626  -0.04493
 Alpha virt. eigenvalues --   -0.03909  -0.03883  -0.03538  -0.03380  -0.03028
 Alpha virt. eigenvalues --   -0.03002  -0.02939  -0.01989  -0.01195   0.00020
 Alpha virt. eigenvalues --    0.00258   0.01205   0.01484   0.02279   0.02492
 Alpha virt. eigenvalues --    0.02969   0.03261   0.04591   0.04694   0.04959
 Alpha virt. eigenvalues --    0.05355   0.05794   0.05887   0.06792   0.07639
 Alpha virt. eigenvalues --    0.07709   0.07983   0.08619   0.10064   0.11013
 Alpha virt. eigenvalues --    0.12169   0.12858   0.13471   0.14510   0.15837
 Alpha virt. eigenvalues --    0.16064   0.17483   0.17540   0.18512   0.19779
 Alpha virt. eigenvalues --    0.19995   0.21265   0.22956   0.23964   0.24546
 Alpha virt. eigenvalues --    0.26773   0.28956   0.30061   0.31044   0.32588
 Alpha virt. eigenvalues --    0.33096   0.34142   0.35330   0.35797   0.37292
 Alpha virt. eigenvalues --    0.37969   0.39419   0.40183   0.41582   0.46843
 Alpha virt. eigenvalues --    0.52297   0.54989   0.55523   0.57511   0.60909
 Alpha virt. eigenvalues --    0.69212   0.76858   0.87711   0.98706   1.04337
 Alpha virt. eigenvalues --    1.05308   1.06027   1.08932   1.10530   1.11373
 Alpha virt. eigenvalues --    1.13491   1.14924   1.16293   1.20027   1.22911
 Alpha virt. eigenvalues --    1.23572   1.25025   1.28504   1.31557   1.32565
 Alpha virt. eigenvalues --    1.37055   1.41720   1.43301   1.48594   1.52059
 Alpha virt. eigenvalues --    1.53208   1.57396   1.64828   1.66401   1.72228
 Alpha virt. eigenvalues --    1.75053   1.75159   1.77051   1.77572   1.79774
 Alpha virt. eigenvalues --    1.80881   1.81427   1.84695   1.86756   1.88529
 Alpha virt. eigenvalues --    1.89305   1.94827   1.97988   2.07557   2.11225
 Alpha virt. eigenvalues --    2.23837   2.33599   2.46430   2.50515   3.09161
 Alpha virt. eigenvalues --    3.12958   3.37157   3.80291   3.91536   3.93629
 Alpha virt. eigenvalues --    4.08366   4.22942
          Condensed to atoms (all electrons):
              1          2          3          4          5          6
     1  Ca  18.395953   0.269461   0.144292  -0.007071   0.002398   0.009390
     2  P    0.269461  15.144760  -0.014535  -0.000764  -0.000409   0.000174
     3  O    0.144292  -0.014535   9.065094   0.115266   0.004691  -0.012082
     4  Ca  -0.007071  -0.000764   0.115266  18.291597   0.143266   0.045844
     5  O    0.002398  -0.000409   0.004691   0.143266   8.448907  -0.026091
     6  O    0.009390   0.000174  -0.012082   0.045844  -0.026091   8.146229
     7  O    0.001448  -0.000399   0.007804  -0.011804  -0.016293  -0.068376
     8  Ca  -0.036752   0.010673   0.060618  -0.017388  -0.011380   0.023798
     9  O   -0.081505  -0.427838  -0.004720  -0.006259   0.000139  -0.002612
              7          8          9
     1  Ca   0.001448  -0.036752  -0.081505
     2  P   -0.000399   0.010673  -0.427838
     3  O    0.007804   0.060618  -0.004720
     4  Ca  -0.011804  -0.017388  -0.006259
     5  O   -0.016293  -0.011380   0.000139
     6  O   -0.068376   0.023798  -0.002612
     7  O    8.463788   0.159392   0.000821
     8  Ca   0.159392  18.380013   0.050525
     9  O    0.000821   0.050525   9.056215
 Mulliken atomic charges:
              1
     1  Ca   1.302387
     2  P    0.018877
     3  O   -1.366427
     4  Ca   1.447312
     5  O   -0.545228
     6  O   -0.116274
     7  O   -0.536381
     8  Ca   1.380501
     9  O   -0.584766
 Sum of Mulliken charges=   1.00000
 Atomic charges with hydrogens summed into heavy atoms:
              1
     1  Ca   1.302387
     2  P    0.018877
     3  O   -1.366427
     4  Ca   1.447312
     5  O   -0.545228
     6  O   -0.116274
     7  O   -0.536381
     8  Ca   1.380501
     9  O   -0.584766
 Sum of Mulliken charges=   1.00000
 Electronic spatial extent (au):  <R**2>=  3136.6904
 Charge=     1.0000 electrons
 Dipole moment (field-independent basis, Debye):
    X=     8.5543    Y=    12.9312    Z=     0.0000  Tot=    15.5046
 Quadrupole moment (field-independent basis, Debye-Ang):
   XX=   -84.4435   YY=   -52.2590   ZZ=   -74.1334
   XY=   -15.3604   XZ=     0.0000   YZ=     0.0000
 Traceless Quadrupole moment (field-independent basis, Debye-Ang):
   XX=   -14.1648   YY=    18.0196   ZZ=    -3.8548
   XY=   -15.3604   XZ=     0.0000   YZ=     0.0000
 Octapole moment (field-independent basis, Debye-Ang**2):
  XXX=    95.6930  YYY=    94.0842  ZZZ=     0.0000  XYY=   -19.8767
  XXY=   139.0201  XXZ=     0.0000  XZZ=    -1.9573  YZZ=     8.0721
  YYZ=     0.0000  XYZ=     0.0000
 Hexadecapole moment (field-independent basis, Debye-Ang**3):
 XXXX= -3364.7541 YYYY=  -748.3327 ZZZZ=   -84.8749 XXXY=   -28.7420
 XXXZ=     0.0000 YYYX=    28.0859 YYYZ=     0.0000 ZZZX=     0.0000
 ZZZY=     0.0000 XXYY=  -543.4814 XXZZ=  -484.8342 YYZZ=  -145.4903
 XXYZ=     0.0000 YYXZ=     0.0000 ZZXY=    18.9503
 N-N= 9.314093823661D+02 E-N=-8.362224060342D+03  KE= 2.742066812356D+03
 Symmetry A'   KE= 2.474665480943D+03
 Symmetry A"   KE= 2.674013314131D+02
 Merz-Kollman atomic radii used.
 Read replacement radii for each type of atom:
 Rad(20) =   1.188000000000D+00
 Atom Element Radius
    1    20    1.19
    2    15    1.80
    3     8    1.40
    4    20    1.19
    5     8    1.40
    6     8    1.40
    7     8    1.40
    8    20    1.19
    9     8    1.40

 **********************************************************************

            Electrostatic Properties Using The SCF Density

 **********************************************************************

       Atomic Center    1 is at   2.179580  1.343619  0.000000
       Atomic Center    2 is at   3.720860 -1.089280  0.000000
       Atomic Center    3 is at   0.000000  1.134499  0.000000
       Atomic Center    4 is at  -2.168840  1.684569  0.000000
       Atomic Center    5 is at  -3.758380  0.072688  0.000000
       Atomic Center    6 is at  -2.435430 -0.571691  0.000000
       Atomic Center    7 is at  -2.370380 -2.023221  0.000000
       Atomic Center    8 is at  -0.220250 -1.225661  0.000000
       Atomic Center    9 is at   2.111350 -1.076191  0.000000
     896 points will be used for fitting atomic charges
 Fitting point charges to eletrostatic potential
 Charges from ESP fit, RMS=   0.00989 RRMS=   0.06565:
 Charge=   1.00000 Dipole=     8.6025    13.5964     0.0000 Tot=    16.0892
              1
     1  Ca   1.371844
     2  P   -0.154190
     3  O   -1.481102
     4  Ca   1.609739
     5  O   -0.539104
     6  O   -0.387654
     7  O   -0.478395
     8  Ca   1.489941
     9  O   -0.431078
 -----------------------------------------------------------------

              Electrostatic Properties (Atomic Units)

 -----------------------------------------------------------------
    Center     Electric         -------- Electric Field --------
               Potential          X             Y             Z
 -----------------------------------------------------------------
    1 Atom    -80.004868
    2 Atom    -53.957778
    3 Atom    -22.262966
    4 Atom    -80.025253
    5 Atom    -22.245990
    6 Atom    -22.141362
    7 Atom    -22.249057
    8 Atom    -80.049241
    9 Atom    -22.157045
 -----------------------------------------------------------------
 1\1\GINC-N026\SP\RB3LYP\6-31+G(d,p)\Ca3O5P1(1+)\TIMN\12-Jun-2015\0\\# 
 b3lyp/6-31+G(d,p) int=ultrafine pop=(ReadRadii,MK)\\mol_17.26.26.pdbc_
 plusQ.z58385.zip.xyz\\1,1\Ca,0,2.17958,1.34362,0.\P,0,3.72086,-1.08928
 ,0.\O,0,0.,1.1345,0.\Ca,0,-2.16884,1.68457,0.\O,0,-3.75838,0.07269,0.\
 O,0,-2.43543,-0.57169,0.\O,0,-2.37038,-2.02322,0.\Ca,0,-0.22025,-1.225
 66,0.\O,0,2.11135,-1.07619,0.\\Version=EM64T-G03RevE.01\State=1-A'\HF=
 -2749.955595\RMSD=6.559e-05\Thermal=0.\Dipole=3.3655299,5.0875265,0.\P
 G=CS [SG(Ca3O5P1)]\\@


 I DON'T EXACTLY UNDERSTAND WHAT YOU ARE SAYING,
 BUT YOU ARE ABSOLUTELY RIGHT.
     M.S.GORDON, IN A NDSU FACULTY MEETING
 Job cpu time:  0 days  0 hours  3 minutes 16.3 seconds.
 File lengths (MBytes):  RWF=     36 Int=      0 D2E=      0 Chk=     11 Scr=      1
 Normal termination of Gaussian 03 at Fri Jun 12 18:01:27 2015.
