 Entering Gaussian System, Link 0=/home/timn/tmp/g03.e01/g03
 Input=mol_17.27.5.pdbc_plusQ.z58526.zip.xyz.gjf
 Output=mol_17.27.5.pdbc_plusQ.z58526.zip.xyz.out
 Initial command:
 /home/timn/tmp/g03.e01/l1.exe /home/timn/tmp/g03.e01/Gau-13579.inp -scrdir=/home/timn/tmp/g03.e01/
 Default is to use a total of   2 processors:
                                2 via shared-memory
                                1 via Linda
 Entering Link 1 = /home/timn/tmp/g03.e01/l1.exe PID=     13580.
  
 Copyright (c) 1988,1990,1992,1993,1995,1998,2003,2004,2007, Gaussian, Inc.
                  All Rights Reserved.
  
 This is the Gaussian(R) 03 program.  It is based on the
 the Gaussian(R) 98 system (copyright 1998, Gaussian, Inc.),
 the Gaussian(R) 94 system (copyright 1995, Gaussian, Inc.),
 the Gaussian 92(TM) system (copyright 1992, Gaussian, Inc.),
 the Gaussian 90(TM) system (copyright 1990, Gaussian, Inc.),
 the Gaussian 88(TM) system (copyright 1988, Gaussian, Inc.),
 the Gaussian 86(TM) system (copyright 1986, Carnegie Mellon
 University), and the Gaussian 82(TM) system (copyright 1983,
 Carnegie Mellon University). Gaussian is a federally registered
 trademark of Gaussian, Inc.
  
 This software contains proprietary and confidential information,
 including trade secrets, belonging to Gaussian, Inc.
  
 This software is provided under written license and may be
 used, copied, transmitted, or stored only in accord with that
 written license.
  
 The following legend is applicable only to US Government
 contracts under FAR:
  
                    RESTRICTED RIGHTS LEGEND
  
 Use, reproduction and disclosure by the US Government is
 subject to restrictions as set forth in subparagraphs (a)
 and (c) of the Commercial Computer Software - Restricted
 Rights clause in FAR 52.227-19.
  
 Gaussian, Inc.
 340 Quinnipiac St., Bldg. 40, Wallingford CT 06492
  
  
 ---------------------------------------------------------------
 Warning -- This program may not be used in any manner that
 competes with the business of Gaussian, Inc. or will provide
 assistance to any competitor of Gaussian, Inc.  The licensee
 of this program is prohibited from giving any competitor of
 Gaussian, Inc. access to this program.  By using this program,
 the user acknowledges that Gaussian, Inc. is engaged in the
 business of creating and licensing software in the field of
 computational chemistry and represents and warrants to the
 licensee that it is not a competitor of Gaussian, Inc. and that
 it will not use this program in any manner prohibited above.
 ---------------------------------------------------------------
  

 Cite this work as:
 Gaussian 03, Revision E.01,
 M. J. Frisch, G. W. Trucks, H. B. Schlegel, G. E. Scuseria, 
 M. A. Robb, J. R. Cheeseman, J. A. Montgomery, Jr., T. Vreven, 
 K. N. Kudin, J. C. Burant, J. M. Millam, S. S. Iyengar, J. Tomasi, 
 V. Barone, B. Mennucci, M. Cossi, G. Scalmani, N. Rega, 
 G. A. Petersson, H. Nakatsuji, M. Hada, M. Ehara, K. Toyota, 
 R. Fukuda, J. Hasegawa, M. Ishida, T. Nakajima, Y. Honda, O. Kitao, 
 H. Nakai, M. Klene, X. Li, J. E. Knox, H. P. Hratchian, J. B. Cross, 
 V. Bakken, C. Adamo, J. Jaramillo, R. Gomperts, R. E. Stratmann, 
 O. Yazyev, A. J. Austin, R. Cammi, C. Pomelli, J. W. Ochterski, 
 P. Y. Ayala, K. Morokuma, G. A. Voth, P. Salvador, J. J. Dannenberg, 
 V. G. Zakrzewski, S. Dapprich, A. D. Daniels, M. C. Strain, 
 O. Farkas, D. K. Malick, A. D. Rabuck, K. Raghavachari, 
 J. B. Foresman, J. V. Ortiz, Q. Cui, A. G. Baboul, S. Clifford, 
 J. Cioslowski, B. B. Stefanov, G. Liu, A. Liashenko, P. Piskorz, 
 I. Komaromi, R. L. Martin, D. J. Fox, T. Keith, M. A. Al-Laham, 
 C. Y. Peng, A. Nanayakkara, M. Challacombe, P. M. W. Gill, 
 B. Johnson, W. Chen, M. W. Wong, C. Gonzalez, and J. A. Pople, 
 Gaussian, Inc., Wallingford CT, 2004.
 
 ******************************************
 Gaussian 03:  EM64T-G03RevE.01 11-Sep-2007
                12-Jun-2015 
 ******************************************
 %nproc=2
 Will use up to    2 processors via shared memory.
 Default route:  MP2=Direct MaxDisk=2000MB
 ----------------------------------------------------
 # b3lyp/6-31+G(d,p) int=ultrafine pop=(ReadRadii,MK)
 ----------------------------------------------------

 Warning!  SCF SP cutoffs with diffuse functions may be unreliable.
 Consider SCF=Tight

 1/38=1/1;
 2/17=6,18=5,40=1/2;
 3/5=1,6=6,7=111,11=2,16=1,25=1,30=1,74=-5,75=5/1,2,3;
 4//1;
 5/5=2,32=1,38=5/2;
 6/7=2,8=2,9=2,10=2,15=8,20=101,28=1/1,2;
 99/5=1,9=1/99;
 -------------------------------------
 mol_17.27.5.pdbc_plusQ.z58526.zip.xyz
 -------------------------------------
 Symbolic Z-matrix:
 Charge =  1 Multiplicity = 1
 O                    -2.60239   0.37834   0.00061 
 O                    -1.50997  -1.92318  -0.00074 
 P                    -2.84195  -1.1442   -0.0003 
 Ca                    0.73094  -2.31817   0.00018 
 O                     2.26298  -0.92625  -0.78605 
 O                     2.26207  -0.92563   0.78699 
 Ca                    2.41593   1.20544  -0.00027 
 O                     0.65652   2.44863  -0.00059 
 Ca                   -1.44309   2.35011   0.00023 
 
                          Input orientation:                          
 ---------------------------------------------------------------------
 Center     Atomic     Atomic              Coordinates (Angstroms)
 Number     Number      Type              X           Y           Z
 ---------------------------------------------------------------------
    1          8             0       -2.602390    0.378340    0.000610
    2          8             0       -1.509970   -1.923180   -0.000740
    3         15             0       -2.841950   -1.144200   -0.000300
    4         20             0        0.730940   -2.318170    0.000180
    5          8             0        2.262980   -0.926250   -0.786050
    6          8             0        2.262070   -0.925630    0.786990
    7         20             0        2.415930    1.205440   -0.000270
    8          8             0        0.656520    2.448630   -0.000590
    9         20             0       -1.443090    2.350110    0.000230
 ---------------------------------------------------------------------
                    Distance matrix (angstroms):
                    1          2          3          4          5
     1  O    0.000000
     2  O    2.547622   0.000000
     3  P    1.541272   1.543043   0.000000
     4  Ca   4.287453   2.275455   3.760818   0.000000
     5  O    5.098295   3.980670   5.169644   2.214214   0.000000
     6  O    5.097225   3.980441   5.169006   2.214181   1.573040
     7  Ca   5.086023   5.020055   5.759003   3.905767   2.277048
     8  O    3.860906   4.879180   5.014750   4.767381   3.819355
     9  Ca   2.287325   4.273813   3.763909   5.149684   5.008765
                    6          7          8          9
     6  O    0.000000
     7  Ca   2.277040   0.000000
     8  O    3.818862   2.154308   0.000000
     9  Ca   5.007761   4.025209   2.101920   0.000000
 Stoichiometry    Ca3O5P(1+)
 Framework group  C1[X(Ca3O5P)]
 Deg. of freedom    21
 Full point group                 C1
 Largest Abelian subgroup         C1      NOp   1
 Largest concise Abelian subgroup C1      NOp   1
                         Standard orientation:                         
 ---------------------------------------------------------------------
 Center     Atomic     Atomic              Coordinates (Angstroms)
 Number     Number      Type              X           Y           Z
 ---------------------------------------------------------------------
    1          8             0       -2.602389    0.378351    0.000609
    2          8             0       -1.509978   -1.923173   -0.000741
    3         15             0       -2.841955   -1.144188   -0.000301
    4         20             0        0.730931   -2.318172    0.000179
    5          8             0        2.262976   -0.926257   -0.786051
    6          8             0        2.262066   -0.925637    0.786989
    7         20             0        2.415934    1.205432   -0.000271
    8          8             0        0.656529    2.448629   -0.000591
    9         20             0       -1.443081    2.350116    0.000229
 ---------------------------------------------------------------------
 Rotational constants (GHZ):      0.6842448      0.5473949      0.3115279
 Standard basis: 6-31+G(d,p) (6D, 7F)
 There are   199 symmetry adapted basis functions of A   symmetry.
 Integral buffers will be    131072 words long.
 Raffenetti 2 integral format.
 Two-electron integral symmetry is turned on.
   199 basis functions,   456 primitive gaussians,   199 cartesian basis functions
    57 alpha electrons       57 beta electrons
       nuclear repulsion energy       907.2989926612 Hartrees.
 NAtoms=    9 NActive=    9 NUniq=    9 SFac= 7.50D-01 NAtFMM=   80 NAOKFM=F Big=F
 One-electron integrals computed using PRISM.
 NBasis=   199 RedAO= T  NBF=   199
 NBsUse=   199 1.00D-06 NBFU=   199
 Harris functional with IExCor=  402 diagonalized for initial guess.
 ExpMin= 7.10D-03 ExpMax= 3.53D+04 ExpMxC= 5.30D+03 IAcc=3 IRadAn=         5 AccDes= 0.00D+00
 HarFok:  IExCor= 402 AccDes= 0.00D+00 IRadAn=         5 IDoV=1
 ScaDFX=  1.000000  1.000000  1.000000  1.000000
 Initial guess orbital symmetries:
       Occupied  (A) (A) (A) (A) (A) (A) (A) (A) (A) (A) (A) (A)
                 (A) (A) (A) (A) (A) (A) (A) (A) (A) (A) (A) (A)
                 (A) (A) (A) (A) (A) (A) (A) (A) (A) (A) (A) (A)
                 (A) (A) (A) (A) (A) (A) (A) (A) (A) (A) (A) (A)
                 (A) (A) (A) (A) (A) (A) (A) (A) (A)
       Virtual   (A) (A) (A) (A) (A) (A) (A) (A) (A) (A) (A) (A)
                 (A) (A) (A) (A) (A) (A) (A) (A) (A) (A) (A) (A)
                 (A) (A) (A) (A) (A) (A) (A) (A) (A) (A) (A) (A)
                 (A) (A) (A) (A) (A) (A) (A) (A) (A) (A) (A) (A)
                 (A) (A) (A) (A) (A) (A) (A) (A) (A) (A) (A) (A)
                 (A) (A) (A) (A) (A) (A) (A) (A) (A) (A) (A) (A)
                 (A) (A) (A) (A) (A) (A) (A) (A) (A) (A) (A) (A)
                 (A) (A) (A) (A) (A) (A) (A) (A) (A) (A) (A) (A)
                 (A) (A) (A) (A) (A) (A) (A) (A) (A) (A) (A) (A)
                 (A) (A) (A) (A) (A) (A) (A) (A) (A) (A) (A) (A)
                 (A) (A) (A) (A) (A) (A) (A) (A) (A) (A) (A) (A)
                 (A) (A) (A) (A) (A) (A) (A) (A) (A) (A)
 The electronic state of the initial guess is 1-A.
 Requested convergence on RMS density matrix=1.00D-04 within 128 cycles.
 Requested convergence on MAX density matrix=1.00D-02.
 Requested convergence on             energy=1.00D-02.
 No special actions if energy rises.
 EnCoef did     3 forward-backward iterations
 SCF Done:  E(RB+HF-LYP) =  -2750.19710362     A.U. after    8 cycles
             Convg  =    0.5177D-04             -V/T =  2.0029
             S**2   =   0.0000

 **********************************************************************

            Population analysis using the SCF density.

 **********************************************************************

 Orbital symmetries:
       Occupied  (A) (A) (A) (A) (A) (A) (A) (A) (A) (A) (A) (A)
                 (A) (A) (A) (A) (A) (A) (A) (A) (A) (A) (A) (A)
                 (A) (A) (A) (A) (A) (A) (A) (A) (A) (A) (A) (A)
                 (A) (A) (A) (A) (A) (A) (A) (A) (A) (A) (A) (A)
                 (A) (A) (A) (A) (A) (A) (A) (A) (A)
       Virtual   (A) (A) (A) (A) (A) (A) (A) (A) (A) (A) (A) (A)
                 (A) (A) (A) (A) (A) (A) (A) (A) (A) (A) (A) (A)
                 (A) (A) (A) (A) (A) (A) (A) (A) (A) (A) (A) (A)
                 (A) (A) (A) (A) (A) (A) (A) (A) (A) (A) (A) (A)
                 (A) (A) (A) (A) (A) (A) (A) (A) (A) (A) (A) (A)
                 (A) (A) (A) (A) (A) (A) (A) (A) (A) (A) (A) (A)
                 (A) (A) (A) (A) (A) (A) (A) (A) (A) (A) (A) (A)
                 (A) (A) (A) (A) (A) (A) (A) (A) (A) (A) (A) (A)
                 (A) (A) (A) (A) (A) (A) (A) (A) (A) (A) (A) (A)
                 (A) (A) (A) (A) (A) (A) (A) (A) (A) (A) (A) (A)
                 (A) (A) (A) (A) (A) (A) (A) (A) (A) (A) (A) (A)
                 (A) (A) (A) (A) (A) (A) (A) (A) (A) (A)
 The electronic state is 1-A.
 Alpha  occ. eigenvalues -- -145.50248-145.49520-145.43947 -77.30079 -19.27867
 Alpha  occ. eigenvalues --  -19.27702 -19.22481 -19.22475 -19.12216 -15.57111
 Alpha  occ. eigenvalues --  -15.56422 -15.50921 -12.70348 -12.70328 -12.70181
 Alpha  occ. eigenvalues --  -12.69676 -12.69629 -12.69459 -12.64146 -12.64143
 Alpha  occ. eigenvalues --  -12.63956  -6.75553  -4.91999  -4.91778  -4.91331
 Alpha  occ. eigenvalues --   -1.94316  -1.93663  -1.88350  -1.22288  -1.22013
 Alpha  occ. eigenvalues --   -1.21914  -1.21519  -1.21390  -1.20571  -1.16522
 Alpha  occ. eigenvalues --   -1.16138  -1.15618  -1.13711  -1.08480  -1.04680
 Alpha  occ. eigenvalues --   -0.86296  -0.86240  -0.67759  -0.57323  -0.52567
 Alpha  occ. eigenvalues --   -0.52496  -0.45799  -0.45757  -0.44706  -0.43913
 Alpha  occ. eigenvalues --   -0.42962  -0.40390  -0.34039  -0.32615  -0.30971
 Alpha  occ. eigenvalues --   -0.30565  -0.30365
 Alpha virt. eigenvalues --   -0.19720  -0.18399  -0.17451  -0.14061  -0.12037
 Alpha virt. eigenvalues --   -0.10577  -0.10163  -0.08900  -0.08320  -0.08285
 Alpha virt. eigenvalues --   -0.07013  -0.06734  -0.06064  -0.06000  -0.05476
 Alpha virt. eigenvalues --   -0.04804  -0.04661  -0.04654  -0.04462  -0.04385
 Alpha virt. eigenvalues --   -0.04059  -0.03940  -0.03807  -0.03370  -0.02989
 Alpha virt. eigenvalues --   -0.02859  -0.02426  -0.02383  -0.02093  -0.01504
 Alpha virt. eigenvalues --    0.01136   0.02451   0.03485   0.03968   0.04626
 Alpha virt. eigenvalues --    0.04967   0.05180   0.05425   0.06685   0.06898
 Alpha virt. eigenvalues --    0.07573   0.08287   0.08559   0.08979   0.09592
 Alpha virt. eigenvalues --    0.09662   0.10226   0.11123   0.11870   0.12152
 Alpha virt. eigenvalues --    0.12189   0.13350   0.14895   0.15199   0.15806
 Alpha virt. eigenvalues --    0.15808   0.17030   0.17572   0.18838   0.20318
 Alpha virt. eigenvalues --    0.21131   0.21593   0.22344   0.24910   0.26084
 Alpha virt. eigenvalues --    0.27493   0.29235   0.29376   0.31958   0.32616
 Alpha virt. eigenvalues --    0.34072   0.35223   0.36791   0.38314   0.38634
 Alpha virt. eigenvalues --    0.39875   0.41011   0.42725   0.48107   0.48688
 Alpha virt. eigenvalues --    0.55393   0.57403   0.58848   0.63680   0.71273
 Alpha virt. eigenvalues --    0.76043   0.83543   0.88511   0.90246   0.92412
 Alpha virt. eigenvalues --    1.01085   1.06428   1.08364   1.09638   1.11131
 Alpha virt. eigenvalues --    1.13691   1.13873   1.16697   1.16987   1.18901
 Alpha virt. eigenvalues --    1.20347   1.23524   1.24867   1.27419   1.28196
 Alpha virt. eigenvalues --    1.33664   1.40206   1.41819   1.46651   1.50144
 Alpha virt. eigenvalues --    1.53277   1.57219   1.61916   1.65482   1.65634
 Alpha virt. eigenvalues --    1.68019   1.70918   1.74558   1.78129   1.82704
 Alpha virt. eigenvalues --    1.83848   1.85273   1.85486   1.86535   1.87566
 Alpha virt. eigenvalues --    1.88931   1.89276   1.92526   2.01646   2.04820
 Alpha virt. eigenvalues --    2.09666   2.19759   2.20007   2.53841   2.68538
 Alpha virt. eigenvalues --    3.03370   3.39984   3.82441   3.90607   3.95362
 Alpha virt. eigenvalues --    4.00185   4.07316
          Condensed to atoms (all electrons):
              1          2          3          4          5          6
     1  O    8.896563  -0.072102  -0.177781   0.004136   0.000108   0.000112
     2  O   -0.072102   8.912588  -0.206062   0.066520  -0.000192  -0.000190
     3  P   -0.177781  -0.206062  14.789531  -0.052492  -0.001280  -0.001286
     4  Ca   0.004136   0.066520  -0.052492  18.254684   0.117590   0.117590
     5  O    0.000108  -0.000192  -0.001280   0.117590   8.562890  -0.085106
     6  O    0.000112  -0.000190  -0.001286   0.117590  -0.085106   8.562919
     7  Ca  -0.007325  -0.006337   0.045719  -0.022737   0.080136   0.080092
     8  O    0.000080   0.001188  -0.003169   0.009471  -0.000332  -0.000318
     9  Ca   0.059933   0.006352  -0.047232   0.007277   0.002467   0.002488
              7          8          9
     1  O   -0.007325   0.000080   0.059933
     2  O   -0.006337   0.001188   0.006352
     3  P    0.045719  -0.003169  -0.047232
     4  Ca  -0.022737   0.009471   0.007277
     5  O    0.080136  -0.000332   0.002467
     6  O    0.080092  -0.000318   0.002488
     7  Ca  18.280101   0.172523  -0.016426
     8  O    0.172523   8.822771   0.244825
     9  Ca  -0.016426   0.244825  18.281469
 Mulliken atomic charges:
              1
     1  O   -0.703724
     2  O   -0.701765
     3  P    0.654051
     4  Ca   1.497961
     5  O   -0.676281
     6  O   -0.676302
     7  Ca   1.394253
     8  O   -1.247039
     9  Ca   1.458846
 Sum of Mulliken charges=   1.00000
 Atomic charges with hydrogens summed into heavy atoms:
              1
     1  O   -0.703724
     2  O   -0.701765
     3  P    0.654051
     4  Ca   1.497961
     5  O   -0.676281
     6  O   -0.676302
     7  Ca   1.394253
     8  O   -1.247039
     9  Ca   1.458846
 Sum of Mulliken charges=   1.00000
 Electronic spatial extent (au):  <R**2>=  3042.4639
 Charge=     1.0000 electrons
 Dipole moment (field-independent basis, Debye):
    X=    -1.9820    Y=     0.5240    Z=     0.0017  Tot=     2.0501
 Quadrupole moment (field-independent basis, Debye-Ang):
   XX=   -55.9192   YY=   -34.8146   ZZ=   -77.5232
   XY=   -11.2754   XZ=    -0.0058   YZ=     0.0033
 Traceless Quadrupole moment (field-independent basis, Debye-Ang):
   XX=     0.1665   YY=    21.2711   ZZ=   -21.4375
   XY=   -11.2754   XZ=    -0.0058   YZ=     0.0033
 Octapole moment (field-independent basis, Debye-Ang**2):
  XXX=    51.8373  YYY=   -60.1295  ZZZ=     0.0001  XYY=   -25.9311
  XXY=   103.8100  XXZ=    -0.0223  XZZ=    -7.2487  YZZ=     3.9511
  YYZ=     0.0516  XYZ=     0.0016
 Hexadecapole moment (field-independent basis, Debye-Ang**3):
 XXXX= -1813.1417 YYYY= -1165.3620 ZZZZ=  -131.2076 XXXY=   153.9120
 XXXZ=    -0.0212 YYYX=  -338.9997 YYYZ=     0.0420 ZZZX=    -0.0338
 ZZZY=     0.0173 XXYY=  -417.1958 XXZZ=  -348.7188 YYZZ=  -253.2708
 XXYZ=    -0.0272 YYXZ=    -0.0195 ZZXY=    -4.8808
 N-N= 9.072989926612D+02 E-N=-8.316686808708D+03  KE= 2.742189160333D+03
 Merz-Kollman atomic radii used.
 Read replacement radii for each type of atom:
 Rad(20) =   1.188000000000D+00
 Atom Element Radius
    1     8    1.40
    2     8    1.40
    3    15    1.80
    4    20    1.19
    5     8    1.40
    6     8    1.40
    7    20    1.19
    8     8    1.40
    9    20    1.19

 **********************************************************************

            Electrostatic Properties Using The SCF Density

 **********************************************************************

       Atomic Center    1 is at  -2.602389  0.378351  0.000609
       Atomic Center    2 is at  -1.509978 -1.923173 -0.000741
       Atomic Center    3 is at  -2.841955 -1.144188 -0.000301
       Atomic Center    4 is at   0.730931 -2.318172  0.000179
       Atomic Center    5 is at   2.262976 -0.926257 -0.786051
       Atomic Center    6 is at   2.262066 -0.925637  0.786989
       Atomic Center    7 is at   2.415934  1.205432 -0.000271
       Atomic Center    8 is at   0.656529  2.448629 -0.000591
       Atomic Center    9 is at  -1.443081  2.350116  0.000229
     918 points will be used for fitting atomic charges
 Fitting point charges to eletrostatic potential
 Charges from ESP fit, RMS=   0.00595 RRMS=   0.04185:
 Charge=   1.00000 Dipole=    -2.3179     0.6298     0.0016 Tot=     2.4019
              1
     1  O   -0.798685
     2  O   -0.805746
     3  P    0.679667
     4  Ca   1.752961
     5  O   -0.842170
     6  O   -0.842161
     7  Ca   1.775919
     8  O   -1.662851
     9  Ca   1.743064
 -----------------------------------------------------------------

              Electrostatic Properties (Atomic Units)

 -----------------------------------------------------------------
    Center     Electric         -------- Electric Field --------
               Potential          X             Y             Z
 -----------------------------------------------------------------
    1 Atom    -22.183784
    2 Atom    -22.185599
    3 Atom    -53.918450
    4 Atom    -80.038011
    5 Atom    -22.247338
    6 Atom    -22.247339
    7 Atom    -80.100693
    8 Atom    -22.338943
    9 Atom    -80.045695
 -----------------------------------------------------------------
 1\1\GINC-N034\SP\RB3LYP\6-31+G(d,p)\Ca3O5P1(1+)\TIMN\12-Jun-2015\0\\# 
 b3lyp/6-31+G(d,p) int=ultrafine pop=(ReadRadii,MK)\\mol_17.27.5.pdbc_p
 lusQ.z58526.zip.xyz\\1,1\O,0,-2.60239,0.37834,0.00061\O,0,-1.50997,-1.
 92318,-0.00074\P,0,-2.84195,-1.1442,-0.0003\Ca,0,0.73094,-2.31817,0.00
 018\O,0,2.26298,-0.92625,-0.78605\O,0,2.26207,-0.92563,0.78699\Ca,0,2.
 41593,1.20544,-0.00027\O,0,0.65652,2.44863,-0.00059\Ca,0,-1.44309,2.35
 011,0.00023\\Version=EM64T-G03RevE.01\State=1-A\HF=-2750.1971036\RMSD=
 5.177e-05\Thermal=0.\Dipole=-0.7797947,0.2061409,0.00066\PG=C01 [X(Ca3
 O5P1)]\\@


 THE WISE MAN HAS THE POWER TO REASON AWAY
 WHAT A FOOL BELIEVES.
                     - DOOBIE BROTHERS
 Job cpu time:  0 days  0 hours  1 minutes 48.4 seconds.
 File lengths (MBytes):  RWF=     36 Int=      0 D2E=      0 Chk=     11 Scr=      1
 Normal termination of Gaussian 03 at Fri Jun 12 18:07:55 2015.
