 Entering Gaussian System, Link 0=/home/timn/tmp/g03.e01/g03
 Input=mol_17.29.0.pdbc_plusQ.z58589.zip.xyz.gjf
 Output=mol_17.29.0.pdbc_plusQ.z58589.zip.xyz.out
 Initial command:
 /home/timn/tmp/g03.e01/l1.exe /home/timn/tmp/g03.e01/Gau-19019.inp -scrdir=/home/timn/tmp/g03.e01/
 Default is to use a total of   2 processors:
                                2 via shared-memory
                                1 via Linda
 Entering Link 1 = /home/timn/tmp/g03.e01/l1.exe PID=     19020.
  
 Copyright (c) 1988,1990,1992,1993,1995,1998,2003,2004,2007, Gaussian, Inc.
                  All Rights Reserved.
  
 This is the Gaussian(R) 03 program.  It is based on the
 the Gaussian(R) 98 system (copyright 1998, Gaussian, Inc.),
 the Gaussian(R) 94 system (copyright 1995, Gaussian, Inc.),
 the Gaussian 92(TM) system (copyright 1992, Gaussian, Inc.),
 the Gaussian 90(TM) system (copyright 1990, Gaussian, Inc.),
 the Gaussian 88(TM) system (copyright 1988, Gaussian, Inc.),
 the Gaussian 86(TM) system (copyright 1986, Carnegie Mellon
 University), and the Gaussian 82(TM) system (copyright 1983,
 Carnegie Mellon University). Gaussian is a federally registered
 trademark of Gaussian, Inc.
  
 This software contains proprietary and confidential information,
 including trade secrets, belonging to Gaussian, Inc.
  
 This software is provided under written license and may be
 used, copied, transmitted, or stored only in accord with that
 written license.
  
 The following legend is applicable only to US Government
 contracts under FAR:
  
                    RESTRICTED RIGHTS LEGEND
  
 Use, reproduction and disclosure by the US Government is
 subject to restrictions as set forth in subparagraphs (a)
 and (c) of the Commercial Computer Software - Restricted
 Rights clause in FAR 52.227-19.
  
 Gaussian, Inc.
 340 Quinnipiac St., Bldg. 40, Wallingford CT 06492
  
  
 ---------------------------------------------------------------
 Warning -- This program may not be used in any manner that
 competes with the business of Gaussian, Inc. or will provide
 assistance to any competitor of Gaussian, Inc.  The licensee
 of this program is prohibited from giving any competitor of
 Gaussian, Inc. access to this program.  By using this program,
 the user acknowledges that Gaussian, Inc. is engaged in the
 business of creating and licensing software in the field of
 computational chemistry and represents and warrants to the
 licensee that it is not a competitor of Gaussian, Inc. and that
 it will not use this program in any manner prohibited above.
 ---------------------------------------------------------------
  

 Cite this work as:
 Gaussian 03, Revision E.01,
 M. J. Frisch, G. W. Trucks, H. B. Schlegel, G. E. Scuseria, 
 M. A. Robb, J. R. Cheeseman, J. A. Montgomery, Jr., T. Vreven, 
 K. N. Kudin, J. C. Burant, J. M. Millam, S. S. Iyengar, J. Tomasi, 
 V. Barone, B. Mennucci, M. Cossi, G. Scalmani, N. Rega, 
 G. A. Petersson, H. Nakatsuji, M. Hada, M. Ehara, K. Toyota, 
 R. Fukuda, J. Hasegawa, M. Ishida, T. Nakajima, Y. Honda, O. Kitao, 
 H. Nakai, M. Klene, X. Li, J. E. Knox, H. P. Hratchian, J. B. Cross, 
 V. Bakken, C. Adamo, J. Jaramillo, R. Gomperts, R. E. Stratmann, 
 O. Yazyev, A. J. Austin, R. Cammi, C. Pomelli, J. W. Ochterski, 
 P. Y. Ayala, K. Morokuma, G. A. Voth, P. Salvador, J. J. Dannenberg, 
 V. G. Zakrzewski, S. Dapprich, A. D. Daniels, M. C. Strain, 
 O. Farkas, D. K. Malick, A. D. Rabuck, K. Raghavachari, 
 J. B. Foresman, J. V. Ortiz, Q. Cui, A. G. Baboul, S. Clifford, 
 J. Cioslowski, B. B. Stefanov, G. Liu, A. Liashenko, P. Piskorz, 
 I. Komaromi, R. L. Martin, D. J. Fox, T. Keith, M. A. Al-Laham, 
 C. Y. Peng, A. Nanayakkara, M. Challacombe, P. M. W. Gill, 
 B. Johnson, W. Chen, M. W. Wong, C. Gonzalez, and J. A. Pople, 
 Gaussian, Inc., Wallingford CT, 2004.
 
 ******************************************
 Gaussian 03:  EM64T-G03RevE.01 11-Sep-2007
                12-Jun-2015 
 ******************************************
 %nproc=2
 Will use up to    2 processors via shared memory.
 Default route:  MP2=Direct MaxDisk=2000MB
 ----------------------------------------------------
 # b3lyp/6-31+G(d,p) int=ultrafine pop=(ReadRadii,MK)
 ----------------------------------------------------

 Warning!  SCF SP cutoffs with diffuse functions may be unreliable.
 Consider SCF=Tight

 1/38=1/1;
 2/17=6,18=5,40=1/2;
 3/5=1,6=6,7=111,11=2,16=1,25=1,30=1,74=-5,75=5/1,2,3;
 4//1;
 5/5=2,32=1,38=5/2;
 6/7=2,8=2,9=2,10=2,15=8,20=101,28=1/1,2;
 99/5=1,9=1/99;
 -------------------------------------
 mol_17.29.0.pdbc_plusQ.z58589.zip.xyz
 -------------------------------------
 Symbolic Z-matrix:
 Charge =  1 Multiplicity = 1
 O                     0.52017  -0.1638    1.30411 
 O                     0.0751   -1.5673   -0.72881 
 P                    -0.57431  -0.60012   0.28081 
 Ca                   -3.18362   0.27075  -0.3699 
 O                    -1.00627   0.83092  -0.45004 
 O                    -1.95343  -1.09671   0.83037 
 Ca                    2.32037  -1.23229  -0.17759 
 O                     2.81085   0.81988  -0.55409 
 Ca                    1.11541   1.88243   0.17627 
 
                          Input orientation:                          
 ---------------------------------------------------------------------
 Center     Atomic     Atomic              Coordinates (Angstroms)
 Number     Number      Type              X           Y           Z
 ---------------------------------------------------------------------
    1          8             0        0.520170   -0.163800    1.304110
    2          8             0        0.075100   -1.567300   -0.728810
    3         15             0       -0.574310   -0.600120    0.280810
    4         20             0       -3.183620    0.270750   -0.369900
    5          8             0       -1.006270    0.830920   -0.450040
    6          8             0       -1.953430   -1.096710    0.830370
    7         20             0        2.320370   -1.232290   -0.177590
    8          8             0        2.810850    0.819880   -0.554090
    9         20             0        1.115410    1.882430    0.176270
 ---------------------------------------------------------------------
                    Distance matrix (angstroms):
                    1          2          3          4          5
     1  O    0.000000
     2  O    2.510112   0.000000
     3  P    1.560578   1.541591   0.000000
     4  Ca   4.087689   3.758524   2.826718   0.000000
     5  O    2.529136   2.645474   1.663913   2.249681   0.000000
     6  O    2.685786   2.601429   1.565436   2.196352   2.500464
     7  Ca   2.564727   2.336089   2.998156   5.708767   3.923977
     8  O    3.109300   3.635036   3.764673   6.022387   3.818554
     9  Ca   2.411097   3.715111   3.004852   4.623578   2.449380
                    6          7          8          9
     6  O    0.000000
     7  Ca   4.393146   0.000000
     8  O    5.318685   2.143298   0.000000
     9  Ca   4.326766   3.358367   2.130013   0.000000
 Stoichiometry    Ca3O5P(1+)
 Framework group  C1[X(Ca3O5P)]
 Deg. of freedom    21
 Full point group                 C1
 Largest Abelian subgroup         C1      NOp   1
 Largest concise Abelian subgroup C1      NOp   1
                         Standard orientation:                         
 ---------------------------------------------------------------------
 Center     Atomic     Atomic              Coordinates (Angstroms)
 Number     Number      Type              X           Y           Z
 ---------------------------------------------------------------------
    1          8             0        0.520171   -0.163799    1.304109
    2          8             0        0.075102   -1.567299   -0.728811
    3         15             0       -0.574309   -0.600120    0.280809
    4         20             0       -3.183619    0.270748   -0.369901
    5          8             0       -1.006270    0.830920   -0.450041
    6          8             0       -1.953428   -1.096711    0.830369
    7         20             0        2.320372   -1.232287   -0.177591
    8          8             0        2.810850    0.819883   -0.554091
    9         20             0        1.115409    1.882432    0.176269
 ---------------------------------------------------------------------
 Rotational constants (GHZ):      1.3944609      0.5300542      0.4263765
 Standard basis: 6-31+G(d,p) (6D, 7F)
 There are   199 symmetry adapted basis functions of A   symmetry.
 Integral buffers will be    131072 words long.
 Raffenetti 2 integral format.
 Two-electron integral symmetry is turned on.
   199 basis functions,   456 primitive gaussians,   199 cartesian basis functions
    57 alpha electrons       57 beta electrons
       nuclear repulsion energy      1034.5007720222 Hartrees.
 NAtoms=    9 NActive=    9 NUniq=    9 SFac= 7.50D-01 NAtFMM=   80 NAOKFM=F Big=F
 One-electron integrals computed using PRISM.
 NBasis=   199 RedAO= T  NBF=   199
 NBsUse=   199 1.00D-06 NBFU=   199
 Harris functional with IExCor=  402 diagonalized for initial guess.
 ExpMin= 7.10D-03 ExpMax= 3.53D+04 ExpMxC= 5.30D+03 IAcc=3 IRadAn=         5 AccDes= 0.00D+00
 HarFok:  IExCor= 402 AccDes= 0.00D+00 IRadAn=         5 IDoV=1
 ScaDFX=  1.000000  1.000000  1.000000  1.000000
 Initial guess orbital symmetries:
       Occupied  (A) (A) (A) (A) (A) (A) (A) (A) (A) (A) (A) (A)
                 (A) (A) (A) (A) (A) (A) (A) (A) (A) (A) (A) (A)
                 (A) (A) (A) (A) (A) (A) (A) (A) (A) (A) (A) (A)
                 (A) (A) (A) (A) (A) (A) (A) (A) (A) (A) (A) (A)
                 (A) (A) (A) (A) (A) (A) (A) (A) (A)
       Virtual   (A) (A) (A) (A) (A) (A) (A) (A) (A) (A) (A) (A)
                 (A) (A) (A) (A) (A) (A) (A) (A) (A) (A) (A) (A)
                 (A) (A) (A) (A) (A) (A) (A) (A) (A) (A) (A) (A)
                 (A) (A) (A) (A) (A) (A) (A) (A) (A) (A) (A) (A)
                 (A) (A) (A) (A) (A) (A) (A) (A) (A) (A) (A) (A)
                 (A) (A) (A) (A) (A) (A) (A) (A) (A) (A) (A) (A)
                 (A) (A) (A) (A) (A) (A) (A) (A) (A) (A) (A) (A)
                 (A) (A) (A) (A) (A) (A) (A) (A) (A) (A) (A) (A)
                 (A) (A) (A) (A) (A) (A) (A) (A) (A) (A) (A) (A)
                 (A) (A) (A) (A) (A) (A) (A) (A) (A) (A) (A) (A)
                 (A) (A) (A) (A) (A) (A) (A) (A) (A) (A) (A) (A)
                 (A) (A) (A) (A) (A) (A) (A) (A) (A) (A)
 The electronic state of the initial guess is 1-A.
 Requested convergence on RMS density matrix=1.00D-04 within 128 cycles.
 Requested convergence on MAX density matrix=1.00D-02.
 Requested convergence on             energy=1.00D-02.
 No special actions if energy rises.
 EnCoef did     4 forward-backward iterations
 EnCoef did     3 forward-backward iterations
 EnCoef did     5 forward-backward iterations
 EnCoef did     4 forward-backward iterations
 EnCoef did    38 forward-backward iterations
 Rare condition: small coef for last iteration:  0.133D-14
 EnCoef did    28 forward-backward iterations
 Rare condition: small coef for last iteration:  0.000D+00
 EnCoef did     1 forward-backward iterations
 SCF Done:  E(RB+HF-LYP) =  -2750.29798964     A.U. after   13 cycles
             Convg  =    0.4103D-04             -V/T =  2.0030
             S**2   =   0.0000

 **********************************************************************

            Population analysis using the SCF density.

 **********************************************************************

 Orbital symmetries:
       Occupied  (A) (A) (A) (A) (A) (A) (A) (A) (A) (A) (A) (A)
                 (A) (A) (A) (A) (A) (A) (A) (A) (A) (A) (A) (A)
                 (A) (A) (A) (A) (A) (A) (A) (A) (A) (A) (A) (A)
                 (A) (A) (A) (A) (A) (A) (A) (A) (A) (A) (A) (A)
                 (A) (A) (A) (A) (A) (A) (A) (A) (A)
       Virtual   (A) (A) (A) (A) (A) (A) (A) (A) (A) (A) (A) (A)
                 (A) (A) (A) (A) (A) (A) (A) (A) (A) (A) (A) (A)
                 (A) (A) (A) (A) (A) (A) (A) (A) (A) (A) (A) (A)
                 (A) (A) (A) (A) (A) (A) (A) (A) (A) (A) (A) (A)
                 (A) (A) (A) (A) (A) (A) (A) (A) (A) (A) (A) (A)
                 (A) (A) (A) (A) (A) (A) (A) (A) (A) (A) (A) (A)
                 (A) (A) (A) (A) (A) (A) (A) (A) (A) (A) (A) (A)
                 (A) (A) (A) (A) (A) (A) (A) (A) (A) (A) (A) (A)
                 (A) (A) (A) (A) (A) (A) (A) (A) (A) (A) (A) (A)
                 (A) (A) (A) (A) (A) (A) (A) (A) (A) (A) (A) (A)
                 (A) (A) (A) (A) (A) (A) (A) (A) (A) (A) (A) (A)
                 (A) (A) (A) (A) (A) (A) (A) (A) (A) (A)
 The electronic state is 1-A.
 Alpha  occ. eigenvalues -- -145.58184-145.46283-145.45773 -77.30893 -19.23793
 Alpha  occ. eigenvalues --  -19.22120 -19.21376 -19.20139 -19.09461 -15.64960
 Alpha  occ. eigenvalues --  -15.53118 -15.52631 -12.78206 -12.78113 -12.78098
 Alpha  occ. eigenvalues --  -12.66344 -12.66320 -12.66197 -12.65857 -12.65839
 Alpha  occ. eigenvalues --  -12.65706  -6.75282  -4.91731  -4.91602  -4.91545
 Alpha  occ. eigenvalues --   -2.01900  -1.90365  -1.89851  -1.29537  -1.29353
 Alpha  occ. eigenvalues --   -1.29007  -1.18661  -1.18031  -1.17652  -1.17511
 Alpha  occ. eigenvalues --   -1.17495  -1.16632  -1.11959  -1.03995  -1.03124
 Alpha  occ. eigenvalues --   -1.02168  -0.83597  -0.62166  -0.53753  -0.52875
 Alpha  occ. eigenvalues --   -0.51876  -0.46718  -0.43772  -0.43423  -0.42115
 Alpha  occ. eigenvalues --   -0.41437  -0.39385  -0.36885  -0.36587  -0.29356
 Alpha  occ. eigenvalues --   -0.27694  -0.27527
 Alpha virt. eigenvalues --   -0.24257  -0.16937  -0.15010  -0.14525  -0.14019
 Alpha virt. eigenvalues --   -0.11574  -0.08811  -0.07984  -0.07477  -0.06829
 Alpha virt. eigenvalues --   -0.06313  -0.06106  -0.05367  -0.05331  -0.05112
 Alpha virt. eigenvalues --   -0.04527  -0.04049  -0.03741  -0.03663  -0.03293
 Alpha virt. eigenvalues --   -0.03072  -0.02809  -0.02482  -0.02026  -0.01785
 Alpha virt. eigenvalues --   -0.01643  -0.00361  -0.00078   0.00548   0.01848
 Alpha virt. eigenvalues --    0.02599   0.02724   0.03215   0.03743   0.04125
 Alpha virt. eigenvalues --    0.05188   0.05327   0.05840   0.06455   0.06660
 Alpha virt. eigenvalues --    0.08000   0.08806   0.08837   0.09572   0.10787
 Alpha virt. eigenvalues --    0.11119   0.11449   0.12274   0.12371   0.13843
 Alpha virt. eigenvalues --    0.14566   0.15208   0.16564   0.17660   0.18419
 Alpha virt. eigenvalues --    0.18734   0.19529   0.19934   0.21711   0.23156
 Alpha virt. eigenvalues --    0.23340   0.24099   0.25108   0.26334   0.27029
 Alpha virt. eigenvalues --    0.27936   0.28592   0.30087   0.31005   0.31470
 Alpha virt. eigenvalues --    0.32321   0.34504   0.36807   0.37632   0.39951
 Alpha virt. eigenvalues --    0.43541   0.46866   0.50676   0.53078   0.56821
 Alpha virt. eigenvalues --    0.57784   0.58252   0.60112   0.64156   0.68978
 Alpha virt. eigenvalues --    0.77401   0.87722   0.93283   0.98933   0.99871
 Alpha virt. eigenvalues --    1.07619   1.11349   1.17087   1.17785   1.18753
 Alpha virt. eigenvalues --    1.19782   1.20579   1.21171   1.23296   1.24866
 Alpha virt. eigenvalues --    1.26387   1.27482   1.28202   1.30332   1.31222
 Alpha virt. eigenvalues --    1.35916   1.44325   1.49288   1.55190   1.62047
 Alpha virt. eigenvalues --    1.68295   1.69707   1.71010   1.71387   1.73952
 Alpha virt. eigenvalues --    1.74825   1.77441   1.78644   1.83189   1.84860
 Alpha virt. eigenvalues --    1.86752   1.88109   1.89742   1.90622   1.95305
 Alpha virt. eigenvalues --    1.99634   1.99945   2.03652   2.06828   2.09694
 Alpha virt. eigenvalues --    2.14985   2.21764   2.46376   2.67144   2.73584
 Alpha virt. eigenvalues --    2.80055   3.48846   3.99802   4.03323   4.08284
 Alpha virt. eigenvalues --    4.09484   4.15696
          Condensed to atoms (all electrons):
              1          2          3          4          5          6
     1  O    8.957389  -0.148032   0.138580   0.007007  -0.021386  -0.039081
     2  O   -0.148032   8.785222   0.268903  -0.003925   0.030483  -0.095950
     3  P    0.138580   0.268903  12.690655   0.007156   0.004987   0.077362
     4  Ca   0.007007  -0.003925   0.007156  18.246624   0.083348   0.142842
     5  O   -0.021386   0.030483   0.004987   0.083348   9.100712  -0.093574
     6  O   -0.039081  -0.095950   0.077362   0.142842  -0.093574   8.888138
     7  Ca   0.036044   0.055652   0.011857   0.002265   0.000881   0.010787
     8  O    0.009281  -0.000868   0.003887  -0.000056  -0.003567  -0.000630
     9  Ca   0.069953  -0.011304   0.017133  -0.006592   0.024396   0.003563
              7          8          9
     1  O    0.036044   0.009281   0.069953
     2  O    0.055652  -0.000868  -0.011304
     3  P    0.011857   0.003887   0.017133
     4  Ca   0.002265  -0.000056  -0.006592
     5  O    0.000881  -0.003567   0.024396
     6  O    0.010787  -0.000630   0.003563
     7  Ca  18.301642   0.201164  -0.013458
     8  O    0.201164   8.721553   0.219317
     9  Ca  -0.013458   0.219317  18.331221
 Mulliken atomic charges:
              1
     1  O   -1.009753
     2  O   -0.880181
     3  P    1.779482
     4  Ca   1.521332
     5  O   -1.126280
     6  O   -0.893457
     7  Ca   1.393166
     8  O   -1.150081
     9  Ca   1.365772
 Sum of Mulliken charges=   1.00000
 Atomic charges with hydrogens summed into heavy atoms:
              1
     1  O   -1.009753
     2  O   -0.880181
     3  P    1.779482
     4  Ca   1.521332
     5  O   -1.126280
     6  O   -0.893457
     7  Ca   1.393166
     8  O   -1.150081
     9  Ca   1.365772
 Sum of Mulliken charges=   1.00000
 Electronic spatial extent (au):  <R**2>=  2345.6838
 Charge=     1.0000 electrons
 Dipole moment (field-independent basis, Debye):
    X=   -11.6515    Y=     4.5333    Z=    -1.1337  Tot=    12.5536
 Quadrupole moment (field-independent basis, Debye-Ang):
   XX=   -13.2899   YY=   -52.9384   ZZ=   -84.9493
   XY=   -30.4839   XZ=    18.9759   YZ=     6.8883
 Traceless Quadrupole moment (field-independent basis, Debye-Ang):
   XX=    37.1026   YY=    -2.5458   ZZ=   -34.5568
   XY=   -30.4839   XZ=    18.9759   YZ=     6.8883
 Octapole moment (field-independent basis, Debye-Ang**2):
  XXX=  -296.7705  YYY=    57.7678  ZZZ=    -9.7801  XYY=    48.7546
  XXY=   -42.8476  XXZ=   -22.4700  XZZ=   -14.4988  YZZ=     6.0963
  YYZ=     9.6716  XYZ=     9.8096
 Hexadecapole moment (field-independent basis, Debye-Ang**3):
 XXXX=  -990.6357 YYYY=  -504.8319 ZZZZ=  -254.8943 XXXY=  -387.0509
 XXXZ=   214.8605 YYYX=   -45.1773 YYYZ=    19.3039 ZZZX=    38.8287
 ZZZY=    15.7336 XXYY=  -313.6233 XXZZ=  -320.7821 YYZZ=  -144.4556
 XXYZ=    48.4919 YYXZ=    24.1220 ZZXY=   -27.6980
 N-N= 1.034500772022D+03 E-N=-8.570606160237D+03  KE= 2.742198623474D+03
 Merz-Kollman atomic radii used.
 Read replacement radii for each type of atom:
 Rad(20) =   1.188000000000D+00
 Atom Element Radius
    1     8    1.40
    2     8    1.40
    3    15    1.80
    4    20    1.19
    5     8    1.40
    6     8    1.40
    7    20    1.19
    8     8    1.40
    9    20    1.19

 **********************************************************************

            Electrostatic Properties Using The SCF Density

 **********************************************************************

       Atomic Center    1 is at   0.520171 -0.163799  1.304109
       Atomic Center    2 is at   0.075102 -1.567299 -0.728811
       Atomic Center    3 is at  -0.574309 -0.600120  0.280809
       Atomic Center    4 is at  -3.183619  0.270748 -0.369901
       Atomic Center    5 is at  -1.006270  0.830920 -0.450041
       Atomic Center    6 is at  -1.953428 -1.096711  0.830369
       Atomic Center    7 is at   2.320372 -1.232287 -0.177591
       Atomic Center    8 is at   2.810850  0.819883 -0.554091
       Atomic Center    9 is at   1.115409  1.882432  0.176269
     745 points will be used for fitting atomic charges
 Fitting point charges to eletrostatic potential
 Charges from ESP fit, RMS=   0.00483 RRMS=   0.03060:
 Charge=   1.00000 Dipole=   -11.5404     4.7431    -1.0486 Tot=    12.5211
              1
     1  O   -1.027270
     2  O   -0.956643
     3  P    1.640625
     4  Ca   1.707861
     5  O   -1.237579
     6  O   -0.941753
     7  Ca   1.656412
     8  O   -1.487599
     9  Ca   1.645946
 -----------------------------------------------------------------

              Electrostatic Properties (Atomic Units)

 -----------------------------------------------------------------
    Center     Electric         -------- Electric Field --------
               Potential          X             Y             Z
 -----------------------------------------------------------------
    1 Atom    -22.248868
    2 Atom    -22.259930
    3 Atom    -53.896521
    4 Atom    -79.960113
    5 Atom    -22.226376
    6 Atom    -22.240668
    7 Atom    -80.083134
    8 Atom    -22.368272
    9 Atom    -80.076946
 -----------------------------------------------------------------
 1\1\GINC-N021\SP\RB3LYP\6-31+G(d,p)\Ca3O5P1(1+)\TIMN\12-Jun-2015\0\\# 
 b3lyp/6-31+G(d,p) int=ultrafine pop=(ReadRadii,MK)\\mol_17.29.0.pdbc_p
 lusQ.z58589.zip.xyz\\1,1\O,0,0.52017,-0.1638,1.30411\O,0,0.0751,-1.567
 3,-0.72881\P,0,-0.57431,-0.60012,0.28081\Ca,0,-3.18362,0.27075,-0.3699
 \O,0,-1.00627,0.83092,-0.45004\O,0,-1.95343,-1.09671,0.83037\Ca,0,2.32
 037,-1.23229,-0.17759\O,0,2.81085,0.81988,-0.55409\Ca,0,1.11541,1.8824
 3,0.17627\\Version=EM64T-G03RevE.01\State=1-A\HF=-2750.2979896\RMSD=4.
 103e-05\Thermal=0.\Dipole=-4.5840393,1.7835612,-0.4460459\PG=C01 [X(Ca
 3O5P1)]\\@


     ON THE SURVIVAL OF THE FITTEST -
 "STRONG REPRESENTATIVES FROM EACH PAST ERA THRIVE TODAY,
 SUCH AS PROGRAMMING IN THE THIRTY YEAR OLD LANGUAGE KNOWN
 AS FORTRAN, AND EVEN IN THE ANCIENT SCRIPT KNOWN AS DIRECT
 MACHINE CODE. SOME PEOPLE MIGHT LOOK ON SUCH RELICS AS LIVING
 FOSSILS; OTHERS WOULD POINT OUT THAT EVEN A VERY OLD SPECIES
 MIGHT STILL BE FILLING A PARTICULAR ECOLOGICAL NICHE."
     -- ALAN KAY, SCI.AM. SEPTEMBER 1984
 Job cpu time:  0 days  0 hours  3 minutes 18.3 seconds.
 File lengths (MBytes):  RWF=     36 Int=      0 D2E=      0 Chk=     11 Scr=      1
 Normal termination of Gaussian 03 at Fri Jun 12 18:12:12 2015.
