 Entering Gaussian System, Link 0=/home/timn/tmp/g03.e01/g03
 Input=mol_17.27.1.pdbcccc_plusQ.z58487.zip.xyz.gjf
 Output=mol_17.27.1.pdbcccc_plusQ.z58487.zip.xyz.out
 Initial command:
 /home/timn/tmp/g03.e01/l1.exe /home/timn/tmp/g03.e01/Gau-18790.inp -scrdir=/home/timn/tmp/g03.e01/
 Default is to use a total of   2 processors:
                                2 via shared-memory
                                1 via Linda
 Entering Link 1 = /home/timn/tmp/g03.e01/l1.exe PID=     18792.
  
 Copyright (c) 1988,1990,1992,1993,1995,1998,2003,2004,2007, Gaussian, Inc.
                  All Rights Reserved.
  
 This is the Gaussian(R) 03 program.  It is based on the
 the Gaussian(R) 98 system (copyright 1998, Gaussian, Inc.),
 the Gaussian(R) 94 system (copyright 1995, Gaussian, Inc.),
 the Gaussian 92(TM) system (copyright 1992, Gaussian, Inc.),
 the Gaussian 90(TM) system (copyright 1990, Gaussian, Inc.),
 the Gaussian 88(TM) system (copyright 1988, Gaussian, Inc.),
 the Gaussian 86(TM) system (copyright 1986, Carnegie Mellon
 University), and the Gaussian 82(TM) system (copyright 1983,
 Carnegie Mellon University). Gaussian is a federally registered
 trademark of Gaussian, Inc.
  
 This software contains proprietary and confidential information,
 including trade secrets, belonging to Gaussian, Inc.
  
 This software is provided under written license and may be
 used, copied, transmitted, or stored only in accord with that
 written license.
  
 The following legend is applicable only to US Government
 contracts under FAR:
  
                    RESTRICTED RIGHTS LEGEND
  
 Use, reproduction and disclosure by the US Government is
 subject to restrictions as set forth in subparagraphs (a)
 and (c) of the Commercial Computer Software - Restricted
 Rights clause in FAR 52.227-19.
  
 Gaussian, Inc.
 340 Quinnipiac St., Bldg. 40, Wallingford CT 06492
  
  
 ---------------------------------------------------------------
 Warning -- This program may not be used in any manner that
 competes with the business of Gaussian, Inc. or will provide
 assistance to any competitor of Gaussian, Inc.  The licensee
 of this program is prohibited from giving any competitor of
 Gaussian, Inc. access to this program.  By using this program,
 the user acknowledges that Gaussian, Inc. is engaged in the
 business of creating and licensing software in the field of
 computational chemistry and represents and warrants to the
 licensee that it is not a competitor of Gaussian, Inc. and that
 it will not use this program in any manner prohibited above.
 ---------------------------------------------------------------
  

 Cite this work as:
 Gaussian 03, Revision E.01,
 M. J. Frisch, G. W. Trucks, H. B. Schlegel, G. E. Scuseria, 
 M. A. Robb, J. R. Cheeseman, J. A. Montgomery, Jr., T. Vreven, 
 K. N. Kudin, J. C. Burant, J. M. Millam, S. S. Iyengar, J. Tomasi, 
 V. Barone, B. Mennucci, M. Cossi, G. Scalmani, N. Rega, 
 G. A. Petersson, H. Nakatsuji, M. Hada, M. Ehara, K. Toyota, 
 R. Fukuda, J. Hasegawa, M. Ishida, T. Nakajima, Y. Honda, O. Kitao, 
 H. Nakai, M. Klene, X. Li, J. E. Knox, H. P. Hratchian, J. B. Cross, 
 V. Bakken, C. Adamo, J. Jaramillo, R. Gomperts, R. E. Stratmann, 
 O. Yazyev, A. J. Austin, R. Cammi, C. Pomelli, J. W. Ochterski, 
 P. Y. Ayala, K. Morokuma, G. A. Voth, P. Salvador, J. J. Dannenberg, 
 V. G. Zakrzewski, S. Dapprich, A. D. Daniels, M. C. Strain, 
 O. Farkas, D. K. Malick, A. D. Rabuck, K. Raghavachari, 
 J. B. Foresman, J. V. Ortiz, Q. Cui, A. G. Baboul, S. Clifford, 
 J. Cioslowski, B. B. Stefanov, G. Liu, A. Liashenko, P. Piskorz, 
 I. Komaromi, R. L. Martin, D. J. Fox, T. Keith, M. A. Al-Laham, 
 C. Y. Peng, A. Nanayakkara, M. Challacombe, P. M. W. Gill, 
 B. Johnson, W. Chen, M. W. Wong, C. Gonzalez, and J. A. Pople, 
 Gaussian, Inc., Wallingford CT, 2004.
 
 ******************************************
 Gaussian 03:  EM64T-G03RevE.01 11-Sep-2007
                12-Jun-2015 
 ******************************************
 %nproc=2
 Will use up to    2 processors via shared memory.
 Default route:  MP2=Direct MaxDisk=2000MB
 ----------------------------------------------------
 # b3lyp/6-31+G(d,p) int=ultrafine pop=(ReadRadii,MK)
 ----------------------------------------------------

 Warning!  SCF SP cutoffs with diffuse functions may be unreliable.
 Consider SCF=Tight

 1/38=1/1;
 2/17=6,18=5,40=1/2;
 3/5=1,6=6,7=111,11=2,16=1,25=1,30=1,74=-5,75=5/1,2,3;
 4//1;
 5/5=2,32=1,38=5/2;
 6/7=2,8=2,9=2,10=2,15=8,20=101,28=1/1,2;
 99/5=1,9=1/99;
 ----------------------------------------
 mol_17.27.1.pdbcccc_plusQ.z58487.zip.xyz
 ----------------------------------------
 Symbolic Z-matrix:
 Charge =  1 Multiplicity = 1
 O                    -2.48482  -1.28593   0.75617 
 O                    -2.48176  -1.25615  -0.77684 
 P                    -3.43887   0.007     0.00339 
 O                    -2.47024   1.28619  -0.75503 
 O                    -2.45948   1.25608   0.77794 
 Ca                   -0.49052  -0.01448  -0.00493 
 O                     1.73762  -0.0042   -0.00229 
 Ca                    3.17794  -1.70907   0.00234 
 Ca                    3.15521   1.71991   0.00006 
 
                          Input orientation:                          
 ---------------------------------------------------------------------
 Center     Atomic     Atomic              Coordinates (Angstroms)
 Number     Number      Type              X           Y           Z
 ---------------------------------------------------------------------
    1          8             0       -2.484820   -1.285930    0.756170
    2          8             0       -2.481760   -1.256150   -0.776840
    3         15             0       -3.438870    0.007000    0.003390
    4          8             0       -2.470240    1.286190   -0.755030
    5          8             0       -2.459480    1.256080    0.777940
    6         20             0       -0.490520   -0.014480   -0.004930
    7          8             0        1.737620   -0.004200   -0.002290
    8         20             0        3.177940   -1.709070    0.002340
    9         20             0        3.155210    1.719910    0.000060
 ---------------------------------------------------------------------
                    Distance matrix (angstroms):
                    1          2          3          4          5
     1  O    0.000000
     2  O    1.533302   0.000000
     3  P    1.774417   1.766456   0.000000
     4  O    2.983243   2.542460   1.774760   0.000000
     5  O    2.542230   2.954511   1.766163   1.533303   0.000000
     6  Ca   2.484571   2.470349   2.948440   2.484690   2.470630
     7  O    4.477398   4.468834   5.176505   4.465177   4.451147
     8  Ca   5.728364   5.731009   6.835720   6.437944   6.416711
     9  Ca   6.435582   6.421521   6.812926   5.692448   5.687265
                    6          7          8          9
     6  Ca   0.000000
     7  O    2.228165   0.000000
     8  Ca   4.040951   2.231843   0.000000
     9  Ca   4.037262   2.232067   3.429056   0.000000
 Stoichiometry    Ca3O5P(1+)
 Framework group  C1[X(Ca3O5P)]
 Deg. of freedom    21
 Full point group                 C1
 Largest Abelian subgroup         C1      NOp   1
 Largest concise Abelian subgroup C1      NOp   1
                         Standard orientation:                         
 ---------------------------------------------------------------------
 Center     Atomic     Atomic              Coordinates (Angstroms)
 Number     Number      Type              X           Y           Z
 ---------------------------------------------------------------------
    1          8             0       -2.484821   -1.285932    0.756171
    2          8             0       -2.481761   -1.256152   -0.776839
    3         15             0       -3.438871    0.006998    0.003391
    4          8             0       -2.470241    1.286188   -0.755029
    5          8             0       -2.459481    1.256078    0.777941
    6         20             0       -0.490521   -0.014481   -0.004929
    7          8             0        1.737619   -0.004201   -0.002289
    8         20             0        3.177940   -1.709070    0.002341
    9         20             0        3.155209    1.719910    0.000061
 ---------------------------------------------------------------------
 Rotational constants (GHZ):      1.3443332      0.3054002      0.2584338
 Standard basis: 6-31+G(d,p) (6D, 7F)
 There are   199 symmetry adapted basis functions of A   symmetry.
 Integral buffers will be    131072 words long.
 Raffenetti 2 integral format.
 Two-electron integral symmetry is turned on.
   199 basis functions,   456 primitive gaussians,   199 cartesian basis functions
    57 alpha electrons       57 beta electrons
       nuclear repulsion energy       909.1844663013 Hartrees.
 NAtoms=    9 NActive=    9 NUniq=    9 SFac= 7.50D-01 NAtFMM=   80 NAOKFM=F Big=F
 One-electron integrals computed using PRISM.
 NBasis=   199 RedAO= T  NBF=   199
 NBsUse=   199 1.00D-06 NBFU=   199
 Harris functional with IExCor=  402 diagonalized for initial guess.
 ExpMin= 7.10D-03 ExpMax= 3.53D+04 ExpMxC= 5.30D+03 IAcc=3 IRadAn=         5 AccDes= 0.00D+00
 HarFok:  IExCor= 402 AccDes= 0.00D+00 IRadAn=         5 IDoV=1
 ScaDFX=  1.000000  1.000000  1.000000  1.000000
 Initial guess orbital symmetries:
       Occupied  (A) (A) (A) (A) (A) (A) (A) (A) (A) (A) (A) (A)
                 (A) (A) (A) (A) (A) (A) (A) (A) (A) (A) (A) (A)
                 (A) (A) (A) (A) (A) (A) (A) (A) (A) (A) (A) (A)
                 (A) (A) (A) (A) (A) (A) (A) (A) (A) (A) (A) (A)
                 (A) (A) (A) (A) (A) (A) (A) (A) (A)
       Virtual   (A) (A) (A) (A) (A) (A) (A) (A) (A) (A) (A) (A)
                 (A) (A) (A) (A) (A) (A) (A) (A) (A) (A) (A) (A)
                 (A) (A) (A) (A) (A) (A) (A) (A) (A) (A) (A) (A)
                 (A) (A) (A) (A) (A) (A) (A) (A) (A) (A) (A) (A)
                 (A) (A) (A) (A) (A) (A) (A) (A) (A) (A) (A) (A)
                 (A) (A) (A) (A) (A) (A) (A) (A) (A) (A) (A) (A)
                 (A) (A) (A) (A) (A) (A) (A) (A) (A) (A) (A) (A)
                 (A) (A) (A) (A) (A) (A) (A) (A) (A) (A) (A) (A)
                 (A) (A) (A) (A) (A) (A) (A) (A) (A) (A) (A) (A)
                 (A) (A) (A) (A) (A) (A) (A) (A) (A) (A) (A) (A)
                 (A) (A) (A) (A) (A) (A) (A) (A) (A) (A) (A) (A)
                 (A) (A) (A) (A) (A) (A) (A) (A) (A) (A)
 The electronic state of the initial guess is 1-A.
 Requested convergence on RMS density matrix=1.00D-04 within 128 cycles.
 Requested convergence on MAX density matrix=1.00D-02.
 Requested convergence on             energy=1.00D-02.
 No special actions if energy rises.
 Rare condition: small coef for last iteration:  0.000D+00
 EnCoef did   100 forward-backward iterations
 EnCoef did   100 forward-backward iterations
 EnCoef did   100 forward-backward iterations
 EnCoef did     3 forward-backward iterations
 SCF Done:  E(RB+HF-LYP) =  -2749.95251696     A.U. after   11 cycles
             Convg  =    0.5946D-04             -V/T =  2.0028
             S**2   =   0.0000

 **********************************************************************

            Population analysis using the SCF density.

 **********************************************************************

 Orbital symmetries:
       Occupied  (A) (A) (A) (A) (A) (A) (A) (A) (A) (A) (A) (A)
                 (A) (A) (A) (A) (A) (A) (A) (A) (A) (A) (A) (A)
                 (A) (A) (A) (A) (A) (A) (A) (A) (A) (A) (A) (A)
                 (A) (A) (A) (A) (A) (A) (A) (A) (A) (A) (A) (A)
                 (A) (A) (A) (A) (A) (A) (A) (A) (A)
       Virtual   (A) (A) (A) (A) (A) (A) (A) (A) (A) (A) (A) (A)
                 (A) (A) (A) (A) (A) (A) (A) (A) (A) (A) (A) (A)
                 (A) (A) (A) (A) (A) (A) (A) (A) (A) (A) (A) (A)
                 (A) (A) (A) (A) (A) (A) (A) (A) (A) (A) (A) (A)
                 (A) (A) (A) (A) (A) (A) (A) (A) (A) (A) (A) (A)
                 (A) (A) (A) (A) (A) (A) (A) (A) (A) (A) (A) (A)
                 (A) (A) (A) (A) (A) (A) (A) (A) (A) (A) (A) (A)
                 (A) (A) (A) (A) (A) (A) (A) (A) (A) (A) (A) (A)
                 (A) (A) (A) (A) (A) (A) (A) (A) (A) (A) (A) (A)
                 (A) (A) (A) (A) (A) (A) (A) (A) (A) (A) (A) (A)
                 (A) (A) (A) (A) (A) (A) (A) (A) (A) (A) (A) (A)
                 (A) (A) (A) (A) (A) (A) (A) (A) (A) (A)
 The electronic state is 1-A.
 Alpha  occ. eigenvalues -- -145.52642-145.52633-145.50075 -77.33658 -19.34096
 Alpha  occ. eigenvalues --  -19.34039 -19.33841 -19.33805 -19.20509 -15.59631
 Alpha  occ. eigenvalues --  -15.59622 -15.56910 -12.72821 -12.72820 -12.72813
 Alpha  occ. eigenvalues --  -12.72811 -12.72698 -12.72690 -12.70151 -12.70150
 Alpha  occ. eigenvalues --  -12.69972  -6.78527  -4.94923  -4.94644  -4.94409
 Alpha  occ. eigenvalues --   -1.96781  -1.96735  -1.94168  -1.27232  -1.24440
 Alpha  occ. eigenvalues --   -1.24273  -1.24223  -1.24147  -1.24029  -1.23494
 Alpha  occ. eigenvalues --   -1.23453  -1.21905  -1.20617  -1.20288  -0.99623
 Alpha  occ. eigenvalues --   -0.96526  -0.95428  -0.74185  -0.61533  -0.59255
 Alpha  occ. eigenvalues --   -0.58063  -0.55708  -0.51700  -0.51337  -0.43557
 Alpha  occ. eigenvalues --   -0.43051  -0.42877  -0.41555  -0.41094  -0.39125
 Alpha  occ. eigenvalues --   -0.38580  -0.28129
 Alpha virt. eigenvalues --   -0.21951  -0.18273  -0.17607  -0.15758  -0.15247
 Alpha virt. eigenvalues --   -0.14905  -0.13855  -0.13125  -0.11451  -0.10832
 Alpha virt. eigenvalues --   -0.09780  -0.09120  -0.08675  -0.08037  -0.06645
 Alpha virt. eigenvalues --   -0.06486  -0.06460  -0.05700  -0.05183  -0.05044
 Alpha virt. eigenvalues --   -0.04597  -0.04578  -0.04568  -0.04321  -0.03608
 Alpha virt. eigenvalues --   -0.03510  -0.03306  -0.02398  -0.00638   0.00401
 Alpha virt. eigenvalues --    0.00890   0.01299   0.01982   0.02215   0.02501
 Alpha virt. eigenvalues --    0.02977   0.03017   0.03045   0.03593   0.03665
 Alpha virt. eigenvalues --    0.03877   0.04565   0.05200   0.05948   0.06230
 Alpha virt. eigenvalues --    0.06243   0.06490   0.07145   0.07502   0.08106
 Alpha virt. eigenvalues --    0.08894   0.09141   0.10505   0.11632   0.12157
 Alpha virt. eigenvalues --    0.13063   0.13478   0.13623   0.14268   0.17325
 Alpha virt. eigenvalues --    0.17817   0.17834   0.19400   0.20863   0.21399
 Alpha virt. eigenvalues --    0.22719   0.22937   0.24576   0.24618   0.27388
 Alpha virt. eigenvalues --    0.31440   0.32428   0.32492   0.32922   0.33960
 Alpha virt. eigenvalues --    0.34102   0.36282   0.37691   0.39652   0.39667
 Alpha virt. eigenvalues --    0.45539   0.46041   0.55469   0.55957   0.62852
 Alpha virt. eigenvalues --    0.70050   0.70238   0.73001   0.78075   0.80577
 Alpha virt. eigenvalues --    0.94975   1.03380   1.06401   1.08486   1.08934
 Alpha virt. eigenvalues --    1.09325   1.09701   1.11719   1.14093   1.15286
 Alpha virt. eigenvalues --    1.19346   1.20146   1.21300   1.26973   1.33658
 Alpha virt. eigenvalues --    1.35524   1.39360   1.41824   1.46263   1.51676
 Alpha virt. eigenvalues --    1.54973   1.56074   1.57383   1.58444   1.67816
 Alpha virt. eigenvalues --    1.70594   1.71008   1.72375   1.75407   1.76437
 Alpha virt. eigenvalues --    1.77557   1.78082   1.84054   1.88192   1.91293
 Alpha virt. eigenvalues --    1.93233   1.96511   2.05936   2.15054   2.15818
 Alpha virt. eigenvalues --    2.16852   2.30172   2.35087   2.35721   2.98135
 Alpha virt. eigenvalues --    3.07718   3.50502   3.91490   4.08719   4.11970
 Alpha virt. eigenvalues --    4.12310   4.26216
          Condensed to atoms (all electrons):
              1          2          3          4          5          6
     1  O    8.278946   0.007268   0.052506  -0.057840   0.058192   0.039221
     2  O    0.007268   8.275934   0.053457   0.058232  -0.058385   0.043048
     3  P    0.052506   0.053457  14.149177   0.052265   0.054336  -0.149531
     4  O   -0.057840   0.058232   0.052265   8.278618   0.007819   0.039239
     5  O    0.058192  -0.058385   0.054336   0.007819   8.276128   0.042269
     6  Ca   0.039221   0.043048  -0.149531   0.039239   0.042269  18.403278
     7  O    0.000677   0.000488  -0.001237   0.000657   0.000561   0.198406
     8  Ca   0.003133   0.002709  -0.021290  -0.000087   0.000100  -0.080438
     9  Ca  -0.000241  -0.000027  -0.021518   0.003133   0.002583  -0.079107
              7          8          9
     1  O    0.000677   0.003133  -0.000241
     2  O    0.000488   0.002709  -0.000027
     3  P   -0.001237  -0.021290  -0.021518
     4  O    0.000657  -0.000087   0.003133
     5  O    0.000561   0.000100   0.002583
     6  Ca   0.198406  -0.080438  -0.079107
     7  O    9.257322  -0.179330  -0.178469
     8  Ca  -0.179330  19.187575   0.462261
     9  Ca  -0.178469   0.462261  19.182903
 Mulliken atomic charges:
              1
     1  O   -0.381862
     2  O   -0.382725
     3  P    0.831834
     4  O   -0.382036
     5  O   -0.383603
     6  Ca   1.543616
     7  O   -1.099075
     8  Ca   0.625368
     9  Ca   0.628483
 Sum of Mulliken charges=   1.00000
 Atomic charges with hydrogens summed into heavy atoms:
              1
     1  O   -0.381862
     2  O   -0.382725
     3  P    0.831834
     4  O   -0.382036
     5  O   -0.383603
     6  Ca   1.543616
     7  O   -1.099075
     8  Ca   0.625368
     9  Ca   0.628483
 Sum of Mulliken charges=   1.00000
 Electronic spatial extent (au):  <R**2>=  3689.5473
 Charge=     1.0000 electrons
 Dipole moment (field-independent basis, Debye):
    X=    12.3480    Y=    -0.0237    Z=    -0.0131  Tot=    12.3481
 Quadrupole moment (field-independent basis, Debye-Ang):
   XX=   -47.9260   YY=   -65.3556   ZZ=   -87.2796
   XY=    -0.1174   XZ=     0.0237   YZ=    -0.0635
 Traceless Quadrupole moment (field-independent basis, Debye-Ang):
   XX=    18.9277   YY=     1.4981   ZZ=   -20.4258
   XY=    -0.1174   XZ=     0.0237   YZ=    -0.0635
 Octapole moment (field-independent basis, Debye-Ang**2):
  XXX=    50.3453  YYY=     0.3103  ZZZ=    -0.0892  XYY=    94.6670
  XXY=    -0.5637  XXZ=     0.0982  XZZ=   -18.9618  YZZ=    -0.0620
  YYZ=    -0.0035  XYZ=     0.0415
 Hexadecapole moment (field-independent basis, Debye-Ang**3):
 XXXX= -3614.3800 YYYY=  -795.1132 ZZZZ=  -225.5553 XXXY=    -6.7968
 XXXZ=    -0.1684 YYYX=     0.6974 YYYZ=     0.3063 ZZZX=    -0.0523
 ZZZY=    -0.4076 XXYY=  -587.8418 XXZZ=  -719.9905 YYZZ=  -190.7634
 XXYZ=    -0.3714 YYXZ=     0.0684 ZZXY=    -0.0998
 N-N= 9.091844663013D+02 E-N=-8.314804901251D+03  KE= 2.742216305241D+03
 Merz-Kollman atomic radii used.
 Read replacement radii for each type of atom:
 Rad(20) =   1.188000000000D+00
 Atom Element Radius
    1     8    1.40
    2     8    1.40
    3    15    1.80
    4     8    1.40
    5     8    1.40
    6    20    1.19
    7     8    1.40
    8    20    1.19
    9    20    1.19

 **********************************************************************

            Electrostatic Properties Using The SCF Density

 **********************************************************************

       Atomic Center    1 is at  -2.484821 -1.285932  0.756171
       Atomic Center    2 is at  -2.481761 -1.256152 -0.776839
       Atomic Center    3 is at  -3.438871  0.006998  0.003391
       Atomic Center    4 is at  -2.470241  1.286188 -0.755029
       Atomic Center    5 is at  -2.459481  1.256078  0.777941
       Atomic Center    6 is at  -0.490521 -0.014481 -0.004929
       Atomic Center    7 is at   1.737619 -0.004201 -0.002289
       Atomic Center    8 is at   3.177940 -1.709070  0.002341
       Atomic Center    9 is at   3.155209  1.719910  0.000061
     897 points will be used for fitting atomic charges
 Fitting point charges to eletrostatic potential
 Charges from ESP fit, RMS=   0.02049 RRMS=   0.13455:
 Charge=   1.00000 Dipole=    17.7966    -0.0128    -0.0083 Tot=    17.7966
              1
     1  O   -0.369569
     2  O   -0.369451
     3  P    0.560077
     4  O   -0.369975
     5  O   -0.369517
     6  Ca   1.662927
     7  O   -1.385549
     8  Ca   0.819520
     9  Ca   0.821536
 -----------------------------------------------------------------

              Electrostatic Properties (Atomic Units)

 -----------------------------------------------------------------
    Center     Electric         -------- Electric Field --------
               Potential          X             Y             Z
 -----------------------------------------------------------------
    1 Atom    -22.146760
    2 Atom    -22.148903
    3 Atom    -53.890152
    4 Atom    -22.147412
    5 Atom    -22.150040
    6 Atom    -80.042808
    7 Atom    -22.250743
    8 Atom    -80.011965
    9 Atom    -80.011865
 -----------------------------------------------------------------
 1\1\GINC-N021\SP\RB3LYP\6-31+G(d,p)\Ca3O5P1(1+)\TIMN\12-Jun-2015\0\\# 
 b3lyp/6-31+G(d,p) int=ultrafine pop=(ReadRadii,MK)\\mol_17.27.1.pdbccc
 c_plusQ.z58487.zip.xyz\\1,1\O,0,-2.48482,-1.28593,0.75617\O,0,-2.48176
 ,-1.25615,-0.77684\P,0,-3.43887,0.007,0.00339\O,0,-2.47024,1.28619,-0.
 75503\O,0,-2.45948,1.25608,0.77794\Ca,0,-0.49052,-0.01448,-0.00493\O,0
 ,1.73762,-0.0042,-0.00229\Ca,0,3.17794,-1.70907,0.00234\Ca,0,3.15521,1
 .71991,0.00006\\Version=EM64T-G03RevE.01\State=1-A\HF=-2749.952517\RMS
 D=5.946e-05\Thermal=0.\Dipole=4.8580874,-0.009335,-0.0051526\PG=C01 [X
 (Ca3O5P1)]\\@


 JUST WHEN YOU THINK YOU'VE GOT THE WORLD ON A STRING,
 YOU FIND OUT IT'S YOUR LEASH.
 Job cpu time:  0 days  0 hours  2 minutes 25.2 seconds.
 File lengths (MBytes):  RWF=     36 Int=      0 D2E=      0 Chk=     11 Scr=      1
 Normal termination of Gaussian 03 at Fri Jun 12 18:06:54 2015.
