 Entering Gaussian System, Link 0=/home/timn/tmp/g03.e01/g03
 Input=mol_17.25.10.pdbcc_plusQ.z58318.zip.xyz.gjf
 Output=mol_17.25.10.pdbcc_plusQ.z58318.zip.xyz.out
 Initial command:
 /home/timn/tmp/g03.e01/l1.exe /home/timn/tmp/g03.e01/Gau-18362.inp -scrdir=/home/timn/tmp/g03.e01/
 Default is to use a total of   2 processors:
                                2 via shared-memory
                                1 via Linda
 Entering Link 1 = /home/timn/tmp/g03.e01/l1.exe PID=     18363.
  
 Copyright (c) 1988,1990,1992,1993,1995,1998,2003,2004,2007, Gaussian, Inc.
                  All Rights Reserved.
  
 This is the Gaussian(R) 03 program.  It is based on the
 the Gaussian(R) 98 system (copyright 1998, Gaussian, Inc.),
 the Gaussian(R) 94 system (copyright 1995, Gaussian, Inc.),
 the Gaussian 92(TM) system (copyright 1992, Gaussian, Inc.),
 the Gaussian 90(TM) system (copyright 1990, Gaussian, Inc.),
 the Gaussian 88(TM) system (copyright 1988, Gaussian, Inc.),
 the Gaussian 86(TM) system (copyright 1986, Carnegie Mellon
 University), and the Gaussian 82(TM) system (copyright 1983,
 Carnegie Mellon University). Gaussian is a federally registered
 trademark of Gaussian, Inc.
  
 This software contains proprietary and confidential information,
 including trade secrets, belonging to Gaussian, Inc.
  
 This software is provided under written license and may be
 used, copied, transmitted, or stored only in accord with that
 written license.
  
 The following legend is applicable only to US Government
 contracts under FAR:
  
                    RESTRICTED RIGHTS LEGEND
  
 Use, reproduction and disclosure by the US Government is
 subject to restrictions as set forth in subparagraphs (a)
 and (c) of the Commercial Computer Software - Restricted
 Rights clause in FAR 52.227-19.
  
 Gaussian, Inc.
 340 Quinnipiac St., Bldg. 40, Wallingford CT 06492
  
  
 ---------------------------------------------------------------
 Warning -- This program may not be used in any manner that
 competes with the business of Gaussian, Inc. or will provide
 assistance to any competitor of Gaussian, Inc.  The licensee
 of this program is prohibited from giving any competitor of
 Gaussian, Inc. access to this program.  By using this program,
 the user acknowledges that Gaussian, Inc. is engaged in the
 business of creating and licensing software in the field of
 computational chemistry and represents and warrants to the
 licensee that it is not a competitor of Gaussian, Inc. and that
 it will not use this program in any manner prohibited above.
 ---------------------------------------------------------------
  

 Cite this work as:
 Gaussian 03, Revision E.01,
 M. J. Frisch, G. W. Trucks, H. B. Schlegel, G. E. Scuseria, 
 M. A. Robb, J. R. Cheeseman, J. A. Montgomery, Jr., T. Vreven, 
 K. N. Kudin, J. C. Burant, J. M. Millam, S. S. Iyengar, J. Tomasi, 
 V. Barone, B. Mennucci, M. Cossi, G. Scalmani, N. Rega, 
 G. A. Petersson, H. Nakatsuji, M. Hada, M. Ehara, K. Toyota, 
 R. Fukuda, J. Hasegawa, M. Ishida, T. Nakajima, Y. Honda, O. Kitao, 
 H. Nakai, M. Klene, X. Li, J. E. Knox, H. P. Hratchian, J. B. Cross, 
 V. Bakken, C. Adamo, J. Jaramillo, R. Gomperts, R. E. Stratmann, 
 O. Yazyev, A. J. Austin, R. Cammi, C. Pomelli, J. W. Ochterski, 
 P. Y. Ayala, K. Morokuma, G. A. Voth, P. Salvador, J. J. Dannenberg, 
 V. G. Zakrzewski, S. Dapprich, A. D. Daniels, M. C. Strain, 
 O. Farkas, D. K. Malick, A. D. Rabuck, K. Raghavachari, 
 J. B. Foresman, J. V. Ortiz, Q. Cui, A. G. Baboul, S. Clifford, 
 J. Cioslowski, B. B. Stefanov, G. Liu, A. Liashenko, P. Piskorz, 
 I. Komaromi, R. L. Martin, D. J. Fox, T. Keith, M. A. Al-Laham, 
 C. Y. Peng, A. Nanayakkara, M. Challacombe, P. M. W. Gill, 
 B. Johnson, W. Chen, M. W. Wong, C. Gonzalez, and J. A. Pople, 
 Gaussian, Inc., Wallingford CT, 2004.
 
 ******************************************
 Gaussian 03:  EM64T-G03RevE.01 11-Sep-2007
                12-Jun-2015 
 ******************************************
 %nproc=2
 Will use up to    2 processors via shared memory.
 Default route:  MP2=Direct MaxDisk=2000MB
 ----------------------------------------------------
 # b3lyp/6-31+G(d,p) int=ultrafine pop=(ReadRadii,MK)
 ----------------------------------------------------

 Warning!  SCF SP cutoffs with diffuse functions may be unreliable.
 Consider SCF=Tight

 1/38=1/1;
 2/17=6,18=5,40=1/2;
 3/5=1,6=6,7=111,11=2,16=1,25=1,30=1,74=-5,75=5/1,2,3;
 4//1;
 5/5=2,32=1,38=5/2;
 6/7=2,8=2,9=2,10=2,15=8,20=101,28=1/1,2;
 99/5=1,9=1/99;
 ---------------------------------------
 mol_17.25.10.pdbcc_plusQ.z58318.zip.xyz
 ---------------------------------------
 Symbolic Z-matrix:
 Charge =  1 Multiplicity = 1
 O                     1.23713  -1.28466  -0.44389 
 O                    -2.06765  -0.00074   1.1041 
 O                    -0.60787  -0.0038    1.52235 
 Ca                   -1.05362   1.67254  -0.13548 
 O                    -0.5911    0.00267  -1.65642 
 O                     1.23744   1.28525  -0.43917 
 P                     1.06424   0.00204  -1.53165 
 Ca                    1.62701  -0.00222   1.38952 
 Ca                   -1.05475  -1.67134  -0.14008 
 
                          Input orientation:                          
 ---------------------------------------------------------------------
 Center     Atomic     Atomic              Coordinates (Angstroms)
 Number     Number      Type              X           Y           Z
 ---------------------------------------------------------------------
    1          8             0        1.237130   -1.284660   -0.443890
    2          8             0       -2.067650   -0.000740    1.104100
    3          8             0       -0.607870   -0.003800    1.522350
    4         20             0       -1.053620    1.672540   -0.135480
    5          8             0       -0.591100    0.002670   -1.656420
    6          8             0        1.237440    1.285250   -0.439170
    7         15             0        1.064240    0.002040   -1.531650
    8         20             0        1.627010   -0.002220    1.389520
    9         20             0       -1.054750   -1.671340   -0.140080
 ---------------------------------------------------------------------
                    Distance matrix (angstroms):
                    1          2          3          4          5
     1  O    0.000000
     2  O    3.868630   0.000000
     3  O    2.985084   1.518519   0.000000
     4  Ca   3.753356   2.316178   2.399419   0.000000
     5  O    2.543594   3.130604   3.178821   2.305569   0.000000
     6  O    2.569914   3.867696   2.985696   2.343326   2.543672
     7  P    1.693727   4.093400   3.481796   3.037300   1.660036
     8  Ca   2.271134   3.705669   2.238824   3.509448   3.767995
     9  Ca   2.344043   2.316216   2.396678   3.343883   2.305768
                    6          7          8          9
     6  O    0.000000
     7  P    1.694148   0.000000
     8  Ca   2.270121   2.974889   0.000000
     9  Ca   3.753001   3.037563   3.509626   0.000000
 Stoichiometry    Ca3O5P(1+)
 Framework group  C1[X(Ca3O5P)]
 Deg. of freedom    21
 Full point group                 C1
 Largest Abelian subgroup         C1      NOp   1
 Largest concise Abelian subgroup C1      NOp   1
                         Standard orientation:                         
 ---------------------------------------------------------------------
 Center     Atomic     Atomic              Coordinates (Angstroms)
 Number     Number      Type              X           Y           Z
 ---------------------------------------------------------------------
    1          8             0        1.237132   -1.284658   -0.443892
    2          8             0       -2.067650   -0.000743    1.104098
    3          8             0       -0.607870   -0.003801    1.522348
    4         20             0       -1.053623    1.672539   -0.135482
    5          8             0       -0.591100    0.002669   -1.656422
    6          8             0        1.237438    1.285252   -0.439172
    7         15             0        1.064240    0.002042   -1.531652
    8         20             0        1.627010   -0.002217    1.389518
    9         20             0       -1.054747   -1.671341   -0.140082
 ---------------------------------------------------------------------
 Rotational constants (GHZ):      0.9459915      0.8196809      0.7961161
 Standard basis: 6-31+G(d,p) (6D, 7F)
 There are   199 symmetry adapted basis functions of A   symmetry.
 Integral buffers will be    131072 words long.
 Raffenetti 2 integral format.
 Two-electron integral symmetry is turned on.
   199 basis functions,   456 primitive gaussians,   199 cartesian basis functions
    57 alpha electrons       57 beta electrons
       nuclear repulsion energy      1104.8360316363 Hartrees.
 NAtoms=    9 NActive=    9 NUniq=    9 SFac= 7.50D-01 NAtFMM=   80 NAOKFM=F Big=F
 One-electron integrals computed using PRISM.
 NBasis=   199 RedAO= T  NBF=   199
 NBsUse=   199 1.00D-06 NBFU=   199
 Harris functional with IExCor=  402 diagonalized for initial guess.
 ExpMin= 7.10D-03 ExpMax= 3.53D+04 ExpMxC= 5.30D+03 IAcc=3 IRadAn=         5 AccDes= 0.00D+00
 HarFok:  IExCor= 402 AccDes= 0.00D+00 IRadAn=         5 IDoV=1
 ScaDFX=  1.000000  1.000000  1.000000  1.000000
 Initial guess orbital symmetries:
       Occupied  (A) (A) (A) (A) (A) (A) (A) (A) (A) (A) (A) (A)
                 (A) (A) (A) (A) (A) (A) (A) (A) (A) (A) (A) (A)
                 (A) (A) (A) (A) (A) (A) (A) (A) (A) (A) (A) (A)
                 (A) (A) (A) (A) (A) (A) (A) (A) (A) (A) (A) (A)
                 (A) (A) (A) (A) (A) (A) (A) (A) (A)
       Virtual   (A) (A) (A) (A) (A) (A) (A) (A) (A) (A) (A) (A)
                 (A) (A) (A) (A) (A) (A) (A) (A) (A) (A) (A) (A)
                 (A) (A) (A) (A) (A) (A) (A) (A) (A) (A) (A) (A)
                 (A) (A) (A) (A) (A) (A) (A) (A) (A) (A) (A) (A)
                 (A) (A) (A) (A) (A) (A) (A) (A) (A) (A) (A) (A)
                 (A) (A) (A) (A) (A) (A) (A) (A) (A) (A) (A) (A)
                 (A) (A) (A) (A) (A) (A) (A) (A) (A) (A) (A) (A)
                 (A) (A) (A) (A) (A) (A) (A) (A) (A) (A) (A) (A)
                 (A) (A) (A) (A) (A) (A) (A) (A) (A) (A) (A) (A)
                 (A) (A) (A) (A) (A) (A) (A) (A) (A) (A) (A) (A)
                 (A) (A) (A) (A) (A) (A) (A) (A) (A) (A) (A) (A)
                 (A) (A) (A) (A) (A) (A) (A) (A) (A) (A)
 The electronic state of the initial guess is 1-A.
 Requested convergence on RMS density matrix=1.00D-04 within 128 cycles.
 Requested convergence on MAX density matrix=1.00D-02.
 Requested convergence on             energy=1.00D-02.
 No special actions if energy rises.
 SCF Done:  E(RB+HF-LYP) =  -2750.24881737     A.U. after    7 cycles
             Convg  =    0.5386D-04             -V/T =  2.0029
             S**2   =   0.0000

 **********************************************************************

            Population analysis using the SCF density.

 **********************************************************************

 Orbital symmetries:
       Occupied  (A) (A) (A) (A) (A) (A) (A) (A) (A) (A) (A) (A)
                 (A) (A) (A) (A) (A) (A) (A) (A) (A) (A) (A) (A)
                 (A) (A) (A) (A) (A) (A) (A) (A) (A) (A) (A) (A)
                 (A) (A) (A) (A) (A) (A) (A) (A) (A) (A) (A) (A)
                 (A) (A) (A) (A) (A) (A) (A) (A) (A)
       Virtual   (A) (A) (A) (A) (A) (A) (A) (A) (A) (A) (A) (A)
                 (A) (A) (A) (A) (A) (A) (A) (A) (A) (A) (A) (A)
                 (A) (A) (A) (A) (A) (A) (A) (A) (A) (A) (A) (A)
                 (A) (A) (A) (A) (A) (A) (A) (A) (A) (A) (A) (A)
                 (A) (A) (A) (A) (A) (A) (A) (A) (A) (A) (A) (A)
                 (A) (A) (A) (A) (A) (A) (A) (A) (A) (A) (A) (A)
                 (A) (A) (A) (A) (A) (A) (A) (A) (A) (A) (A) (A)
                 (A) (A) (A) (A) (A) (A) (A) (A) (A) (A) (A) (A)
                 (A) (A) (A) (A) (A) (A) (A) (A) (A) (A) (A) (A)
                 (A) (A) (A) (A) (A) (A) (A) (A) (A) (A) (A) (A)
                 (A) (A) (A) (A) (A) (A) (A) (A) (A) (A) (A) (A)
                 (A) (A) (A) (A) (A) (A) (A) (A) (A) (A)
 The electronic state is 1-A.
 Alpha  occ. eigenvalues -- -145.52388-145.50183-145.50172 -77.25157 -19.25908
 Alpha  occ. eigenvalues --  -19.25457 -19.21784 -19.21783 -19.21335 -15.59146
 Alpha  occ. eigenvalues --  -15.56981 -15.56972 -12.72335 -12.72330 -12.72304
 Alpha  occ. eigenvalues --  -12.70190 -12.70181 -12.70181 -12.70172 -12.70102
 Alpha  occ. eigenvalues --  -12.70093  -6.70244  -4.86598  -4.86590  -4.86030
 Alpha  occ. eigenvalues --   -1.96324  -1.94230  -1.94164  -1.24345  -1.23878
 Alpha  occ. eigenvalues --   -1.23782  -1.22782  -1.22076  -1.21717  -1.21641
 Alpha  occ. eigenvalues --   -1.21522  -1.21224  -1.10030  -1.07324  -1.00852
 Alpha  occ. eigenvalues --   -1.00726  -0.89071  -0.63093  -0.51339  -0.51076
 Alpha  occ. eigenvalues --   -0.50975  -0.49230  -0.48445  -0.46042  -0.43791
 Alpha  occ. eigenvalues --   -0.43554  -0.38828  -0.38641  -0.38609  -0.35295
 Alpha  occ. eigenvalues --   -0.33984  -0.31703
 Alpha virt. eigenvalues --   -0.20303  -0.18388  -0.17632  -0.12784  -0.12603
 Alpha virt. eigenvalues --   -0.10902  -0.09917  -0.09097  -0.08254  -0.07949
 Alpha virt. eigenvalues --   -0.07349  -0.06562  -0.06018  -0.05817  -0.04926
 Alpha virt. eigenvalues --   -0.04870  -0.04857  -0.04686  -0.04488  -0.04308
 Alpha virt. eigenvalues --   -0.04013  -0.03911  -0.03218  -0.02973  -0.02948
 Alpha virt. eigenvalues --   -0.02712  -0.01824  -0.00967   0.00846   0.01988
 Alpha virt. eigenvalues --    0.02246   0.03416   0.04334   0.04541   0.04865
 Alpha virt. eigenvalues --    0.05219   0.05242   0.06159   0.06289   0.07054
 Alpha virt. eigenvalues --    0.07072   0.07097   0.07502   0.07555   0.07794
 Alpha virt. eigenvalues --    0.08502   0.09367   0.10326   0.11202   0.11842
 Alpha virt. eigenvalues --    0.12311   0.14922   0.14935   0.16119   0.17402
 Alpha virt. eigenvalues --    0.18780   0.20641   0.21078   0.21099   0.23267
 Alpha virt. eigenvalues --    0.23563   0.23712   0.24624   0.25779   0.27278
 Alpha virt. eigenvalues --    0.27991   0.29796   0.31573   0.33547   0.33939
 Alpha virt. eigenvalues --    0.34432   0.36041   0.36680   0.38770   0.39282
 Alpha virt. eigenvalues --    0.41193   0.45568   0.46010   0.53533   0.54379
 Alpha virt. eigenvalues --    0.55424   0.62685   0.63187   0.63516   0.66194
 Alpha virt. eigenvalues --    0.81573   0.85403   0.90486   0.93092   0.99244
 Alpha virt. eigenvalues --    1.11592   1.11889   1.15496   1.16013   1.17639
 Alpha virt. eigenvalues --    1.18032   1.19908   1.19991   1.20439   1.22323
 Alpha virt. eigenvalues --    1.22905   1.27536   1.31238   1.33942   1.38896
 Alpha virt. eigenvalues --    1.45494   1.46507   1.49260   1.57009   1.58138
 Alpha virt. eigenvalues --    1.60021   1.64329   1.68039   1.71392   1.73209
 Alpha virt. eigenvalues --    1.76851   1.78167   1.78949   1.81321   1.84871
 Alpha virt. eigenvalues --    1.86383   1.87086   1.89499   1.90275   1.91249
 Alpha virt. eigenvalues --    1.92835   1.93651   1.99374   2.00486   2.11291
 Alpha virt. eigenvalues --    2.21669   2.24633   2.36551   2.52319   2.56769
 Alpha virt. eigenvalues --    3.07054   3.54029   4.03171   4.09912   4.14261
 Alpha virt. eigenvalues --    4.19201   4.32853
          Condensed to atoms (all electrons):
              1          2          3          4          5          6
     1  O    8.964476  -0.006675   0.029652   0.005023   0.050030   0.043442
     2  O   -0.006675   8.577727  -0.101128   0.104065   0.002045  -0.006638
     3  O    0.029652  -0.101128   8.604680   0.038052   0.022320   0.029588
     4  Ca   0.005023   0.104065   0.038052  18.339396   0.065960   0.060635
     5  O    0.050030   0.002045   0.022320   0.065960   8.935983   0.050140
     6  O    0.043442  -0.006638   0.029588   0.060635   0.050140   8.964954
     7  P   -0.177310   0.003286  -0.024569   0.017221  -0.171328  -0.177643
     8  Ca   0.074755  -0.033248   0.088659  -0.045084   0.013825   0.074753
     9  Ca   0.060462   0.104030   0.038317  -0.047939   0.065809   0.004972
              7          8          9
     1  O   -0.177310   0.074755   0.060462
     2  O    0.003286  -0.033248   0.104030
     3  O   -0.024569   0.088659   0.038317
     4  Ca   0.017221  -0.045084  -0.047939
     5  O   -0.171328   0.013825   0.065809
     6  O   -0.177643   0.074753   0.004972
     7  P   14.403488   0.026306   0.017251
     8  Ca   0.026306  18.361907  -0.045062
     9  Ca   0.017251  -0.045062  18.339438
 Mulliken atomic charges:
              1
     1  O   -1.043855
     2  O   -0.643464
     3  O   -0.725571
     4  Ca   1.462670
     5  O   -1.034784
     6  O   -1.044202
     7  P    1.083296
     8  Ca   1.483189
     9  Ca   1.462722
 Sum of Mulliken charges=   1.00000
 Atomic charges with hydrogens summed into heavy atoms:
              1
     1  O   -1.043855
     2  O   -0.643464
     3  O   -0.725571
     4  Ca   1.462670
     5  O   -1.034784
     6  O   -1.044202
     7  P    1.083296
     8  Ca   1.483189
     9  Ca   1.462722
 Sum of Mulliken charges=   1.00000
 Electronic spatial extent (au):  <R**2>=  1729.2066
 Charge=     1.0000 electrons
 Dipole moment (field-independent basis, Debye):
    X=    -0.9342    Y=    -0.0036    Z=     6.2050  Tot=     6.2750
 Quadrupole moment (field-independent basis, Debye-Ang):
   XX=   -63.6991   YY=   -44.2099   ZZ=   -80.5523
   XY=    -0.0352   XZ=    28.3189   YZ=     0.0509
 Traceless Quadrupole moment (field-independent basis, Debye-Ang):
   XX=    -0.8787   YY=    18.6105   ZZ=   -17.7319
   XY=    -0.0352   XZ=    28.3189   YZ=     0.0509
 Octapole moment (field-independent basis, Debye-Ang**2):
  XXX=    20.2143  YYY=     0.0533  ZZZ=    45.1997  XYY=   -73.8027
  XXY=    -0.0865  XXZ=    28.2035  XZZ=    39.2592  YZZ=    -0.0419
  YYZ=     4.9204  XYZ=    -0.1683
 Hexadecapole moment (field-independent basis, Debye-Ang**3):
 XXXX=  -745.6477 YYYY=  -401.3727 ZZZZ=  -674.4315 XXXY=    -0.1748
 XXXZ=   157.8229 YYYX=    -0.1434 YYYZ=     0.2303 ZZZX=   109.8600
 ZZZY=     0.2090 XXYY=  -182.3607 XXZZ=  -218.9454 YYZZ=  -189.7593
 XXYZ=     0.0355 YYXZ=    34.9664 ZZXY=    -0.0580
 N-N= 1.104836031636D+03 E-N=-8.710328202800D+03  KE= 2.742230176598D+03
 Merz-Kollman atomic radii used.
 Read replacement radii for each type of atom:
 Rad(20) =   1.188000000000D+00
 Atom Element Radius
    1     8    1.40
    2     8    1.40
    3     8    1.40
    4    20    1.19
    5     8    1.40
    6     8    1.40
    7    15    1.80
    8    20    1.19
    9    20    1.19

 **********************************************************************

            Electrostatic Properties Using The SCF Density

 **********************************************************************

       Atomic Center    1 is at   1.237132 -1.284658 -0.443892
       Atomic Center    2 is at  -2.067650 -0.000743  1.104098
       Atomic Center    3 is at  -0.607870 -0.003801  1.522348
       Atomic Center    4 is at  -1.053623  1.672539 -0.135482
       Atomic Center    5 is at  -0.591100  0.002669 -1.656422
       Atomic Center    6 is at   1.237438  1.285252 -0.439172
       Atomic Center    7 is at   1.064240  0.002042 -1.531652
       Atomic Center    8 is at   1.627010 -0.002217  1.389518
       Atomic Center    9 is at  -1.054747 -1.671341 -0.140082
     736 points will be used for fitting atomic charges
 Fitting point charges to eletrostatic potential
 Charges from ESP fit, RMS=   0.00664 RRMS=   0.04144:
 Charge=   1.00000 Dipole=    -0.7860    -0.0032     6.0475 Tot=     6.0984
              1
     1  O   -0.990001
     2  O   -0.690220
     3  O   -0.930420
     4  Ca   1.674888
     5  O   -0.945192
     6  O   -0.990709
     7  P    0.545464
     8  Ca   1.651204
     9  Ca   1.674985
 -----------------------------------------------------------------

              Electrostatic Properties (Atomic Units)

 -----------------------------------------------------------------
    Center     Electric         -------- Electric Field --------
               Potential          X             Y             Z
 -----------------------------------------------------------------
    1 Atom    -22.248558
    2 Atom    -22.216165
    3 Atom    -22.204697
    4 Atom    -80.038957
    5 Atom    -22.248651
    6 Atom    -22.248571
    7 Atom    -53.962524
    8 Atom    -80.016251
    9 Atom    -80.039047
 -----------------------------------------------------------------
 1\1\GINC-N021\SP\RB3LYP\6-31+G(d,p)\Ca3O5P1(1+)\TIMN\12-Jun-2015\0\\# 
 b3lyp/6-31+G(d,p) int=ultrafine pop=(ReadRadii,MK)\\mol_17.25.10.pdbcc
 _plusQ.z58318.zip.xyz\\1,1\O,0,1.23713,-1.28466,-0.44389\O,0,-2.06765,
 -0.00074,1.1041\O,0,-0.60787,-0.0038,1.52235\Ca,0,-1.05362,1.67254,-0.
 13548\O,0,-0.5911,0.00267,-1.65642\O,0,1.23744,1.28525,-0.43917\P,0,1.
 06424,0.00204,-1.53165\Ca,0,1.62701,-0.00222,1.38952\Ca,0,-1.05475,-1.
 67134,-0.14008\\Version=EM64T-G03RevE.01\State=1-A\HF=-2750.2488174\RM
 SD=5.386e-05\Thermal=0.\Dipole=-0.3675306,-0.0014214,2.4412485\PG=C01 
 [X(Ca3O5P1)]\\@


 REALITY IS FOR PEOPLE WHO CAN'T FACE SCIENCE FICTION.
 Job cpu time:  0 days  0 hours  1 minutes 57.6 seconds.
 File lengths (MBytes):  RWF=     36 Int=      0 D2E=      0 Chk=     11 Scr=      1
 Normal termination of Gaussian 03 at Fri Jun 12 17:56:49 2015.
