 Entering Gaussian System, Link 0=/home/timn/tmp/g03.e01/g03
 Input=mol_17.26.47.pdbcccc_plusQ.z58458.zip.xyz.gjf
 Output=mol_17.26.47.pdbcccc_plusQ.z58458.zip.xyz.out
 Initial command:
 /home/timn/tmp/g03.e01/l1.exe /home/timn/tmp/g03.e01/Gau-13134.inp -scrdir=/home/timn/tmp/g03.e01/
 Default is to use a total of   2 processors:
                                2 via shared-memory
                                1 via Linda
 Entering Link 1 = /home/timn/tmp/g03.e01/l1.exe PID=     13135.
  
 Copyright (c) 1988,1990,1992,1993,1995,1998,2003,2004,2007, Gaussian, Inc.
                  All Rights Reserved.
  
 This is the Gaussian(R) 03 program.  It is based on the
 the Gaussian(R) 98 system (copyright 1998, Gaussian, Inc.),
 the Gaussian(R) 94 system (copyright 1995, Gaussian, Inc.),
 the Gaussian 92(TM) system (copyright 1992, Gaussian, Inc.),
 the Gaussian 90(TM) system (copyright 1990, Gaussian, Inc.),
 the Gaussian 88(TM) system (copyright 1988, Gaussian, Inc.),
 the Gaussian 86(TM) system (copyright 1986, Carnegie Mellon
 University), and the Gaussian 82(TM) system (copyright 1983,
 Carnegie Mellon University). Gaussian is a federally registered
 trademark of Gaussian, Inc.
  
 This software contains proprietary and confidential information,
 including trade secrets, belonging to Gaussian, Inc.
  
 This software is provided under written license and may be
 used, copied, transmitted, or stored only in accord with that
 written license.
  
 The following legend is applicable only to US Government
 contracts under FAR:
  
                    RESTRICTED RIGHTS LEGEND
  
 Use, reproduction and disclosure by the US Government is
 subject to restrictions as set forth in subparagraphs (a)
 and (c) of the Commercial Computer Software - Restricted
 Rights clause in FAR 52.227-19.
  
 Gaussian, Inc.
 340 Quinnipiac St., Bldg. 40, Wallingford CT 06492
  
  
 ---------------------------------------------------------------
 Warning -- This program may not be used in any manner that
 competes with the business of Gaussian, Inc. or will provide
 assistance to any competitor of Gaussian, Inc.  The licensee
 of this program is prohibited from giving any competitor of
 Gaussian, Inc. access to this program.  By using this program,
 the user acknowledges that Gaussian, Inc. is engaged in the
 business of creating and licensing software in the field of
 computational chemistry and represents and warrants to the
 licensee that it is not a competitor of Gaussian, Inc. and that
 it will not use this program in any manner prohibited above.
 ---------------------------------------------------------------
  

 Cite this work as:
 Gaussian 03, Revision E.01,
 M. J. Frisch, G. W. Trucks, H. B. Schlegel, G. E. Scuseria, 
 M. A. Robb, J. R. Cheeseman, J. A. Montgomery, Jr., T. Vreven, 
 K. N. Kudin, J. C. Burant, J. M. Millam, S. S. Iyengar, J. Tomasi, 
 V. Barone, B. Mennucci, M. Cossi, G. Scalmani, N. Rega, 
 G. A. Petersson, H. Nakatsuji, M. Hada, M. Ehara, K. Toyota, 
 R. Fukuda, J. Hasegawa, M. Ishida, T. Nakajima, Y. Honda, O. Kitao, 
 H. Nakai, M. Klene, X. Li, J. E. Knox, H. P. Hratchian, J. B. Cross, 
 V. Bakken, C. Adamo, J. Jaramillo, R. Gomperts, R. E. Stratmann, 
 O. Yazyev, A. J. Austin, R. Cammi, C. Pomelli, J. W. Ochterski, 
 P. Y. Ayala, K. Morokuma, G. A. Voth, P. Salvador, J. J. Dannenberg, 
 V. G. Zakrzewski, S. Dapprich, A. D. Daniels, M. C. Strain, 
 O. Farkas, D. K. Malick, A. D. Rabuck, K. Raghavachari, 
 J. B. Foresman, J. V. Ortiz, Q. Cui, A. G. Baboul, S. Clifford, 
 J. Cioslowski, B. B. Stefanov, G. Liu, A. Liashenko, P. Piskorz, 
 I. Komaromi, R. L. Martin, D. J. Fox, T. Keith, M. A. Al-Laham, 
 C. Y. Peng, A. Nanayakkara, M. Challacombe, P. M. W. Gill, 
 B. Johnson, W. Chen, M. W. Wong, C. Gonzalez, and J. A. Pople, 
 Gaussian, Inc., Wallingford CT, 2004.
 
 ******************************************
 Gaussian 03:  EM64T-G03RevE.01 11-Sep-2007
                12-Jun-2015 
 ******************************************
 %nproc=2
 Will use up to    2 processors via shared memory.
 Default route:  MP2=Direct MaxDisk=2000MB
 ----------------------------------------------------
 # b3lyp/6-31+G(d,p) int=ultrafine pop=(ReadRadii,MK)
 ----------------------------------------------------

 Warning!  SCF SP cutoffs with diffuse functions may be unreliable.
 Consider SCF=Tight

 1/38=1/1;
 2/17=6,18=5,40=1/2;
 3/5=1,6=6,7=111,11=2,16=1,25=1,30=1,74=-5,75=5/1,2,3;
 4//1;
 5/5=2,32=1,38=5/2;
 6/7=2,8=2,9=2,10=2,15=8,20=101,28=1/1,2;
 99/5=1,9=1/99;
 -----------------------------------------
 mol_17.26.47.pdbcccc_plusQ.z58458.zip.xyz
 -----------------------------------------
 Symbolic Z-matrix:
 Charge =  1 Multiplicity = 1
 O                     1.68685  -1.04036  -0.00002 
 O                    -2.78773  -1.0548    0.78462 
 O                    -2.78777  -1.05484  -0.78454 
 Ca                   -2.87056   1.03814  -0.00008 
 Ca                   -0.67981  -1.27818   0.00004 
 P                     3.25004  -0.96636  -0.00005 
 O                     3.59149   0.53439  -0.00005 
 O                    -0.62459   1.10508   0. 
 Ca                    1.48154   1.56902   0.00007 
 
                          Input orientation:                          
 ---------------------------------------------------------------------
 Center     Atomic     Atomic              Coordinates (Angstroms)
 Number     Number      Type              X           Y           Z
 ---------------------------------------------------------------------
    1          8             0        1.686850   -1.040360   -0.000020
    2          8             0       -2.787730   -1.054800    0.784620
    3          8             0       -2.787770   -1.054840   -0.784540
    4         20             0       -2.870560    1.038140   -0.000080
    5         20             0       -0.679810   -1.278180    0.000040
    6         15             0        3.250040   -0.966360   -0.000050
    7          8             0        3.591490    0.534390   -0.000050
    8          8             0       -0.624590    1.105080    0.000000
    9         20             0        1.481540    1.569020    0.000070
 ---------------------------------------------------------------------
                    Distance matrix (angstroms):
                    1          2          3          4          5
     1  O    0.000000
     2  O    4.542877   0.000000
     3  O    4.542896   1.569160   0.000000
     4  Ca   5.009007   2.236742   2.236693   0.000000
     5  Ca   2.378579   2.260264   2.260297   3.188216   0.000000
     6  P    1.564941   6.089187   6.089204   6.440479   3.942202
     7  O    2.471334   6.620852   6.620879   6.481655   4.639980
     8  O    3.153675   3.155929   3.155963   2.246967   2.383900
     9  Ca   2.617445   5.072141   5.072205   4.384359   3.574630
                    6          7          8          9
     6  P    0.000000
     7  O    1.539103   0.000000
     8  O    4.393589   4.254529   0.000000
     9  Ca   3.091237   2.349968   2.156623   0.000000
 Stoichiometry    Ca3O5P(1+)
 Framework group  C1[X(Ca3O5P)]
 Deg. of freedom    21
 Full point group                 C1
 Largest Abelian subgroup         C1      NOp   1
 Largest concise Abelian subgroup C1      NOp   1
                         Standard orientation:                         
 ---------------------------------------------------------------------
 Center     Atomic     Atomic              Coordinates (Angstroms)
 Number     Number      Type              X           Y           Z
 ---------------------------------------------------------------------
    1          8             0        1.686849   -1.040360   -0.000019
    2          8             0       -2.787731   -1.054798    0.784621
    3          8             0       -2.787771   -1.054838   -0.784539
    4         20             0       -2.870559    1.038142   -0.000079
    5         20             0       -0.679811   -1.278179    0.000041
    6         15             0        3.250040   -0.966361   -0.000049
    7          8             0        3.591490    0.534389   -0.000049
    8          8             0       -0.624589    1.105081    0.000000
    9         20             0        1.481541    1.569020    0.000071
 ---------------------------------------------------------------------
 Rotational constants (GHZ):      1.5206349      0.3920754      0.3194663
 Standard basis: 6-31+G(d,p) (6D, 7F)
 There are   199 symmetry adapted basis functions of A   symmetry.
 Integral buffers will be    131072 words long.
 Raffenetti 2 integral format.
 Two-electron integral symmetry is turned on.
   199 basis functions,   456 primitive gaussians,   199 cartesian basis functions
    57 alpha electrons       57 beta electrons
       nuclear repulsion energy       956.5524164479 Hartrees.
 NAtoms=    9 NActive=    9 NUniq=    9 SFac= 7.50D-01 NAtFMM=   80 NAOKFM=F Big=F
 One-electron integrals computed using PRISM.
 NBasis=   199 RedAO= T  NBF=   199
 NBsUse=   199 1.00D-06 NBFU=   199
 Harris functional with IExCor=  402 diagonalized for initial guess.
 ExpMin= 7.10D-03 ExpMax= 3.53D+04 ExpMxC= 5.30D+03 IAcc=3 IRadAn=         5 AccDes= 0.00D+00
 HarFok:  IExCor= 402 AccDes= 0.00D+00 IRadAn=         5 IDoV=1
 ScaDFX=  1.000000  1.000000  1.000000  1.000000
 Initial guess orbital symmetries:
       Occupied  (A) (A) (A) (A) (A) (A) (A) (A) (A) (A) (A) (A)
                 (A) (A) (A) (A) (A) (A) (A) (A) (A) (A) (A) (A)
                 (A) (A) (A) (A) (A) (A) (A) (A) (A) (A) (A) (A)
                 (A) (A) (A) (A) (A) (A) (A) (A) (A) (A) (A) (A)
                 (A) (A) (A) (A) (A) (A) (A) (A) (A)
       Virtual   (A) (A) (A) (A) (A) (A) (A) (A) (A) (A) (A) (A)
                 (A) (A) (A) (A) (A) (A) (A) (A) (A) (A) (A) (A)
                 (A) (A) (A) (A) (A) (A) (A) (A) (A) (A) (A) (A)
                 (A) (A) (A) (A) (A) (A) (A) (A) (A) (A) (A) (A)
                 (A) (A) (A) (A) (A) (A) (A) (A) (A) (A) (A) (A)
                 (A) (A) (A) (A) (A) (A) (A) (A) (A) (A) (A) (A)
                 (A) (A) (A) (A) (A) (A) (A) (A) (A) (A) (A) (A)
                 (A) (A) (A) (A) (A) (A) (A) (A) (A) (A) (A) (A)
                 (A) (A) (A) (A) (A) (A) (A) (A) (A) (A) (A) (A)
                 (A) (A) (A) (A) (A) (A) (A) (A) (A) (A) (A) (A)
                 (A) (A) (A) (A) (A) (A) (A) (A) (A) (A) (A) (A)
                 (A) (A) (A) (A) (A) (A) (A) (A) (A) (A)
 The electronic state of the initial guess is 1-A.
 Requested convergence on RMS density matrix=1.00D-04 within 128 cycles.
 Requested convergence on MAX density matrix=1.00D-02.
 Requested convergence on             energy=1.00D-02.
 No special actions if energy rises.
 EnCoef did     2 forward-backward iterations
 EnCoef did     1 forward-backward iterations
 SCF Done:  E(RB+HF-LYP) =  -2750.21059132     A.U. after    9 cycles
             Convg  =    0.7406D-04             -V/T =  2.0029
             S**2   =   0.0000

 **********************************************************************

            Population analysis using the SCF density.

 **********************************************************************

 Orbital symmetries:
       Occupied  (A) (A) (A) (A) (A) (A) (A) (A) (A) (A) (A) (A)
                 (A) (A) (A) (A) (A) (A) (A) (A) (A) (A) (A) (A)
                 (A) (A) (A) (A) (A) (A) (A) (A) (A) (A) (A) (A)
                 (A) (A) (A) (A) (A) (A) (A) (A) (A) (A) (A) (A)
                 (A) (A) (A) (A) (A) (A) (A) (A) (A)
       Virtual   (A) (A) (A) (A) (A) (A) (A) (A) (A) (A) (A) (A)
                 (A) (A) (A) (A) (A) (A) (A) (A) (A) (A) (A) (A)
                 (A) (A) (A) (A) (A) (A) (A) (A) (A) (A) (A) (A)
                 (A) (A) (A) (A) (A) (A) (A) (A) (A) (A) (A) (A)
                 (A) (A) (A) (A) (A) (A) (A) (A) (A) (A) (A) (A)
                 (A) (A) (A) (A) (A) (A) (A) (A) (A) (A) (A) (A)
                 (A) (A) (A) (A) (A) (A) (A) (A) (A) (A) (A) (A)
                 (A) (A) (A) (A) (A) (A) (A) (A) (A) (A) (A) (A)
                 (A) (A) (A) (A) (A) (A) (A) (A) (A) (A) (A) (A)
                 (A) (A) (A) (A) (A) (A) (A) (A) (A) (A) (A) (A)
                 (A) (A) (A) (A) (A) (A) (A) (A) (A) (A) (A) (A)
                 (A) (A) (A) (A) (A) (A) (A) (A) (A) (A)
 The electronic state is 1-A.
 Alpha  occ. eigenvalues -- -145.52558-145.47903-145.45928 -77.31436 -19.29695
 Alpha  occ. eigenvalues --  -19.28905 -19.20253 -19.20248 -19.17094 -15.59457
 Alpha  occ. eigenvalues --  -15.54771 -15.52792 -12.72722 -12.72680 -12.72478
 Alpha  occ. eigenvalues --  -12.67981 -12.67951 -12.67880 -12.66029 -12.65991
 Alpha  occ. eigenvalues --  -12.65876  -6.77035  -4.93465  -4.93240  -4.92822
 Alpha  occ. eigenvalues --   -1.96690  -1.92076  -1.90159  -1.24614  -1.24613
 Alpha  occ. eigenvalues --   -1.23576  -1.20503  -1.19685  -1.19273  -1.18006
 Alpha  occ. eigenvalues --   -1.17958  -1.17612  -1.15365  -1.09603  -1.02799
 Alpha  occ. eigenvalues --   -0.91875  -0.84034  -0.68625  -0.57620  -0.54920
 Alpha  occ. eigenvalues --   -0.54232  -0.46665  -0.45217  -0.43696  -0.42879
 Alpha  occ. eigenvalues --   -0.41966  -0.41268  -0.37527  -0.36623  -0.35917
 Alpha  occ. eigenvalues --   -0.30798  -0.29150
 Alpha virt. eigenvalues --   -0.21353  -0.20121  -0.17696  -0.14556  -0.13030
 Alpha virt. eigenvalues --   -0.11138  -0.10817  -0.10363  -0.09100  -0.08476
 Alpha virt. eigenvalues --   -0.07858  -0.07111  -0.06764  -0.06248  -0.05628
 Alpha virt. eigenvalues --   -0.05188  -0.04733  -0.04683  -0.04464  -0.04344
 Alpha virt. eigenvalues --   -0.04003  -0.03716  -0.03703  -0.03624  -0.03171
 Alpha virt. eigenvalues --   -0.02777  -0.02662  -0.02453  -0.01921  -0.00113
 Alpha virt. eigenvalues --    0.01318   0.02752   0.03371   0.03460   0.03668
 Alpha virt. eigenvalues --    0.04874   0.05033   0.05905   0.05977   0.06290
 Alpha virt. eigenvalues --    0.06567   0.07097   0.07283   0.08206   0.08738
 Alpha virt. eigenvalues --    0.09190   0.10299   0.10753   0.10898   0.11384
 Alpha virt. eigenvalues --    0.11449   0.13513   0.15041   0.15049   0.16479
 Alpha virt. eigenvalues --    0.17257   0.17694   0.19057   0.19835   0.20080
 Alpha virt. eigenvalues --    0.21546   0.22355   0.23467   0.24144   0.26712
 Alpha virt. eigenvalues --    0.27510   0.28812   0.30332   0.31207   0.31255
 Alpha virt. eigenvalues --    0.32411   0.33480   0.34885   0.36801   0.38060
 Alpha virt. eigenvalues --    0.40606   0.42564   0.45768   0.46799   0.52514
 Alpha virt. eigenvalues --    0.52886   0.54091   0.57480   0.60738   0.64102
 Alpha virt. eigenvalues --    0.65168   0.85562   0.92277   0.94287   1.05087
 Alpha virt. eigenvalues --    1.07491   1.07495   1.10992   1.12553   1.14739
 Alpha virt. eigenvalues --    1.16112   1.16290   1.17434   1.19994   1.20583
 Alpha virt. eigenvalues --    1.21717   1.22838   1.25529   1.28490   1.32393
 Alpha virt. eigenvalues --    1.37941   1.41087   1.48242   1.53867   1.54148
 Alpha virt. eigenvalues --    1.54829   1.63717   1.66322   1.68682   1.69452
 Alpha virt. eigenvalues --    1.72705   1.73043   1.76705   1.78362   1.80065
 Alpha virt. eigenvalues --    1.80380   1.83365   1.84206   1.85129   1.86541
 Alpha virt. eigenvalues --    1.89056   1.92094   1.95257   2.01465   2.05562
 Alpha virt. eigenvalues --    2.12179   2.21714   2.24050   2.51043   2.67670
 Alpha virt. eigenvalues --    3.06797   3.38675   3.85996   3.88087   3.95560
 Alpha virt. eigenvalues --    4.10898   4.14244
          Condensed to atoms (all electrons):
              1          2          3          4          5          6
     1  O    8.914718  -0.001584  -0.001584   0.005408   0.037204  -0.144210
     2  O   -0.001584   8.485330  -0.030006   0.098445   0.106804  -0.000088
     3  O   -0.001584  -0.030006   8.485333   0.098454   0.106802  -0.000088
     4  Ca   0.005408   0.098445   0.098454  18.303190  -0.047308  -0.012677
     5  Ca   0.037204   0.106804   0.106802  -0.047308  18.343173   0.004687
     6  P   -0.144210  -0.000088  -0.000088  -0.012677   0.004687  14.409393
     7  O   -0.075111   0.000005   0.000005   0.002347   0.005428   0.091345
     8  O   -0.012911  -0.003697  -0.003696   0.109017   0.055020  -0.008602
     9  Ca   0.017699  -0.000990  -0.000993  -0.013907  -0.005194  -0.019987
              7          8          9
     1  O   -0.075111  -0.012911   0.017699
     2  O    0.000005  -0.003697  -0.000990
     3  O    0.000005  -0.003696  -0.000993
     4  Ca   0.002347   0.109017  -0.013907
     5  Ca   0.005428   0.055020  -0.005194
     6  P    0.091345  -0.008602  -0.019987
     7  O    8.555229  -0.000423   0.076953
     8  O   -0.000423   8.991783   0.196298
     9  Ca   0.076953   0.196298  18.254121
 Mulliken atomic charges:
              1
     1  O   -0.739629
     2  O   -0.654219
     3  O   -0.654228
     4  Ca   1.457030
     5  Ca   1.393385
     6  P    0.680227
     7  O   -0.655778
     8  O   -1.322789
     9  Ca   1.496000
 Sum of Mulliken charges=   1.00000
 Atomic charges with hydrogens summed into heavy atoms:
              1
     1  O   -0.739629
     2  O   -0.654219
     3  O   -0.654228
     4  Ca   1.457030
     5  Ca   1.393385
     6  P    0.680227
     7  O   -0.655778
     8  O   -1.322789
     9  Ca   1.496000
 Sum of Mulliken charges=   1.00000
 Electronic spatial extent (au):  <R**2>=  2984.7202
 Charge=     1.0000 electrons
 Dipole moment (field-independent basis, Debye):
    X=     1.5384    Y=     9.0240    Z=     0.0000  Tot=     9.1542
 Quadrupole moment (field-independent basis, Debye-Ang):
   XX=   -64.0801   YY=   -51.7027   ZZ=   -77.1284
   XY=   -21.8722   XZ=     0.0031   YZ=     0.0001
 Traceless Quadrupole moment (field-independent basis, Debye-Ang):
   XX=     0.2236   YY=    12.6010   ZZ=   -12.8247
   XY=   -21.8722   XZ=     0.0031   YZ=     0.0001
 Octapole moment (field-independent basis, Debye-Ang**2):
  XXX=   -95.0978  YYY=    45.5131  ZZZ=    -0.0001  XYY=     9.0103
  XXY=   118.3351  XXZ=    -0.0048  XZZ=     9.7564  YZZ=    10.9555
  YYZ=     0.0014  XYZ=     0.0040
 Hexadecapole moment (field-independent basis, Debye-Ang**3):
 XXXX= -2682.9528 YYYY=  -563.4368 ZZZZ=  -128.6388 XXXY=  -454.5936
 XXXZ=     0.0271 YYYX=    22.1197 YYYZ=     0.0009 ZZZX=     0.0068
 ZZZY=     0.0009 XXYY=  -492.2080 XXZZ=  -482.1493 YYZZ=  -129.6229
 XXYZ=    -0.0018 YYXZ=     0.0060 ZZXY=   -17.0383
 N-N= 9.565524164479D+02 E-N=-8.414274239050D+03  KE= 2.742250485694D+03
 Merz-Kollman atomic radii used.
 Read replacement radii for each type of atom:
 Rad(20) =   1.188000000000D+00
 Atom Element Radius
    1     8    1.40
    2     8    1.40
    3     8    1.40
    4    20    1.19
    5    20    1.19
    6    15    1.80
    7     8    1.40
    8     8    1.40
    9    20    1.19

 **********************************************************************

            Electrostatic Properties Using The SCF Density

 **********************************************************************

       Atomic Center    1 is at   1.686849 -1.040360 -0.000019
       Atomic Center    2 is at  -2.787731 -1.054798  0.784621
       Atomic Center    3 is at  -2.787771 -1.054838 -0.784539
       Atomic Center    4 is at  -2.870559  1.038142 -0.000079
       Atomic Center    5 is at  -0.679811 -1.278179  0.000041
       Atomic Center    6 is at   3.250040 -0.966361 -0.000049
       Atomic Center    7 is at   3.591490  0.534389 -0.000049
       Atomic Center    8 is at  -0.624589  1.105081  0.000000
       Atomic Center    9 is at   1.481541  1.569020  0.000071
     879 points will be used for fitting atomic charges
 Fitting point charges to eletrostatic potential
 Charges from ESP fit, RMS=   0.00471 RRMS=   0.03207:
 Charge=   1.00000 Dipole=     1.5370     9.2106     0.0001 Tot=     9.3380
              1
     1  O   -0.748201
     2  O   -0.776126
     3  O   -0.776136
     4  Ca   1.699119
     5  Ca   1.665449
     6  P    0.603208
     7  O   -0.661323
     8  O   -1.751049
     9  Ca   1.745059
 -----------------------------------------------------------------

              Electrostatic Properties (Atomic Units)

 -----------------------------------------------------------------
    Center     Electric         -------- Electric Field --------
               Potential          X             Y             Z
 -----------------------------------------------------------------
    1 Atom    -22.167427
    2 Atom    -22.273277
    3 Atom    -22.273276
    4 Atom    -80.062083
    5 Atom    -80.080912
    6 Atom    -53.901529
    7 Atom    -22.177624
    8 Atom    -22.293133
    9 Atom    -80.015431
 -----------------------------------------------------------------
 1\1\GINC-N033\SP\RB3LYP\6-31+G(d,p)\Ca3O5P1(1+)\TIMN\12-Jun-2015\0\\# 
 b3lyp/6-31+G(d,p) int=ultrafine pop=(ReadRadii,MK)\\mol_17.26.47.pdbcc
 cc_plusQ.z58458.zip.xyz\\1,1\O,0,1.68685,-1.04036,-0.00002\O,0,-2.7877
 3,-1.0548,0.78462\O,0,-2.78777,-1.05484,-0.78454\Ca,0,-2.87056,1.03814
 ,-0.00008\Ca,0,-0.67981,-1.27818,0.00004\P,0,3.25004,-0.96636,-0.00005
 \O,0,3.59149,0.53439,-0.00005\O,0,-0.62459,1.10508,0.\Ca,0,1.48154,1.5
 6902,0.00007\\Version=EM64T-G03RevE.01\State=1-A\HF=-2750.2105913\RMSD
 =7.406e-05\Thermal=0.\Dipole=0.605235,3.5503188,0.000013\PG=C01 [X(Ca3
 O5P1)]\\@


 THE WORLD OF CHEMICAL REACTIONS IS LIKE A STAGE,
 ON WHICH SCENE AFTER SCENE IS CEASELESSLY PLAYED.
 THE ACTORS ON IT ARE THE ELEMENTS.
   -- CLEMENS WINKLER   BER. 30,13(1897)
 (DISCOVERER OF GERMANIUM, FEB 6, 1886)
 Job cpu time:  0 days  0 hours  2 minutes  4.0 seconds.
 File lengths (MBytes):  RWF=     36 Int=      0 D2E=      0 Chk=     11 Scr=      1
 Normal termination of Gaussian 03 at Fri Jun 12 18:01:12 2015.
