 Entering Gaussian System, Link 0=/home/timn/tmp/g03.e01/g03
 Input=mol_17.23.12.pdbccc_plusQ.z58213.zip.xyz.gjf
 Output=mol_17.23.12.pdbccc_plusQ.z58213.zip.xyz.out
 Initial command:
 /home/timn/tmp/g03.e01/l1.exe /home/timn/tmp/g03.e01/Gau-19803.inp -scrdir=/home/timn/tmp/g03.e01/
 Default is to use a total of   2 processors:
                                2 via shared-memory
                                1 via Linda
 Entering Link 1 = /home/timn/tmp/g03.e01/l1.exe PID=     19804.
  
 Copyright (c) 1988,1990,1992,1993,1995,1998,2003,2004,2007, Gaussian, Inc.
                  All Rights Reserved.
  
 This is the Gaussian(R) 03 program.  It is based on the
 the Gaussian(R) 98 system (copyright 1998, Gaussian, Inc.),
 the Gaussian(R) 94 system (copyright 1995, Gaussian, Inc.),
 the Gaussian 92(TM) system (copyright 1992, Gaussian, Inc.),
 the Gaussian 90(TM) system (copyright 1990, Gaussian, Inc.),
 the Gaussian 88(TM) system (copyright 1988, Gaussian, Inc.),
 the Gaussian 86(TM) system (copyright 1986, Carnegie Mellon
 University), and the Gaussian 82(TM) system (copyright 1983,
 Carnegie Mellon University). Gaussian is a federally registered
 trademark of Gaussian, Inc.
  
 This software contains proprietary and confidential information,
 including trade secrets, belonging to Gaussian, Inc.
  
 This software is provided under written license and may be
 used, copied, transmitted, or stored only in accord with that
 written license.
  
 The following legend is applicable only to US Government
 contracts under FAR:
  
                    RESTRICTED RIGHTS LEGEND
  
 Use, reproduction and disclosure by the US Government is
 subject to restrictions as set forth in subparagraphs (a)
 and (c) of the Commercial Computer Software - Restricted
 Rights clause in FAR 52.227-19.
  
 Gaussian, Inc.
 340 Quinnipiac St., Bldg. 40, Wallingford CT 06492
  
  
 ---------------------------------------------------------------
 Warning -- This program may not be used in any manner that
 competes with the business of Gaussian, Inc. or will provide
 assistance to any competitor of Gaussian, Inc.  The licensee
 of this program is prohibited from giving any competitor of
 Gaussian, Inc. access to this program.  By using this program,
 the user acknowledges that Gaussian, Inc. is engaged in the
 business of creating and licensing software in the field of
 computational chemistry and represents and warrants to the
 licensee that it is not a competitor of Gaussian, Inc. and that
 it will not use this program in any manner prohibited above.
 ---------------------------------------------------------------
  

 Cite this work as:
 Gaussian 03, Revision E.01,
 M. J. Frisch, G. W. Trucks, H. B. Schlegel, G. E. Scuseria, 
 M. A. Robb, J. R. Cheeseman, J. A. Montgomery, Jr., T. Vreven, 
 K. N. Kudin, J. C. Burant, J. M. Millam, S. S. Iyengar, J. Tomasi, 
 V. Barone, B. Mennucci, M. Cossi, G. Scalmani, N. Rega, 
 G. A. Petersson, H. Nakatsuji, M. Hada, M. Ehara, K. Toyota, 
 R. Fukuda, J. Hasegawa, M. Ishida, T. Nakajima, Y. Honda, O. Kitao, 
 H. Nakai, M. Klene, X. Li, J. E. Knox, H. P. Hratchian, J. B. Cross, 
 V. Bakken, C. Adamo, J. Jaramillo, R. Gomperts, R. E. Stratmann, 
 O. Yazyev, A. J. Austin, R. Cammi, C. Pomelli, J. W. Ochterski, 
 P. Y. Ayala, K. Morokuma, G. A. Voth, P. Salvador, J. J. Dannenberg, 
 V. G. Zakrzewski, S. Dapprich, A. D. Daniels, M. C. Strain, 
 O. Farkas, D. K. Malick, A. D. Rabuck, K. Raghavachari, 
 J. B. Foresman, J. V. Ortiz, Q. Cui, A. G. Baboul, S. Clifford, 
 J. Cioslowski, B. B. Stefanov, G. Liu, A. Liashenko, P. Piskorz, 
 I. Komaromi, R. L. Martin, D. J. Fox, T. Keith, M. A. Al-Laham, 
 C. Y. Peng, A. Nanayakkara, M. Challacombe, P. M. W. Gill, 
 B. Johnson, W. Chen, M. W. Wong, C. Gonzalez, and J. A. Pople, 
 Gaussian, Inc., Wallingford CT, 2004.
 
 ******************************************
 Gaussian 03:  EM64T-G03RevE.01 11-Sep-2007
                12-Jun-2015 
 ******************************************
 %nproc=2
 Will use up to    2 processors via shared memory.
 Default route:  MP2=Direct MaxDisk=2000MB
 ----------------------------------------------------
 # b3lyp/6-31+G(d,p) int=ultrafine pop=(ReadRadii,MK)
 ----------------------------------------------------

 Warning!  SCF SP cutoffs with diffuse functions may be unreliable.
 Consider SCF=Tight

 1/38=1/1;
 2/17=6,18=5,40=1/2;
 3/5=1,6=6,7=111,11=2,16=1,25=1,30=1,74=-5,75=5/1,2,3;
 4//1;
 5/5=2,32=1,38=5/2;
 6/7=2,8=2,9=2,10=2,15=8,20=101,28=1/1,2;
 99/5=1,9=1/99;
 ----------------------------------------
 mol_17.23.12.pdbccc_plusQ.z58213.zip.xyz
 ----------------------------------------
 Symbolic Z-matrix:
 Charge =  1 Multiplicity = 1
 O                     0.        1.1957    0. 
 O                     0.30906   2.71952   0. 
 Ca                   -1.93084   2.14488   0. 
 O                    -2.61445  -0.1395    0. 
 P                    -1.30592  -0.95996   0. 
 O                    -1.30991  -2.49893   0. 
 Ca                    2.20058   1.11895   0. 
 O                     2.51792  -1.02377   0. 
 Ca                    1.14866  -2.64507   0. 
 
                          Input orientation:                          
 ---------------------------------------------------------------------
 Center     Atomic     Atomic              Coordinates (Angstroms)
 Number     Number      Type              X           Y           Z
 ---------------------------------------------------------------------
    1          8             0        0.000000    1.195700    0.000000
    2          8             0        0.309060    2.719520    0.000000
    3         20             0       -1.930840    2.144880    0.000000
    4          8             0       -2.614450   -0.139500    0.000000
    5         15             0       -1.305920   -0.959960    0.000000
    6          8             0       -1.309910   -2.498930    0.000000
    7         20             0        2.200580    1.118950    0.000000
    8          8             0        2.517920   -1.023770    0.000000
    9         20             0        1.148660   -2.645070    0.000000
 ---------------------------------------------------------------------
                    Distance matrix (angstroms):
                    1          2          3          4          5
     1  O    0.000000
     2  O    1.554846   0.000000
     3  Ca   2.151531   2.312437   0.000000
     4  O    2.935661   4.089120   2.384474   0.000000
     5  P    2.520376   4.018300   3.167105   1.544476   0.000000
     6  O    3.919969   5.463816   4.685139   2.696059   1.538975
     7  Ca   2.201918   2.477836   4.256896   4.976767   4.076446
     8  O    3.356482   4.346410   5.461850   5.207990   3.824372
     9  Ca   4.008857   5.429894   5.694466   4.520938   2.977341
                    6          7          8          9
     6  O    0.000000
     7  Ca   5.041091   0.000000
     8  O    4.102241   2.166092   0.000000
     9  Ca   2.462910   3.908245   2.122142   0.000000
 Stoichiometry    Ca3O5P(1+)
 Framework group  CS[SG(Ca3O5P)]
 Deg. of freedom    15
 Full point group                 CS
 Largest Abelian subgroup         CS      NOp   2
 Largest concise Abelian subgroup C1      NOp   1
                         Standard orientation:                         
 ---------------------------------------------------------------------
 Center     Atomic     Atomic              Coordinates (Angstroms)
 Number     Number      Type              X           Y           Z
 ---------------------------------------------------------------------
    1          8             0        0.000000    1.195700    0.000000
    2          8             0        0.309062    2.719520    0.000000
    3         20             0       -1.930839    2.144883    0.000000
    4          8             0       -2.614452   -0.139497    0.000000
    5         15             0       -1.305923   -0.959958    0.000000
    6          8             0       -1.309914   -2.498928    0.000000
    7         20             0        2.200580    1.118948    0.000000
    8          8             0        2.517917   -1.023773    0.000000
    9         20             0        1.148656   -2.645071    0.000000
 ---------------------------------------------------------------------
 Rotational constants (GHZ):      0.8256640      0.5770414      0.3396596
 Standard basis: 6-31+G(d,p) (6D, 7F)
 There are   147 symmetry adapted basis functions of A'  symmetry.
 There are    52 symmetry adapted basis functions of A"  symmetry.
 Integral buffers will be    131072 words long.
 Raffenetti 2 integral format.
 Two-electron integral symmetry is turned on.
   199 basis functions,   456 primitive gaussians,   199 cartesian basis functions
    57 alpha electrons       57 beta electrons
       nuclear repulsion energy       945.3506978967 Hartrees.
 NAtoms=    9 NActive=    9 NUniq=    9 SFac= 7.50D-01 NAtFMM=   80 NAOKFM=F Big=F
 One-electron integrals computed using PRISM.
 NBasis=   199 RedAO= T  NBF=   147    52
 NBsUse=   199 1.00D-06 NBFU=   147    52
 Harris functional with IExCor=  402 diagonalized for initial guess.
 ExpMin= 7.10D-03 ExpMax= 3.53D+04 ExpMxC= 5.30D+03 IAcc=3 IRadAn=         5 AccDes= 0.00D+00
 HarFok:  IExCor= 402 AccDes= 0.00D+00 IRadAn=         5 IDoV=1
 ScaDFX=  1.000000  1.000000  1.000000  1.000000
 Initial guess orbital symmetries:
       Occupied  (A') (A') (A') (A') (A') (A') (A') (A') (A') (A')
                 (A') (A') (A') (A') (A") (A') (A') (A") (A') (A')
                 (A") (A') (A') (A') (A") (A') (A') (A') (A') (A')
                 (A') (A') (A') (A') (A") (A") (A") (A') (A') (A')
                 (A') (A') (A') (A') (A') (A') (A") (A') (A") (A')
                 (A') (A') (A") (A") (A') (A") (A')
       Virtual   (A') (A") (A') (A') (A') (A") (A') (A") (A') (A")
                 (A') (A') (A') (A') (A') (A') (A') (A") (A') (A")
                 (A") (A') (A') (A') (A') (A') (A') (A') (A") (A')
                 (A') (A") (A") (A') (A') (A") (A') (A') (A') (A")
                 (A") (A') (A") (A') (A") (A') (A') (A') (A') (A")
                 (A') (A") (A') (A') (A') (A") (A') (A') (A') (A")
                 (A') (A") (A') (A') (A") (A') (A') (A") (A') (A')
                 (A') (A') (A') (A') (A") (A') (A') (A') (A') (A')
                 (A") (A') (A") (A') (A') (A') (A') (A') (A') (A')
                 (A") (A") (A") (A') (A") (A') (A") (A') (A') (A')
                 (A') (A') (A') (A') (A') (A') (A') (A") (A') (A')
                 (A') (A') (A') (A") (A") (A") (A") (A') (A") (A')
                 (A") (A') (A') (A') (A') (A") (A') (A') (A") (A')
                 (A') (A") (A') (A') (A') (A') (A') (A') (A') (A')
                 (A') (A')
 The electronic state of the initial guess is 1-A'.
 Requested convergence on RMS density matrix=1.00D-04 within 128 cycles.
 Requested convergence on MAX density matrix=1.00D-02.
 Requested convergence on             energy=1.00D-02.
 No special actions if energy rises.
 EnCoef did     2 forward-backward iterations
 EnCoef did     2 forward-backward iterations
 EnCoef did     4 forward-backward iterations
 SCF Done:  E(RB+HF-LYP) =  -2750.13357485     A.U. after   10 cycles
             Convg  =    0.6506D-04             -V/T =  2.0029
             S**2   =   0.0000

 **********************************************************************

            Population analysis using the SCF density.

 **********************************************************************

 Orbital symmetries:
       Occupied  (A') (A') (A') (A') (A') (A') (A') (A') (A') (A')
                 (A') (A') (A") (A') (A') (A") (A') (A') (A") (A')
                 (A') (A') (A") (A') (A') (A') (A') (A') (A') (A")
                 (A') (A") (A') (A') (A') (A") (A') (A') (A') (A')
                 (A') (A') (A') (A') (A') (A") (A') (A') (A") (A')
                 (A") (A') (A') (A') (A") (A") (A')
       Virtual   (A') (A') (A") (A') (A") (A') (A") (A') (A') (A")
                 (A') (A') (A') (A') (A') (A") (A') (A') (A') (A")
                 (A") (A') (A') (A') (A') (A') (A") (A') (A') (A')
                 (A') (A') (A") (A') (A") (A') (A') (A") (A") (A')
                 (A") (A') (A") (A') (A') (A") (A') (A") (A') (A')
                 (A") (A') (A') (A') (A") (A') (A') (A') (A') (A")
                 (A") (A') (A') (A') (A") (A') (A") (A') (A') (A')
                 (A') (A') (A') (A") (A') (A') (A') (A') (A') (A')
                 (A") (A') (A") (A') (A') (A') (A') (A') (A') (A')
                 (A") (A") (A") (A') (A') (A") (A') (A") (A') (A')
                 (A') (A') (A') (A') (A') (A') (A') (A') (A') (A")
                 (A') (A') (A') (A") (A") (A") (A') (A') (A") (A')
                 (A') (A") (A") (A") (A') (A') (A") (A') (A') (A')
                 (A') (A") (A') (A') (A') (A') (A') (A') (A') (A')
                 (A') (A')
 The electronic state is 1-A'.
 Alpha  occ. eigenvalues -- -145.53134-145.49949-145.45495 -77.27356 -19.26247
 Alpha  occ. eigenvalues --  -19.26052 -19.23340 -19.23108 -19.11536 -15.59917
 Alpha  occ. eigenvalues --  -15.56821 -15.52382 -12.73189 -12.73079 -12.73023
 Alpha  occ. eigenvalues --  -12.70072 -12.70041 -12.69864 -12.65654 -12.65563
 Alpha  occ. eigenvalues --  -12.65432  -6.72953  -4.89344  -4.89167  -4.88800
 Alpha  occ. eigenvalues --   -1.96942  -1.93927  -1.89677  -1.24777  -1.24745
 Alpha  occ. eigenvalues --   -1.24028  -1.21746  -1.21684  -1.20589  -1.17708
 Alpha  occ. eigenvalues --   -1.17668  -1.16590  -1.11546  -1.07225  -1.06387
 Alpha  occ. eigenvalues --   -0.86987  -0.85666  -0.64350  -0.53130  -0.52572
 Alpha  occ. eigenvalues --   -0.50284  -0.46708  -0.46430  -0.44219  -0.43749
 Alpha  occ. eigenvalues --   -0.43575  -0.35543  -0.34742  -0.31906  -0.31213
 Alpha  occ. eigenvalues --   -0.29801  -0.29518
 Alpha virt. eigenvalues --   -0.19996  -0.17694  -0.17323  -0.15029  -0.11890
 Alpha virt. eigenvalues --   -0.10334  -0.10273  -0.09994  -0.09110  -0.08531
 Alpha virt. eigenvalues --   -0.08205  -0.06884  -0.06466  -0.05838  -0.05330
 Alpha virt. eigenvalues --   -0.04959  -0.04958  -0.04449  -0.04153  -0.04135
 Alpha virt. eigenvalues --   -0.03965  -0.03746  -0.03541  -0.03167  -0.02977
 Alpha virt. eigenvalues --   -0.02476  -0.02333  -0.02295  -0.00055   0.00371
 Alpha virt. eigenvalues --    0.01690   0.02868   0.03512   0.03587   0.04237
 Alpha virt. eigenvalues --    0.04618   0.05262   0.05645   0.06081   0.06674
 Alpha virt. eigenvalues --    0.07111   0.07537   0.08227   0.08240   0.08888
 Alpha virt. eigenvalues --    0.09645   0.10624   0.10721   0.10820   0.11744
 Alpha virt. eigenvalues --    0.12463   0.12723   0.13752   0.14745   0.14977
 Alpha virt. eigenvalues --    0.16088   0.18258   0.18500   0.18891   0.18940
 Alpha virt. eigenvalues --    0.20782   0.20945   0.23272   0.26070   0.27197
 Alpha virt. eigenvalues --    0.27902   0.29353   0.29575   0.32002   0.32961
 Alpha virt. eigenvalues --    0.33285   0.34387   0.36031   0.36320   0.37334
 Alpha virt. eigenvalues --    0.39352   0.40633   0.45280   0.48998   0.51407
 Alpha virt. eigenvalues --    0.57321   0.58102   0.58431   0.59951   0.67702
 Alpha virt. eigenvalues --    0.71955   0.75238   0.81165   0.92115   0.95953
 Alpha virt. eigenvalues --    1.05220   1.09345   1.10353   1.10485   1.14306
 Alpha virt. eigenvalues --    1.14550   1.16498   1.16643   1.17905   1.19705
 Alpha virt. eigenvalues --    1.21422   1.22342   1.24752   1.30017   1.30924
 Alpha virt. eigenvalues --    1.35766   1.43699   1.44725   1.48554   1.50558
 Alpha virt. eigenvalues --    1.54208   1.60203   1.62077   1.67930   1.69937
 Alpha virt. eigenvalues --    1.73141   1.75403   1.78172   1.80375   1.81287
 Alpha virt. eigenvalues --    1.83779   1.84612   1.85462   1.86469   1.87591
 Alpha virt. eigenvalues --    1.89762   1.92745   1.96952   2.00881   2.04292
 Alpha virt. eigenvalues --    2.10046   2.20232   2.22741   2.60640   2.70696
 Alpha virt. eigenvalues --    3.08150   3.40578   3.85347   3.89991   3.99332
 Alpha virt. eigenvalues --    4.05662   4.18523
          Condensed to atoms (all electrons):
              1          2          3          4          5          6
     1  O    8.713778  -0.160906   0.097909  -0.020548  -0.025304  -0.031323
     2  O   -0.160906   8.730559   0.111261  -0.012832   0.011979  -0.006353
     3  Ca   0.097909   0.111261  18.225900   0.059474  -0.036371   0.018070
     4  O   -0.020548  -0.012832   0.059474   8.731486  -0.092188   0.059572
     5  P   -0.025304   0.011979  -0.036371  -0.092188  15.250668  -0.624567
     6  O   -0.031323  -0.006353   0.018070   0.059572  -0.624567   9.102144
     7  Ca   0.045831   0.084202  -0.017927  -0.003104   0.041541  -0.012397
     8  O    0.006134  -0.001246   0.001755   0.003543  -0.033528   0.004646
     9  Ca   0.012904  -0.004697   0.006357   0.025712  -0.068878   0.071682
              7          8          9
     1  O    0.045831   0.006134   0.012904
     2  O    0.084202  -0.001246  -0.004697
     3  Ca  -0.017927   0.001755   0.006357
     4  O   -0.003104   0.003543   0.025712
     5  P    0.041541  -0.033528  -0.068878
     6  O   -0.012397   0.004646   0.071682
     7  Ca  18.272077   0.186717  -0.019253
     8  O    0.186717   8.795093   0.257785
     9  Ca  -0.019253   0.257785  18.306988
 Mulliken atomic charges:
              1
     1  O   -0.638474
     2  O   -0.751968
     3  Ca   1.533572
     4  O   -0.751116
     5  P    0.576647
     6  O   -0.581474
     7  Ca   1.422313
     8  O   -1.220900
     9  Ca   1.411401
 Sum of Mulliken charges=   1.00000
 Atomic charges with hydrogens summed into heavy atoms:
              1
     1  O   -0.638474
     2  O   -0.751968
     3  Ca   1.533572
     4  O   -0.751116
     5  P    0.576647
     6  O   -0.581474
     7  Ca   1.422313
     8  O   -1.220900
     9  Ca   1.411401
 Sum of Mulliken charges=   1.00000
 Electronic spatial extent (au):  <R**2>=  2775.5819
 Charge=     1.0000 electrons
 Dipole moment (field-independent basis, Debye):
    X=    -0.7654    Y=     3.5836    Z=     0.0000  Tot=     3.6644
 Quadrupole moment (field-independent basis, Debye-Ang):
   XX=   -60.1627   YY=   -29.5469   ZZ=   -73.8952
   XY=   -27.7848   XZ=     0.0000   YZ=     0.0000
 Traceless Quadrupole moment (field-independent basis, Debye-Ang):
   XX=    -5.6278   YY=    24.9880   ZZ=   -19.3602
   XY=   -27.7848   XZ=     0.0000   YZ=     0.0000
 Octapole moment (field-independent basis, Debye-Ang**2):
  XXX=   -19.4280  YYY=   -71.0836  ZZZ=     0.0000  XYY=     7.1927
  XXY=   141.4056  XXZ=     0.0000  XZZ=    -1.7781  YZZ=     4.2475
  YYZ=     0.0000  XYZ=     0.0000
 Hexadecapole moment (field-independent basis, Debye-Ang**3):
 XXXX= -1510.2582 YYYY= -1251.5293 ZZZZ=   -84.8266 XXXY=   117.3973
 XXXZ=     0.0000 YYYX=  -311.1185 YYYZ=     0.0000 ZZZX=     0.0000
 ZZZY=     0.0000 XXYY=  -278.9608 XXZZ=  -244.0502 YYZZ=  -260.9273
 XXYZ=     0.0000 YYXZ=     0.0000 ZZXY=    22.5150
 N-N= 9.453506978967D+02 E-N=-8.392462734477D+03  KE= 2.742134255218D+03
 Symmetry A'   KE= 2.475777421445D+03
 Symmetry A"   KE= 2.663568337735D+02
 Merz-Kollman atomic radii used.
 Read replacement radii for each type of atom:
 Rad(20) =   1.188000000000D+00
 Atom Element Radius
    1     8    1.40
    2     8    1.40
    3    20    1.19
    4     8    1.40
    5    15    1.80
    6     8    1.40
    7    20    1.19
    8     8    1.40
    9    20    1.19

 **********************************************************************

            Electrostatic Properties Using The SCF Density

 **********************************************************************

       Atomic Center    1 is at   0.000000  1.195700  0.000000
       Atomic Center    2 is at   0.309062  2.719520  0.000000
       Atomic Center    3 is at  -1.930839  2.144883  0.000000
       Atomic Center    4 is at  -2.614452 -0.139497  0.000000
       Atomic Center    5 is at  -1.305923 -0.959958  0.000000
       Atomic Center    6 is at  -1.309914 -2.498928  0.000000
       Atomic Center    7 is at   2.200580  1.118948  0.000000
       Atomic Center    8 is at   2.517917 -1.023773  0.000000
       Atomic Center    9 is at   1.148656 -2.645071  0.000000
     805 points will be used for fitting atomic charges
 Fitting point charges to eletrostatic potential
 Charges from ESP fit, RMS=   0.00633 RRMS=   0.04205:
 Charge=   1.00000 Dipole=    -0.5845     3.7313     0.0000 Tot=     3.7768
              1
     1  O   -0.958003
     2  O   -0.812394
     3  Ca   1.711462
     4  O   -0.587503
     5  P    0.475353
     6  O   -0.616177
     7  Ca   1.757795
     8  O   -1.599712
     9  Ca   1.629179
 -----------------------------------------------------------------

              Electrostatic Properties (Atomic Units)

 -----------------------------------------------------------------
    Center     Electric         -------- Electric Field --------
               Potential          X             Y             Z
 -----------------------------------------------------------------
    1 Atom    -22.237522
    2 Atom    -22.240498
    3 Atom    -80.008666
    4 Atom    -22.204229
    5 Atom    -53.944555
    6 Atom    -22.207204
    7 Atom    -80.085070
    8 Atom    -22.342446
    9 Atom    -80.043154
 -----------------------------------------------------------------
 1\1\GINC-N022\SP\RB3LYP\6-31+G(d,p)\Ca3O5P1(1+)\TIMN\12-Jun-2015\0\\# 
 b3lyp/6-31+G(d,p) int=ultrafine pop=(ReadRadii,MK)\\mol_17.23.12.pdbcc
 c_plusQ.z58213.zip.xyz\\1,1\O,0,0.,1.1957,0.\O,0,0.30906,2.71952,0.\Ca
 ,0,-1.93084,2.14488,0.\O,0,-2.61445,-0.1395,0.\P,0,-1.30592,-0.95996,0
 .\O,0,-1.30991,-2.49893,0.\Ca,0,2.20058,1.11895,0.\O,0,2.51792,-1.0237
 7,0.\Ca,0,1.14866,-2.64507,0.\\Version=EM64T-G03RevE.01\State=1-A'\HF=
 -2750.1335748\RMSD=6.506e-05\Thermal=0.\Dipole=-0.3011504,1.409887,0.\
 PG=CS [SG(Ca3O5P1)]\\@


 TO DETECT ERRORS, THE PROGRAMMER MUST HAVE A CONNIVING MIND,
 ONE THAT DELIGHTS IN UNCOVERING FLAWS WHERE BEAUTY AND
 PERFECTION WERE ONCE THOUGHT TO LIE.

             -- THE PSYCHOLOGY OF COMPUTER PROGRAMMING
                GERALD M. WEINBERG
 Job cpu time:  0 days  0 hours  1 minutes 52.3 seconds.
 File lengths (MBytes):  RWF=     36 Int=      0 D2E=      0 Chk=     11 Scr=      1
 Normal termination of Gaussian 03 at Fri Jun 12 17:51:11 2015.
