 Entering Gaussian System, Link 0=/home/timn/tmp/g03.e01/g03
 Input=mol_17.22.37.pdbcccc_plusQ.z58191.zip.xyz.gjf
 Output=mol_17.22.37.pdbcccc_plusQ.z58191.zip.xyz.out
 Initial command:
 /home/timn/tmp/g03.e01/l1.exe /home/timn/tmp/g03.e01/Gau-12476.inp -scrdir=/home/timn/tmp/g03.e01/
 Default is to use a total of   2 processors:
                                2 via shared-memory
                                1 via Linda
 Entering Link 1 = /home/timn/tmp/g03.e01/l1.exe PID=     12477.
  
 Copyright (c) 1988,1990,1992,1993,1995,1998,2003,2004,2007, Gaussian, Inc.
                  All Rights Reserved.
  
 This is the Gaussian(R) 03 program.  It is based on the
 the Gaussian(R) 98 system (copyright 1998, Gaussian, Inc.),
 the Gaussian(R) 94 system (copyright 1995, Gaussian, Inc.),
 the Gaussian 92(TM) system (copyright 1992, Gaussian, Inc.),
 the Gaussian 90(TM) system (copyright 1990, Gaussian, Inc.),
 the Gaussian 88(TM) system (copyright 1988, Gaussian, Inc.),
 the Gaussian 86(TM) system (copyright 1986, Carnegie Mellon
 University), and the Gaussian 82(TM) system (copyright 1983,
 Carnegie Mellon University). Gaussian is a federally registered
 trademark of Gaussian, Inc.
  
 This software contains proprietary and confidential information,
 including trade secrets, belonging to Gaussian, Inc.
  
 This software is provided under written license and may be
 used, copied, transmitted, or stored only in accord with that
 written license.
  
 The following legend is applicable only to US Government
 contracts under FAR:
  
                    RESTRICTED RIGHTS LEGEND
  
 Use, reproduction and disclosure by the US Government is
 subject to restrictions as set forth in subparagraphs (a)
 and (c) of the Commercial Computer Software - Restricted
 Rights clause in FAR 52.227-19.
  
 Gaussian, Inc.
 340 Quinnipiac St., Bldg. 40, Wallingford CT 06492
  
  
 ---------------------------------------------------------------
 Warning -- This program may not be used in any manner that
 competes with the business of Gaussian, Inc. or will provide
 assistance to any competitor of Gaussian, Inc.  The licensee
 of this program is prohibited from giving any competitor of
 Gaussian, Inc. access to this program.  By using this program,
 the user acknowledges that Gaussian, Inc. is engaged in the
 business of creating and licensing software in the field of
 computational chemistry and represents and warrants to the
 licensee that it is not a competitor of Gaussian, Inc. and that
 it will not use this program in any manner prohibited above.
 ---------------------------------------------------------------
  

 Cite this work as:
 Gaussian 03, Revision E.01,
 M. J. Frisch, G. W. Trucks, H. B. Schlegel, G. E. Scuseria, 
 M. A. Robb, J. R. Cheeseman, J. A. Montgomery, Jr., T. Vreven, 
 K. N. Kudin, J. C. Burant, J. M. Millam, S. S. Iyengar, J. Tomasi, 
 V. Barone, B. Mennucci, M. Cossi, G. Scalmani, N. Rega, 
 G. A. Petersson, H. Nakatsuji, M. Hada, M. Ehara, K. Toyota, 
 R. Fukuda, J. Hasegawa, M. Ishida, T. Nakajima, Y. Honda, O. Kitao, 
 H. Nakai, M. Klene, X. Li, J. E. Knox, H. P. Hratchian, J. B. Cross, 
 V. Bakken, C. Adamo, J. Jaramillo, R. Gomperts, R. E. Stratmann, 
 O. Yazyev, A. J. Austin, R. Cammi, C. Pomelli, J. W. Ochterski, 
 P. Y. Ayala, K. Morokuma, G. A. Voth, P. Salvador, J. J. Dannenberg, 
 V. G. Zakrzewski, S. Dapprich, A. D. Daniels, M. C. Strain, 
 O. Farkas, D. K. Malick, A. D. Rabuck, K. Raghavachari, 
 J. B. Foresman, J. V. Ortiz, Q. Cui, A. G. Baboul, S. Clifford, 
 J. Cioslowski, B. B. Stefanov, G. Liu, A. Liashenko, P. Piskorz, 
 I. Komaromi, R. L. Martin, D. J. Fox, T. Keith, M. A. Al-Laham, 
 C. Y. Peng, A. Nanayakkara, M. Challacombe, P. M. W. Gill, 
 B. Johnson, W. Chen, M. W. Wong, C. Gonzalez, and J. A. Pople, 
 Gaussian, Inc., Wallingford CT, 2004.
 
 ******************************************
 Gaussian 03:  EM64T-G03RevE.01 11-Sep-2007
                12-Jun-2015 
 ******************************************
 %nproc=2
 Will use up to    2 processors via shared memory.
 Default route:  MP2=Direct MaxDisk=2000MB
 ----------------------------------------------------
 # b3lyp/6-31+G(d,p) int=ultrafine pop=(ReadRadii,MK)
 ----------------------------------------------------

 Warning!  SCF SP cutoffs with diffuse functions may be unreliable.
 Consider SCF=Tight

 1/38=1/1;
 2/17=6,18=5,40=1/2;
 3/5=1,6=6,7=111,11=2,16=1,25=1,30=1,74=-5,75=5/1,2,3;
 4//1;
 5/5=2,32=1,38=5/2;
 6/7=2,8=2,9=2,10=2,15=8,20=101,28=1/1,2;
 99/5=1,9=1/99;
 -----------------------------------------
 mol_17.22.37.pdbcccc_plusQ.z58191.zip.xyz
 -----------------------------------------
 Symbolic Z-matrix:
 Charge =  1 Multiplicity = 1
 O                    -1.68164   0.74416  -0.00248 
 P                    -3.06254  -0.01529   0.00145 
 Ca                   -0.33762   2.70853  -0.00067 
 O                    -2.7216   -1.50867   0.0022 
 Ca                   -0.37082  -1.56413  -0.00228 
 O                     1.52547  -0.96555  -1.19746 
 O                     2.02805  -1.71061   0.00147 
 O                     1.52173  -0.964     1.19791 
 Ca                    2.73655   0.62894   0.00121 
 
                          Input orientation:                          
 ---------------------------------------------------------------------
 Center     Atomic     Atomic              Coordinates (Angstroms)
 Number     Number      Type              X           Y           Z
 ---------------------------------------------------------------------
    1          8             0       -1.681640    0.744160   -0.002480
    2         15             0       -3.062540   -0.015290    0.001450
    3         20             0       -0.337620    2.708530   -0.000670
    4          8             0       -2.721600   -1.508670    0.002200
    5         20             0       -0.370820   -1.564130   -0.002280
    6          8             0        1.525470   -0.965550   -1.197460
    7          8             0        2.028050   -1.710610    0.001470
    8          8             0        1.521730   -0.964000    1.197910
    9         20             0        2.736550    0.628940    0.001210
 ---------------------------------------------------------------------
                    Distance matrix (angstroms):
                    1          2          3          4          5
     1  O    0.000000
     2  P    1.575965   0.000000
     3  Ca   2.380156   3.852842   0.000000
     4  O    2.481286   1.531804   4.844393   0.000000
     5  Ca   2.654515   3.105523   4.272789   2.351438   0.000000
     6  O    3.825786   4.836343   4.289787   4.446546   2.320058
     7  O    4.448338   5.365465   5.012504   4.753941   2.403341
     8  O    3.823654   4.831884   4.287336   4.442098   2.319991
     9  Ca   4.419694   5.834765   3.711498   5.861807   3.803330
                    6          7          8          9
     6  O    0.000000
     7  O    1.498377   0.000000
     8  O    2.395373   1.498418   0.000000
     9  Ca   2.333650   2.444477   2.333524   0.000000
 Stoichiometry    Ca3O5P(1+)
 Framework group  C1[X(Ca3O5P)]
 Deg. of freedom    21
 Full point group                 C1
 Largest Abelian subgroup         C1      NOp   1
 Largest concise Abelian subgroup C1      NOp   1
                         Standard orientation:                         
 ---------------------------------------------------------------------
 Center     Atomic     Atomic              Coordinates (Angstroms)
 Number     Number      Type              X           Y           Z
 ---------------------------------------------------------------------
    1          8             0       -1.681641    0.744161   -0.002481
    2         15             0       -3.062542   -0.015287    0.001449
    3         20             0       -0.337619    2.708530   -0.000671
    4          8             0       -2.721603   -1.508668    0.002199
    5         20             0       -0.370823   -1.564130   -0.002281
    6          8             0        1.525467   -0.965552   -1.197461
    7          8             0        2.028047   -1.710613    0.001469
    8          8             0        1.521727   -0.964002    1.197909
    9         20             0        2.736549    0.628936    0.001209
 ---------------------------------------------------------------------
 Rotational constants (GHZ):      0.8797060      0.5322979      0.3528842
 Standard basis: 6-31+G(d,p) (6D, 7F)
 There are   199 symmetry adapted basis functions of A   symmetry.
 Integral buffers will be    131072 words long.
 Raffenetti 2 integral format.
 Two-electron integral symmetry is turned on.
   199 basis functions,   456 primitive gaussians,   199 cartesian basis functions
    57 alpha electrons       57 beta electrons
       nuclear repulsion energy       948.6447007203 Hartrees.
 NAtoms=    9 NActive=    9 NUniq=    9 SFac= 7.50D-01 NAtFMM=   80 NAOKFM=F Big=F
 One-electron integrals computed using PRISM.
 NBasis=   199 RedAO= T  NBF=   199
 NBsUse=   199 1.00D-06 NBFU=   199
 Harris functional with IExCor=  402 diagonalized for initial guess.
 ExpMin= 7.10D-03 ExpMax= 3.53D+04 ExpMxC= 5.30D+03 IAcc=3 IRadAn=         5 AccDes= 0.00D+00
 HarFok:  IExCor= 402 AccDes= 0.00D+00 IRadAn=         5 IDoV=1
 ScaDFX=  1.000000  1.000000  1.000000  1.000000
 Initial guess orbital symmetries:
       Occupied  (A) (A) (A) (A) (A) (A) (A) (A) (A) (A) (A) (A)
                 (A) (A) (A) (A) (A) (A) (A) (A) (A) (A) (A) (A)
                 (A) (A) (A) (A) (A) (A) (A) (A) (A) (A) (A) (A)
                 (A) (A) (A) (A) (A) (A) (A) (A) (A) (A) (A) (A)
                 (A) (A) (A) (A) (A) (A) (A) (A) (A)
       Virtual   (A) (A) (A) (A) (A) (A) (A) (A) (A) (A) (A) (A)
                 (A) (A) (A) (A) (A) (A) (A) (A) (A) (A) (A) (A)
                 (A) (A) (A) (A) (A) (A) (A) (A) (A) (A) (A) (A)
                 (A) (A) (A) (A) (A) (A) (A) (A) (A) (A) (A) (A)
                 (A) (A) (A) (A) (A) (A) (A) (A) (A) (A) (A) (A)
                 (A) (A) (A) (A) (A) (A) (A) (A) (A) (A) (A) (A)
                 (A) (A) (A) (A) (A) (A) (A) (A) (A) (A) (A) (A)
                 (A) (A) (A) (A) (A) (A) (A) (A) (A) (A) (A) (A)
                 (A) (A) (A) (A) (A) (A) (A) (A) (A) (A) (A) (A)
                 (A) (A) (A) (A) (A) (A) (A) (A) (A) (A) (A) (A)
                 (A) (A) (A) (A) (A) (A) (A) (A) (A) (A) (A) (A)
                 (A) (A) (A) (A) (A) (A) (A) (A) (A) (A)
 The electronic state of the initial guess is 1-A.
 Requested convergence on RMS density matrix=1.00D-04 within 128 cycles.
 Requested convergence on MAX density matrix=1.00D-02.
 Requested convergence on             energy=1.00D-02.
 No special actions if energy rises.
 EnCoef did     5 forward-backward iterations
 EnCoef did     2 forward-backward iterations
 EnCoef did   100 forward-backward iterations
 SCF Done:  E(RB+HF-LYP) =  -2750.06735236     A.U. after   10 cycles
             Convg  =    0.5631D-04             -V/T =  2.0029
             S**2   =   0.0000

 **********************************************************************

            Population analysis using the SCF density.

 **********************************************************************

 Orbital symmetries:
       Occupied  (A) (A) (A) (A) (A) (A) (A) (A) (A) (A) (A) (A)
                 (A) (A) (A) (A) (A) (A) (A) (A) (A) (A) (A) (A)
                 (A) (A) (A) (A) (A) (A) (A) (A) (A) (A) (A) (A)
                 (A) (A) (A) (A) (A) (A) (A) (A) (A) (A) (A) (A)
                 (A) (A) (A) (A) (A) (A) (A) (A) (A)
       Virtual   (A) (A) (A) (A) (A) (A) (A) (A) (A) (A) (A) (A)
                 (A) (A) (A) (A) (A) (A) (A) (A) (A) (A) (A) (A)
                 (A) (A) (A) (A) (A) (A) (A) (A) (A) (A) (A) (A)
                 (A) (A) (A) (A) (A) (A) (A) (A) (A) (A) (A) (A)
                 (A) (A) (A) (A) (A) (A) (A) (A) (A) (A) (A) (A)
                 (A) (A) (A) (A) (A) (A) (A) (A) (A) (A) (A) (A)
                 (A) (A) (A) (A) (A) (A) (A) (A) (A) (A) (A) (A)
                 (A) (A) (A) (A) (A) (A) (A) (A) (A) (A) (A) (A)
                 (A) (A) (A) (A) (A) (A) (A) (A) (A) (A) (A) (A)
                 (A) (A) (A) (A) (A) (A) (A) (A) (A) (A) (A) (A)
                 (A) (A) (A) (A) (A) (A) (A) (A) (A) (A) (A) (A)
                 (A) (A) (A) (A) (A) (A) (A) (A) (A) (A)
 The electronic state is 1-A.
 Alpha  occ. eigenvalues -- -145.52965-145.52148-145.51429 -77.31704 -19.37703
 Alpha  occ. eigenvalues --  -19.30324 -19.28973 -19.28184 -19.28173 -15.59929
 Alpha  occ. eigenvalues --  -15.59048 -15.58217 -12.73115 -12.73104 -12.73016
 Alpha  occ. eigenvalues --  -12.72258 -12.72222 -12.72161 -12.71467 -12.71438
 Alpha  occ. eigenvalues --  -12.71307  -6.77324  -4.93757  -4.93529  -4.93104
 Alpha  occ. eigenvalues --   -1.96995  -1.96162  -1.95365  -1.26997  -1.24434
 Alpha  occ. eigenvalues --   -1.24424  -1.24133  -1.23607  -1.23536  -1.23282
 Alpha  occ. eigenvalues --   -1.22981  -1.22959  -1.19320  -1.15641  -1.09974
 Alpha  occ. eigenvalues --   -1.03961  -0.88894  -0.68952  -0.57984  -0.57961
 Alpha  occ. eigenvalues --   -0.56509  -0.55907  -0.55288  -0.54399  -0.46932
 Alpha  occ. eigenvalues --   -0.45818  -0.44313  -0.43171  -0.41882  -0.39637
 Alpha  occ. eigenvalues --   -0.36828  -0.28245
 Alpha virt. eigenvalues --   -0.21638  -0.20057  -0.16054  -0.15692  -0.15058
 Alpha virt. eigenvalues --   -0.13955  -0.12845  -0.11419  -0.10396  -0.09817
 Alpha virt. eigenvalues --   -0.09404  -0.08262  -0.07779  -0.07663  -0.06889
 Alpha virt. eigenvalues --   -0.05981  -0.05790  -0.05443  -0.05322  -0.05018
 Alpha virt. eigenvalues --   -0.04583  -0.04496  -0.04101  -0.04012  -0.03679
 Alpha virt. eigenvalues --   -0.03253  -0.03176  -0.03167  -0.02748  -0.02156
 Alpha virt. eigenvalues --   -0.01786  -0.00139   0.00314   0.01591   0.02314
 Alpha virt. eigenvalues --    0.03250   0.03577   0.03785   0.03987   0.04236
 Alpha virt. eigenvalues --    0.04929   0.05746   0.06039   0.06414   0.07063
 Alpha virt. eigenvalues --    0.07280   0.07614   0.08086   0.08357   0.09226
 Alpha virt. eigenvalues --    0.09468   0.09626   0.10550   0.11576   0.12776
 Alpha virt. eigenvalues --    0.14431   0.14491   0.15791   0.16826   0.17432
 Alpha virt. eigenvalues --    0.17605   0.18494   0.20035   0.20739   0.22208
 Alpha virt. eigenvalues --    0.22632   0.23426   0.24796   0.25865   0.28144
 Alpha virt. eigenvalues --    0.29998   0.31066   0.31258   0.33197   0.34489
 Alpha virt. eigenvalues --    0.35387   0.35902   0.39331   0.43447   0.46408
 Alpha virt. eigenvalues --    0.46745   0.48550   0.53915   0.56135   0.56739
 Alpha virt. eigenvalues --    0.64265   0.68231   0.79725   0.88725   0.93681
 Alpha virt. eigenvalues --    0.95493   1.03063   1.06006   1.07952   1.08176
 Alpha virt. eigenvalues --    1.09992   1.11657   1.12619   1.13027   1.13361
 Alpha virt. eigenvalues --    1.16186   1.19681   1.20434   1.23350   1.25577
 Alpha virt. eigenvalues --    1.31265   1.36294   1.37681   1.42758   1.46382
 Alpha virt. eigenvalues --    1.50346   1.59618   1.61031   1.63667   1.66702
 Alpha virt. eigenvalues --    1.67036   1.71938   1.73233   1.74975   1.75572
 Alpha virt. eigenvalues --    1.80486   1.82172   1.82914   1.85614   1.86620
 Alpha virt. eigenvalues --    1.88643   1.90128   1.99999   2.03823   2.20462
 Alpha virt. eigenvalues --    2.20829   2.41826   2.50380   2.67919   3.02864
 Alpha virt. eigenvalues --    3.05412   3.38341   3.83930   3.90227   4.03978
 Alpha virt. eigenvalues --    4.06339   4.24380
          Condensed to atoms (all electrons):
              1          2          3          4          5          6
     1  O    8.991441  -0.119911  -0.077824  -0.059766   0.011344   0.004849
     2  P   -0.119911  14.372456  -0.047630   0.130935  -0.044107  -0.005580
     3  Ca  -0.077824  -0.047630  19.213057   0.007178   0.041514  -0.022999
     4  O   -0.059766   0.130935   0.007178   8.469448   0.081584   0.000778
     5  Ca   0.011344  -0.044107   0.041514   0.081584  18.289832   0.096036
     6  O    0.004849  -0.005580  -0.022999   0.000778   0.096036   8.420154
     7  O   -0.001100   0.006937  -0.005490  -0.001682   0.032841   0.053725
     8  O    0.004876  -0.005599  -0.023115   0.000784   0.095935   0.005552
     9  Ca  -0.026293   0.018171   0.321562  -0.007103   0.000876   0.036520
              7          8          9
     1  O   -0.001100   0.004876  -0.026293
     2  P    0.006937  -0.005599   0.018171
     3  Ca  -0.005490  -0.023115   0.321562
     4  O   -0.001682   0.000784  -0.007103
     5  Ca   0.032841   0.095935   0.000876
     6  O    0.053725   0.005552   0.036520
     7  O    7.901881   0.053791   0.017945
     8  O    0.053791   8.420091   0.036485
     9  Ca   0.017945   0.036485  18.697607
 Mulliken atomic charges:
              1
     1  O   -0.727615
     2  P    0.694329
     3  Ca   0.593748
     4  O   -0.622157
     5  Ca   1.394147
     6  O   -0.589034
     7  O   -0.058850
     8  O   -0.588798
     9  Ca   0.904229
 Sum of Mulliken charges=   1.00000
 Atomic charges with hydrogens summed into heavy atoms:
              1
     1  O   -0.727615
     2  P    0.694329
     3  Ca   0.593748
     4  O   -0.622157
     5  Ca   1.394147
     6  O   -0.589034
     7  O   -0.058850
     8  O   -0.588798
     9  Ca   0.904229
 Sum of Mulliken charges=   1.00000
 Electronic spatial extent (au):  <R**2>=  2779.2617
 Charge=     1.0000 electrons
 Dipole moment (field-independent basis, Debye):
    X=     1.8850    Y=     4.4729    Z=    -0.0089  Tot=     4.8539
 Quadrupole moment (field-independent basis, Debye-Ang):
   XX=   -56.9153   YY=   -61.9765   ZZ=   -89.5450
   XY=     1.5893   XZ=     0.0413   YZ=     0.0336
 Traceless Quadrupole moment (field-independent basis, Debye-Ang):
   XX=    12.5636   YY=     7.5024   ZZ=   -20.0661
   XY=     1.5893   XZ=     0.0413   YZ=     0.0336
 Octapole moment (field-independent basis, Debye-Ang**2):
  XXX=   117.8567  YYY=   -14.9457  ZZZ=    -0.0331  XYY=   -33.9365
  XXY=    35.1222  XXZ=     0.0774  XZZ=   -15.8033  YZZ=    -9.8801
  YYZ=    -0.0889  XYZ=    -0.0488
 Hexadecapole moment (field-independent basis, Debye-Ang**3):
 XXXX= -1645.2314 YYYY= -1173.8055 ZZZZ=  -252.9580 XXXY=     9.4831
 XXXZ=     0.4621 YYYX=  -122.9115 YYYZ=     0.0681 ZZZX=     0.0775
 ZZZY=     0.0570 XXYY=  -648.7118 XXZZ=  -386.4672 YYZZ=  -278.7886
 XXYZ=     0.0791 YYXZ=     0.1224 ZZXY=     3.3752
 N-N= 9.486447007203D+02 E-N=-8.393637759460D+03  KE= 2.742212447913D+03
 Merz-Kollman atomic radii used.
 Read replacement radii for each type of atom:
 Rad(20) =   1.188000000000D+00
 Atom Element Radius
    1     8    1.40
    2    15    1.80
    3    20    1.19
    4     8    1.40
    5    20    1.19
    6     8    1.40
    7     8    1.40
    8     8    1.40
    9    20    1.19

 **********************************************************************

            Electrostatic Properties Using The SCF Density

 **********************************************************************

       Atomic Center    1 is at  -1.681641  0.744161 -0.002481
       Atomic Center    2 is at  -3.062542 -0.015287  0.001449
       Atomic Center    3 is at  -0.337619  2.708530 -0.000671
       Atomic Center    4 is at  -2.721603 -1.508668  0.002199
       Atomic Center    5 is at  -0.370823 -1.564130 -0.002281
       Atomic Center    6 is at   1.525467 -0.965552 -1.197461
       Atomic Center    7 is at   2.028047 -1.710613  0.001469
       Atomic Center    8 is at   1.521727 -0.964002  1.197909
       Atomic Center    9 is at   2.736549  0.628936  0.001209
     891 points will be used for fitting atomic charges
 Fitting point charges to eletrostatic potential
 Charges from ESP fit, RMS=   0.02432 RRMS=   0.15969:
 Charge=   1.00000 Dipole=     2.8646     6.8327    -0.0140 Tot=     7.4089
              1
     1  O   -0.282622
     2  P    0.371781
     3  Ca   0.493447
     4  O   -0.566856
     5  Ca   1.538747
     6  O   -0.893088
     7  O    0.275525
     8  O   -0.893287
     9  Ca   0.956353
 -----------------------------------------------------------------

              Electrostatic Properties (Atomic Units)

 -----------------------------------------------------------------
    Center     Electric         -------- Electric Field --------
               Potential          X             Y             Z
 -----------------------------------------------------------------
    1 Atom    -22.167513
    2 Atom    -53.901143
    3 Atom    -80.016879
    4 Atom    -22.174025
    5 Atom    -80.027091
    6 Atom    -22.189557
    7 Atom    -22.102980
    8 Atom    -22.189313
    9 Atom    -80.018233
 -----------------------------------------------------------------
 1\1\GINC-N033\SP\RB3LYP\6-31+G(d,p)\Ca3O5P1(1+)\TIMN\12-Jun-2015\0\\# 
 b3lyp/6-31+G(d,p) int=ultrafine pop=(ReadRadii,MK)\\mol_17.22.37.pdbcc
 cc_plusQ.z58191.zip.xyz\\1,1\O,0,-1.68164,0.74416,-0.00248\P,0,-3.0625
 4,-0.01529,0.00145\Ca,0,-0.33762,2.70853,-0.00067\O,0,-2.7216,-1.50867
 ,0.0022\Ca,0,-0.37082,-1.56413,-0.00228\O,0,1.52547,-0.96555,-1.19746\
 O,0,2.02805,-1.71061,0.00147\O,0,1.52173,-0.964,1.19791\Ca,0,2.73655,0
 .62894,0.00121\\Version=EM64T-G03RevE.01\State=1-A\HF=-2750.0673524\RM
 SD=5.631e-05\Thermal=0.\Dipole=0.7416243,1.7597866,-0.0034988\PG=C01 [
 X(Ca3O5P1)]\\@


 In the beginning there was nothing, which exploded.
 Job cpu time:  0 days  0 hours  2 minutes 20.0 seconds.
 File lengths (MBytes):  RWF=     36 Int=      0 D2E=      0 Chk=     11 Scr=      1
 Normal termination of Gaussian 03 at Fri Jun 12 17:50:51 2015.
