 Entering Gaussian System, Link 0=/home/timn/tmp/g03.e01/g03
 Input=mol_17.25.42.pdbc_plusQ.z58347.zip.xyz.gjf
 Output=mol_17.25.42.pdbc_plusQ.z58347.zip.xyz.out
 Initial command:
 /home/timn/tmp/g03.e01/l1.exe /home/timn/tmp/g03.e01/Gau-14885.inp -scrdir=/home/timn/tmp/g03.e01/
 Default is to use a total of   2 processors:
                                2 via shared-memory
                                1 via Linda
 Entering Link 1 = /home/timn/tmp/g03.e01/l1.exe PID=     14886.
  
 Copyright (c) 1988,1990,1992,1993,1995,1998,2003,2004,2007, Gaussian, Inc.
                  All Rights Reserved.
  
 This is the Gaussian(R) 03 program.  It is based on the
 the Gaussian(R) 98 system (copyright 1998, Gaussian, Inc.),
 the Gaussian(R) 94 system (copyright 1995, Gaussian, Inc.),
 the Gaussian 92(TM) system (copyright 1992, Gaussian, Inc.),
 the Gaussian 90(TM) system (copyright 1990, Gaussian, Inc.),
 the Gaussian 88(TM) system (copyright 1988, Gaussian, Inc.),
 the Gaussian 86(TM) system (copyright 1986, Carnegie Mellon
 University), and the Gaussian 82(TM) system (copyright 1983,
 Carnegie Mellon University). Gaussian is a federally registered
 trademark of Gaussian, Inc.
  
 This software contains proprietary and confidential information,
 including trade secrets, belonging to Gaussian, Inc.
  
 This software is provided under written license and may be
 used, copied, transmitted, or stored only in accord with that
 written license.
  
 The following legend is applicable only to US Government
 contracts under FAR:
  
                    RESTRICTED RIGHTS LEGEND
  
 Use, reproduction and disclosure by the US Government is
 subject to restrictions as set forth in subparagraphs (a)
 and (c) of the Commercial Computer Software - Restricted
 Rights clause in FAR 52.227-19.
  
 Gaussian, Inc.
 340 Quinnipiac St., Bldg. 40, Wallingford CT 06492
  
  
 ---------------------------------------------------------------
 Warning -- This program may not be used in any manner that
 competes with the business of Gaussian, Inc. or will provide
 assistance to any competitor of Gaussian, Inc.  The licensee
 of this program is prohibited from giving any competitor of
 Gaussian, Inc. access to this program.  By using this program,
 the user acknowledges that Gaussian, Inc. is engaged in the
 business of creating and licensing software in the field of
 computational chemistry and represents and warrants to the
 licensee that it is not a competitor of Gaussian, Inc. and that
 it will not use this program in any manner prohibited above.
 ---------------------------------------------------------------
  

 Cite this work as:
 Gaussian 03, Revision E.01,
 M. J. Frisch, G. W. Trucks, H. B. Schlegel, G. E. Scuseria, 
 M. A. Robb, J. R. Cheeseman, J. A. Montgomery, Jr., T. Vreven, 
 K. N. Kudin, J. C. Burant, J. M. Millam, S. S. Iyengar, J. Tomasi, 
 V. Barone, B. Mennucci, M. Cossi, G. Scalmani, N. Rega, 
 G. A. Petersson, H. Nakatsuji, M. Hada, M. Ehara, K. Toyota, 
 R. Fukuda, J. Hasegawa, M. Ishida, T. Nakajima, Y. Honda, O. Kitao, 
 H. Nakai, M. Klene, X. Li, J. E. Knox, H. P. Hratchian, J. B. Cross, 
 V. Bakken, C. Adamo, J. Jaramillo, R. Gomperts, R. E. Stratmann, 
 O. Yazyev, A. J. Austin, R. Cammi, C. Pomelli, J. W. Ochterski, 
 P. Y. Ayala, K. Morokuma, G. A. Voth, P. Salvador, J. J. Dannenberg, 
 V. G. Zakrzewski, S. Dapprich, A. D. Daniels, M. C. Strain, 
 O. Farkas, D. K. Malick, A. D. Rabuck, K. Raghavachari, 
 J. B. Foresman, J. V. Ortiz, Q. Cui, A. G. Baboul, S. Clifford, 
 J. Cioslowski, B. B. Stefanov, G. Liu, A. Liashenko, P. Piskorz, 
 I. Komaromi, R. L. Martin, D. J. Fox, T. Keith, M. A. Al-Laham, 
 C. Y. Peng, A. Nanayakkara, M. Challacombe, P. M. W. Gill, 
 B. Johnson, W. Chen, M. W. Wong, C. Gonzalez, and J. A. Pople, 
 Gaussian, Inc., Wallingford CT, 2004.
 
 ******************************************
 Gaussian 03:  EM64T-G03RevE.01 11-Sep-2007
                12-Jun-2015 
 ******************************************
 %nproc=2
 Will use up to    2 processors via shared memory.
 Default route:  MP2=Direct MaxDisk=2000MB
 ----------------------------------------------------
 # b3lyp/6-31+G(d,p) int=ultrafine pop=(ReadRadii,MK)
 ----------------------------------------------------

 Warning!  SCF SP cutoffs with diffuse functions may be unreliable.
 Consider SCF=Tight

 1/38=1/1;
 2/17=6,18=5,40=1/2;
 3/5=1,6=6,7=111,11=2,16=1,25=1,30=1,74=-5,75=5/1,2,3;
 4//1;
 5/5=2,32=1,38=5/2;
 6/7=2,8=2,9=2,10=2,15=8,20=101,28=1/1,2;
 99/5=1,9=1/99;
 --------------------------------------
 mol_17.25.42.pdbc_plusQ.z58347.zip.xyz
 --------------------------------------
 Symbolic Z-matrix:
 Charge =  1 Multiplicity = 1
 O                     1.23688   1.2865   -0.43794 
 O                    -0.59164   0.00496  -1.65601 
 O                    -0.60679  -0.00631   1.52085 
 O                    -2.06747  -0.00269   1.10565 
 Ca                   -1.05431  -1.67128  -0.14231 
 O                     1.23733  -1.28366  -0.44574 
 P                     1.06398   0.00478  -1.53141 
 Ca                   -1.05458   1.67205  -0.13287 
 Ca                    1.62759  -0.00387   1.38902 
 
                          Input orientation:                          
 ---------------------------------------------------------------------
 Center     Atomic     Atomic              Coordinates (Angstroms)
 Number     Number      Type              X           Y           Z
 ---------------------------------------------------------------------
    1          8             0        1.236880    1.286500   -0.437940
    2          8             0       -0.591640    0.004960   -1.656010
    3          8             0       -0.606790   -0.006310    1.520850
    4          8             0       -2.067470   -0.002690    1.105650
    5         20             0       -1.054310   -1.671280   -0.142310
    6          8             0        1.237330   -1.283660   -0.445740
    7         15             0        1.063980    0.004780   -1.531410
    8         20             0       -1.054580    1.672050   -0.132870
    9         20             0        1.627590   -0.003870    1.389020
 ---------------------------------------------------------------------
                    Distance matrix (angstroms):
                    1          2          3          4          5
     1  O    0.000000
     2  O    2.543526   0.000000
     3  O    2.984516   3.176916   0.000000
     4  O    3.868257   3.131277   1.518549   0.000000
     5  Ca   3.753054   2.305457   2.395517   2.316914   0.000000
     6  O    2.570172   2.543703   2.983266   3.869031   2.343914
     7  P    1.693628   1.660302   3.479639   4.093913   3.037421
     8  Ca   2.343609   2.305094   2.398374   2.316168   3.343343
     9  Ca   2.270571   3.767926   2.238267   3.705910   3.509675
                    6          7          8          9
     6  O    0.000000
     7  P    1.693755   0.000000
     8  Ca   3.753260   3.037104   0.000000
     9  Ca   2.270795   2.974331   3.509828   0.000000
 Stoichiometry    Ca3O5P(1+)
 Framework group  C1[X(Ca3O5P)]
 Deg. of freedom    21
 Full point group                 C1
 Largest Abelian subgroup         C1      NOp   1
 Largest concise Abelian subgroup C1      NOp   1
                         Standard orientation:                         
 ---------------------------------------------------------------------
 Center     Atomic     Atomic              Coordinates (Angstroms)
 Number     Number      Type              X           Y           Z
 ---------------------------------------------------------------------
    1          8             0        1.236884    1.286494   -0.437941
    2          8             0       -0.591642    0.004962   -1.656011
    3          8             0       -0.606792   -0.006308    1.520849
    4          8             0       -2.067472   -0.002682    1.105649
    5         20             0       -1.054319   -1.671276   -0.142311
    6          8             0        1.237323   -1.283666   -0.445741
    7         15             0        1.063978    0.004775   -1.531411
    8         20             0       -1.054574    1.672054   -0.132871
    9         20             0        1.627588   -0.003878    1.389019
 ---------------------------------------------------------------------
 Rotational constants (GHZ):      0.9462986      0.8197431      0.7961115
 Standard basis: 6-31+G(d,p) (6D, 7F)
 There are   199 symmetry adapted basis functions of A   symmetry.
 Integral buffers will be    131072 words long.
 Raffenetti 2 integral format.
 Two-electron integral symmetry is turned on.
   199 basis functions,   456 primitive gaussians,   199 cartesian basis functions
    57 alpha electrons       57 beta electrons
       nuclear repulsion energy      1104.9190977770 Hartrees.
 NAtoms=    9 NActive=    9 NUniq=    9 SFac= 7.50D-01 NAtFMM=   80 NAOKFM=F Big=F
 One-electron integrals computed using PRISM.
 NBasis=   199 RedAO= T  NBF=   199
 NBsUse=   199 1.00D-06 NBFU=   199
 Harris functional with IExCor=  402 diagonalized for initial guess.
 ExpMin= 7.10D-03 ExpMax= 3.53D+04 ExpMxC= 5.30D+03 IAcc=3 IRadAn=         5 AccDes= 0.00D+00
 HarFok:  IExCor= 402 AccDes= 0.00D+00 IRadAn=         5 IDoV=1
 ScaDFX=  1.000000  1.000000  1.000000  1.000000
 Initial guess orbital symmetries:
       Occupied  (A) (A) (A) (A) (A) (A) (A) (A) (A) (A) (A) (A)
                 (A) (A) (A) (A) (A) (A) (A) (A) (A) (A) (A) (A)
                 (A) (A) (A) (A) (A) (A) (A) (A) (A) (A) (A) (A)
                 (A) (A) (A) (A) (A) (A) (A) (A) (A) (A) (A) (A)
                 (A) (A) (A) (A) (A) (A) (A) (A) (A)
       Virtual   (A) (A) (A) (A) (A) (A) (A) (A) (A) (A) (A) (A)
                 (A) (A) (A) (A) (A) (A) (A) (A) (A) (A) (A) (A)
                 (A) (A) (A) (A) (A) (A) (A) (A) (A) (A) (A) (A)
                 (A) (A) (A) (A) (A) (A) (A) (A) (A) (A) (A) (A)
                 (A) (A) (A) (A) (A) (A) (A) (A) (A) (A) (A) (A)
                 (A) (A) (A) (A) (A) (A) (A) (A) (A) (A) (A) (A)
                 (A) (A) (A) (A) (A) (A) (A) (A) (A) (A) (A) (A)
                 (A) (A) (A) (A) (A) (A) (A) (A) (A) (A) (A) (A)
                 (A) (A) (A) (A) (A) (A) (A) (A) (A) (A) (A) (A)
                 (A) (A) (A) (A) (A) (A) (A) (A) (A) (A) (A) (A)
                 (A) (A) (A) (A) (A) (A) (A) (A) (A) (A) (A) (A)
                 (A) (A) (A) (A) (A) (A) (A) (A) (A) (A)
 The electronic state of the initial guess is 1-A.
 Requested convergence on RMS density matrix=1.00D-04 within 128 cycles.
 Requested convergence on MAX density matrix=1.00D-02.
 Requested convergence on             energy=1.00D-02.
 No special actions if energy rises.
 SCF Done:  E(RB+HF-LYP) =  -2750.24881773     A.U. after    7 cycles
             Convg  =    0.5380D-04             -V/T =  2.0029
             S**2   =   0.0000

 **********************************************************************

            Population analysis using the SCF density.

 **********************************************************************

 Orbital symmetries:
       Occupied  (A) (A) (A) (A) (A) (A) (A) (A) (A) (A) (A) (A)
                 (A) (A) (A) (A) (A) (A) (A) (A) (A) (A) (A) (A)
                 (A) (A) (A) (A) (A) (A) (A) (A) (A) (A) (A) (A)
                 (A) (A) (A) (A) (A) (A) (A) (A) (A) (A) (A) (A)
                 (A) (A) (A) (A) (A) (A) (A) (A) (A)
       Virtual   (A) (A) (A) (A) (A) (A) (A) (A) (A) (A) (A) (A)
                 (A) (A) (A) (A) (A) (A) (A) (A) (A) (A) (A) (A)
                 (A) (A) (A) (A) (A) (A) (A) (A) (A) (A) (A) (A)
                 (A) (A) (A) (A) (A) (A) (A) (A) (A) (A) (A) (A)
                 (A) (A) (A) (A) (A) (A) (A) (A) (A) (A) (A) (A)
                 (A) (A) (A) (A) (A) (A) (A) (A) (A) (A) (A) (A)
                 (A) (A) (A) (A) (A) (A) (A) (A) (A) (A) (A) (A)
                 (A) (A) (A) (A) (A) (A) (A) (A) (A) (A) (A) (A)
                 (A) (A) (A) (A) (A) (A) (A) (A) (A) (A) (A) (A)
                 (A) (A) (A) (A) (A) (A) (A) (A) (A) (A) (A) (A)
                 (A) (A) (A) (A) (A) (A) (A) (A) (A) (A) (A) (A)
                 (A) (A) (A) (A) (A) (A) (A) (A) (A) (A)
 The electronic state is 1-A.
 Alpha  occ. eigenvalues -- -145.52389-145.50177-145.50169 -77.25154 -19.25910
 Alpha  occ. eigenvalues --  -19.25459 -19.21784 -19.21784 -19.21333 -15.59147
 Alpha  occ. eigenvalues --  -15.56976 -15.56968 -12.72336 -12.72331 -12.72305
 Alpha  occ. eigenvalues --  -12.70184 -12.70177 -12.70176 -12.70169 -12.70096
 Alpha  occ. eigenvalues --  -12.70090  -6.70242  -4.86596  -4.86587  -4.86027
 Alpha  occ. eigenvalues --   -1.96325  -1.94226  -1.94160  -1.24348  -1.23880
 Alpha  occ. eigenvalues --   -1.23783  -1.22780  -1.22073  -1.21713  -1.21638
 Alpha  occ. eigenvalues --   -1.21518  -1.21220  -1.10031  -1.07324  -1.00850
 Alpha  occ. eigenvalues --   -1.00732  -0.89076  -0.63092  -0.51345  -0.51077
 Alpha  occ. eigenvalues --   -0.50976  -0.49233  -0.48450  -0.46043  -0.43790
 Alpha  occ. eigenvalues --   -0.43556  -0.38833  -0.38640  -0.38610  -0.35299
 Alpha  occ. eigenvalues --   -0.33989  -0.31697
 Alpha virt. eigenvalues --   -0.20303  -0.18387  -0.17630  -0.12784  -0.12601
 Alpha virt. eigenvalues --   -0.10906  -0.09917  -0.09096  -0.08254  -0.07950
 Alpha virt. eigenvalues --   -0.07348  -0.06562  -0.06018  -0.05818  -0.04925
 Alpha virt. eigenvalues --   -0.04867  -0.04857  -0.04686  -0.04486  -0.04309
 Alpha virt. eigenvalues --   -0.04013  -0.03910  -0.03218  -0.02973  -0.02947
 Alpha virt. eigenvalues --   -0.02710  -0.01827  -0.00967   0.00846   0.01988
 Alpha virt. eigenvalues --    0.02247   0.03416   0.04333   0.04544   0.04864
 Alpha virt. eigenvalues --    0.05218   0.05243   0.06161   0.06289   0.07054
 Alpha virt. eigenvalues --    0.07073   0.07100   0.07503   0.07557   0.07796
 Alpha virt. eigenvalues --    0.08499   0.09373   0.10328   0.11208   0.11843
 Alpha virt. eigenvalues --    0.12320   0.14919   0.14940   0.16118   0.17400
 Alpha virt. eigenvalues --    0.18783   0.20650   0.21083   0.21102   0.23269
 Alpha virt. eigenvalues --    0.23558   0.23711   0.24623   0.25785   0.27294
 Alpha virt. eigenvalues --    0.27992   0.29797   0.31570   0.33557   0.33936
 Alpha virt. eigenvalues --    0.34434   0.36044   0.36690   0.38778   0.39286
 Alpha virt. eigenvalues --    0.41198   0.45562   0.46023   0.53540   0.54406
 Alpha virt. eigenvalues --    0.55430   0.62687   0.63183   0.63526   0.66212
 Alpha virt. eigenvalues --    0.81583   0.85426   0.90490   0.93115   0.99261
 Alpha virt. eigenvalues --    1.11615   1.11897   1.15493   1.16021   1.17642
 Alpha virt. eigenvalues --    1.18030   1.19916   1.19984   1.20451   1.22324
 Alpha virt. eigenvalues --    1.22914   1.27527   1.31255   1.33943   1.38919
 Alpha virt. eigenvalues --    1.45504   1.46495   1.49237   1.56976   1.58140
 Alpha virt. eigenvalues --    1.60028   1.64341   1.68056   1.71386   1.73209
 Alpha virt. eigenvalues --    1.76858   1.78167   1.78951   1.81323   1.84887
 Alpha virt. eigenvalues --    1.86385   1.87073   1.89511   1.90271   1.91255
 Alpha virt. eigenvalues --    1.92844   1.93665   1.99389   2.00494   2.11357
 Alpha virt. eigenvalues --    2.21665   2.24630   2.36586   2.52358   2.56747
 Alpha virt. eigenvalues --    3.07049   3.54035   4.03193   4.09920   4.14250
 Alpha virt. eigenvalues --    4.19216   4.32906
          Condensed to atoms (all electrons):
              1          2          3          4          5          6
     1  O    8.964867   0.050189   0.029637  -0.006632   0.004982   0.043441
     2  O    0.050189   8.936179   0.022413   0.002003   0.065821   0.050098
     3  O    0.029637   0.022413   8.605087  -0.101430   0.038245   0.029717
     4  O   -0.006632   0.002003  -0.101430   8.578233   0.104046  -0.006658
     5  Ca   0.004982   0.065821   0.038245   0.104046  18.339489   0.060418
     6  O    0.043441   0.050098   0.029717  -0.006658   0.060418   8.964547
     7  P   -0.178001  -0.171559  -0.024758   0.003419   0.017272  -0.177640
     8  Ca   0.060530   0.065918   0.037977   0.104132  -0.047931   0.004991
     9  Ca   0.074713   0.013805   0.088510  -0.033191  -0.045016   0.074735
              7          8          9
     1  O   -0.178001   0.060530   0.074713
     2  O   -0.171559   0.065918   0.013805
     3  O   -0.024758   0.037977   0.088510
     4  O    0.003419   0.104132  -0.033191
     5  Ca   0.017272  -0.047931  -0.045016
     6  O   -0.177640   0.004991   0.074735
     7  P   14.404389   0.017372   0.026370
     8  Ca   0.017372  18.339480  -0.045052
     9  Ca   0.026370  -0.045052  18.361955
 Mulliken atomic charges:
              1
     1  O   -1.043726
     2  O   -1.034866
     3  O   -0.725399
     4  O   -0.643921
     5  Ca   1.462673
     6  O   -1.043649
     7  P    1.083135
     8  Ca   1.462582
     9  Ca   1.483170
 Sum of Mulliken charges=   1.00000
 Atomic charges with hydrogens summed into heavy atoms:
              1
     1  O   -1.043726
     2  O   -1.034866
     3  O   -0.725399
     4  O   -0.643921
     5  Ca   1.462673
     6  O   -1.043649
     7  P    1.083135
     8  Ca   1.462582
     9  Ca   1.483170
 Sum of Mulliken charges=   1.00000
 Electronic spatial extent (au):  <R**2>=  1729.0126
 Charge=     1.0000 electrons
 Dipole moment (field-independent basis, Debye):
    X=    -0.9332    Y=    -0.0131    Z=     6.2085  Tot=     6.2783
 Quadrupole moment (field-independent basis, Debye-Ang):
   XX=   -63.6682   YY=   -44.2248   ZZ=   -80.5644
   XY=    -0.0819   XZ=    28.3144   YZ=     0.1113
 Traceless Quadrupole moment (field-independent basis, Debye-Ang):
   XX=    -0.8491   YY=    18.5943   ZZ=   -17.7453
   XY=    -0.0819   XZ=    28.3144   YZ=     0.1113
 Octapole moment (field-independent basis, Debye-Ang**2):
  XXX=    20.2364  YYY=    -0.0500  ZZZ=    45.1980  XYY=   -73.7892
  XXY=    -0.0695  XXZ=    28.2210  XZZ=    39.2475  YZZ=    -0.0844
  YYZ=     4.9371  XYZ=    -0.3246
 Hexadecapole moment (field-independent basis, Debye-Ang**3):
 XXXX=  -745.4985 YYYY=  -401.3952 ZZZZ=  -674.2412 XXXY=    -0.4530
 XXXZ=   157.8450 YYYX=    -0.3150 YYYZ=     0.5439 ZZZX=   109.8174
 ZZZY=     0.4156 XXYY=  -182.3439 XXZZ=  -218.9698 YYZZ=  -189.7231
 XXYZ=     0.1148 YYXZ=    34.9568 ZZXY=    -0.1186
 N-N= 1.104919097777D+03 E-N=-8.710495573944D+03  KE= 2.742231312339D+03
 Merz-Kollman atomic radii used.
 Read replacement radii for each type of atom:
 Rad(20) =   1.188000000000D+00
 Atom Element Radius
    1     8    1.40
    2     8    1.40
    3     8    1.40
    4     8    1.40
    5    20    1.19
    6     8    1.40
    7    15    1.80
    8    20    1.19
    9    20    1.19

 **********************************************************************

            Electrostatic Properties Using The SCF Density

 **********************************************************************

       Atomic Center    1 is at   1.236884  1.286494 -0.437941
       Atomic Center    2 is at  -0.591642  0.004962 -1.656011
       Atomic Center    3 is at  -0.606792 -0.006308  1.520849
       Atomic Center    4 is at  -2.067472 -0.002682  1.105649
       Atomic Center    5 is at  -1.054319 -1.671276 -0.142311
       Atomic Center    6 is at   1.237323 -1.283666 -0.445741
       Atomic Center    7 is at   1.063978  0.004775 -1.531411
       Atomic Center    8 is at  -1.054574  1.672054 -0.132871
       Atomic Center    9 is at   1.627588 -0.003878  1.389019
     736 points will be used for fitting atomic charges
 Fitting point charges to eletrostatic potential
 Charges from ESP fit, RMS=   0.00664 RRMS=   0.04144:
 Charge=   1.00000 Dipole=    -0.7850    -0.0129     6.0510 Tot=     6.1017
              1
     1  O   -0.990073
     2  O   -0.945438
     3  O   -0.930684
     4  O   -0.690094
     5  Ca   1.675005
     6  O   -0.989917
     7  P    0.545161
     8  Ca   1.674877
     9  Ca   1.651163
 -----------------------------------------------------------------

              Electrostatic Properties (Atomic Units)

 -----------------------------------------------------------------
    Center     Electric         -------- Electric Field --------
               Potential          X             Y             Z
 -----------------------------------------------------------------
    1 Atom    -22.248424
    2 Atom    -22.248765
    3 Atom    -22.204678
    4 Atom    -22.216067
    5 Atom    -80.039087
    6 Atom    -22.248628
    7 Atom    -53.962543
    8 Atom    -80.039011
    9 Atom    -80.016237
 -----------------------------------------------------------------
 1\1\GINC-N030\SP\RB3LYP\6-31+G(d,p)\Ca3O5P1(1+)\TIMN\12-Jun-2015\0\\# 
 b3lyp/6-31+G(d,p) int=ultrafine pop=(ReadRadii,MK)\\mol_17.25.42.pdbc_
 plusQ.z58347.zip.xyz\\1,1\O,0,1.23688,1.2865,-0.43794\O,0,-0.59164,0.0
 0496,-1.65601\O,0,-0.60679,-0.00631,1.52085\O,0,-2.06747,-0.00269,1.10
 565\Ca,0,-1.05431,-1.67128,-0.14231\O,0,1.23733,-1.28366,-0.44574\P,0,
 1.06398,0.00478,-1.53141\Ca,0,-1.05458,1.67205,-0.13287\Ca,0,1.62759,-
 0.00387,1.38902\\Version=EM64T-G03RevE.01\State=1-A\HF=-2750.2488177\R
 MSD=5.380e-05\Thermal=0.\Dipole=-0.3671642,-0.0051738,2.4426178\PG=C01
  [X(Ca3O5P1)]\\@


 ALL OUR THINKING ABOUT NATURE MUST NECESSARILY MOVE IN CIRCLES OR SPIRALS;
 FOR WE CAN ONLY UNDERSTAND NATURE IF WE THINK ABOUT HER, AND WE CAN ONLY
 THINK BECAUSE OUR BRAIN IS BUILT IN ACCORDANCE WITH NATURE'S LAWS.

                                             -- TIMOTHY FERRIS, "GALAXIES"
 Job cpu time:  0 days  0 hours  1 minutes 58.9 seconds.
 File lengths (MBytes):  RWF=     36 Int=      0 D2E=      0 Chk=     11 Scr=      1
 Normal termination of Gaussian 03 at Fri Jun 12 17:58:01 2015.
