 Entering Gaussian System, Link 0=/home/timn/tmp/g03.e01/g03
 Input=mol_16.4.59.pdbcc_plusQ.out.z51609.zip.xyz.gjf
 Output=mol_16.4.59.pdbcc_plusQ.out.z51609.zip.xyz.out
 Initial command:
 /home/timn/tmp/g03.e01/l1.exe /home/timn/tmp/g03.e01/Gau-12478.inp -scrdir=/home/timn/tmp/g03.e01/
 Default is to use a total of   2 processors:
                                2 via shared-memory
                                1 via Linda
 Entering Link 1 = /home/timn/tmp/g03.e01/l1.exe PID=     12479.
  
 Copyright (c) 1988,1990,1992,1993,1995,1998,2003,2004,2007, Gaussian, Inc.
                  All Rights Reserved.
  
 This is the Gaussian(R) 03 program.  It is based on the
 the Gaussian(R) 98 system (copyright 1998, Gaussian, Inc.),
 the Gaussian(R) 94 system (copyright 1995, Gaussian, Inc.),
 the Gaussian 92(TM) system (copyright 1992, Gaussian, Inc.),
 the Gaussian 90(TM) system (copyright 1990, Gaussian, Inc.),
 the Gaussian 88(TM) system (copyright 1988, Gaussian, Inc.),
 the Gaussian 86(TM) system (copyright 1986, Carnegie Mellon
 University), and the Gaussian 82(TM) system (copyright 1983,
 Carnegie Mellon University). Gaussian is a federally registered
 trademark of Gaussian, Inc.
  
 This software contains proprietary and confidential information,
 including trade secrets, belonging to Gaussian, Inc.
  
 This software is provided under written license and may be
 used, copied, transmitted, or stored only in accord with that
 written license.
  
 The following legend is applicable only to US Government
 contracts under FAR:
  
                    RESTRICTED RIGHTS LEGEND
  
 Use, reproduction and disclosure by the US Government is
 subject to restrictions as set forth in subparagraphs (a)
 and (c) of the Commercial Computer Software - Restricted
 Rights clause in FAR 52.227-19.
  
 Gaussian, Inc.
 340 Quinnipiac St., Bldg. 40, Wallingford CT 06492
  
  
 ---------------------------------------------------------------
 Warning -- This program may not be used in any manner that
 competes with the business of Gaussian, Inc. or will provide
 assistance to any competitor of Gaussian, Inc.  The licensee
 of this program is prohibited from giving any competitor of
 Gaussian, Inc. access to this program.  By using this program,
 the user acknowledges that Gaussian, Inc. is engaged in the
 business of creating and licensing software in the field of
 computational chemistry and represents and warrants to the
 licensee that it is not a competitor of Gaussian, Inc. and that
 it will not use this program in any manner prohibited above.
 ---------------------------------------------------------------
  

 Cite this work as:
 Gaussian 03, Revision E.01,
 M. J. Frisch, G. W. Trucks, H. B. Schlegel, G. E. Scuseria, 
 M. A. Robb, J. R. Cheeseman, J. A. Montgomery, Jr., T. Vreven, 
 K. N. Kudin, J. C. Burant, J. M. Millam, S. S. Iyengar, J. Tomasi, 
 V. Barone, B. Mennucci, M. Cossi, G. Scalmani, N. Rega, 
 G. A. Petersson, H. Nakatsuji, M. Hada, M. Ehara, K. Toyota, 
 R. Fukuda, J. Hasegawa, M. Ishida, T. Nakajima, Y. Honda, O. Kitao, 
 H. Nakai, M. Klene, X. Li, J. E. Knox, H. P. Hratchian, J. B. Cross, 
 V. Bakken, C. Adamo, J. Jaramillo, R. Gomperts, R. E. Stratmann, 
 O. Yazyev, A. J. Austin, R. Cammi, C. Pomelli, J. W. Ochterski, 
 P. Y. Ayala, K. Morokuma, G. A. Voth, P. Salvador, J. J. Dannenberg, 
 V. G. Zakrzewski, S. Dapprich, A. D. Daniels, M. C. Strain, 
 O. Farkas, D. K. Malick, A. D. Rabuck, K. Raghavachari, 
 J. B. Foresman, J. V. Ortiz, Q. Cui, A. G. Baboul, S. Clifford, 
 J. Cioslowski, B. B. Stefanov, G. Liu, A. Liashenko, P. Piskorz, 
 I. Komaromi, R. L. Martin, D. J. Fox, T. Keith, M. A. Al-Laham, 
 C. Y. Peng, A. Nanayakkara, M. Challacombe, P. M. W. Gill, 
 B. Johnson, W. Chen, M. W. Wong, C. Gonzalez, and J. A. Pople, 
 Gaussian, Inc., Wallingford CT, 2004.
 
 ******************************************
 Gaussian 03:  EM64T-G03RevE.01 11-Sep-2007
                12-Jun-2015 
 ******************************************
 %nproc=2
 Will use up to    2 processors via shared memory.
 Default route:  MP2=Direct MaxDisk=2000MB
 ----------------------------------------------------
 # b3lyp/6-31+G(d,p) int=ultrafine pop=(ReadRadii,MK)
 ----------------------------------------------------

 Warning!  SCF SP cutoffs with diffuse functions may be unreliable.
 Consider SCF=Tight

 1/38=1/1;
 2/17=6,18=5,40=1/2;
 3/5=1,6=6,7=111,11=2,16=1,25=1,30=1,74=-5,75=5/1,2,3;
 4//1;
 5/5=2,32=1,38=5/2;
 6/7=2,8=2,9=2,10=2,15=8,20=101,28=1/1,2;
 99/5=1,9=1/99;
 ------------------------------------------
 mol_16.4.59.pdbcc_plusQ.out.z51609.zip.xyz
 ------------------------------------------
 Symbolic Z-matrix:
 Charge =  1 Multiplicity = 1
 O                     1.7134    0.00093  -0.7862 
 O                     1.71332   0.00091   0.78633 
 O                    -1.44305   1.27283  -0.00047 
 P                    -2.31996  -0.00113   0.00027 
 Ca                    0.76258  -1.85787  -0.00003 
 O                    -1.44163  -1.27415  -0.00022 
 Ca                    0.76056   1.85852   0.00005 
 
                          Input orientation:                          
 ---------------------------------------------------------------------
 Center     Atomic     Atomic              Coordinates (Angstroms)
 Number     Number      Type              X           Y           Z
 ---------------------------------------------------------------------
    1          8             0        1.713400    0.000930   -0.786200
    2          8             0        1.713320    0.000910    0.786330
    3          8             0       -1.443050    1.272830   -0.000470
    4         15             0       -2.319960   -0.001130    0.000270
    5         20             0        0.762580   -1.857870   -0.000030
    6          8             0       -1.441630   -1.274150   -0.000220
    7         20             0        0.760560    1.858520    0.000050
 ---------------------------------------------------------------------
                    Distance matrix (angstroms):
                    1          2          3          4          5
     1  O    0.000000
     2  O    1.572530   0.000000
     3  O    3.492603   3.492779   0.000000
     4  P    4.109323   4.109166   1.546592   0.000000
     5  Ca   2.230977   2.230993   3.829633   3.598546   0.000000
     6  O    3.492536   3.492585   2.546980   1.546623   2.280191
     7  Ca   2.230859   2.230852   2.280116   3.598319   3.716391
                    6          7
     6  O    0.000000
     7  Ca   3.829264   0.000000
 Stoichiometry    Ca2O4P(1+)
 Framework group  C1[X(Ca2O4P)]
 Deg. of freedom    15
 Full point group                 C1
 Largest Abelian subgroup         C1      NOp   1
 Largest concise Abelian subgroup C1      NOp   1
                         Standard orientation:                         
 ---------------------------------------------------------------------
 Center     Atomic     Atomic              Coordinates (Angstroms)
 Number     Number      Type              X           Y           Z
 ---------------------------------------------------------------------
    1          8             0        1.713403    0.000916   -0.786200
    2          8             0        1.713323    0.000896    0.786330
    3          8             0       -1.443038    1.272837   -0.000470
    4         15             0       -2.319957   -0.001117    0.000270
    5         20             0        0.762571   -1.857878   -0.000030
    6          8             0       -1.441635   -1.274143   -0.000220
    7         20             0        0.760576    1.858512    0.000050
 ---------------------------------------------------------------------
 Rotational constants (GHZ):      1.4537854      1.2850743      0.7205855
 Standard basis: 6-31+G(d,p) (6D, 7F)
 There are   153 symmetry adapted basis functions of A   symmetry.
 Integral buffers will be    131072 words long.
 Raffenetti 2 integral format.
 Two-electron integral symmetry is turned on.
   153 basis functions,   344 primitive gaussians,   153 cartesian basis functions
    43 alpha electrons       43 beta electrons
       nuclear repulsion energy       602.1291030077 Hartrees.
 NAtoms=    7 NActive=    7 NUniq=    7 SFac= 7.50D-01 NAtFMM=   80 NAOKFM=F Big=F
 One-electron integrals computed using PRISM.
 NBasis=   153 RedAO= T  NBF=   153
 NBsUse=   153 1.00D-06 NBFU=   153
 Harris functional with IExCor=  402 diagonalized for initial guess.
 ExpMin= 7.10D-03 ExpMax= 3.53D+04 ExpMxC= 5.30D+03 IAcc=3 IRadAn=         5 AccDes= 0.00D+00
 HarFok:  IExCor= 402 AccDes= 0.00D+00 IRadAn=         5 IDoV=1
 ScaDFX=  1.000000  1.000000  1.000000  1.000000
 Initial guess orbital symmetries:
       Occupied  (A) (A) (A) (A) (A) (A) (A) (A) (A) (A) (A) (A)
                 (A) (A) (A) (A) (A) (A) (A) (A) (A) (A) (A) (A)
                 (A) (A) (A) (A) (A) (A) (A) (A) (A) (A) (A) (A)
                 (A) (A) (A) (A) (A) (A) (A)
       Virtual   (A) (A) (A) (A) (A) (A) (A) (A) (A) (A) (A) (A)
                 (A) (A) (A) (A) (A) (A) (A) (A) (A) (A) (A) (A)
                 (A) (A) (A) (A) (A) (A) (A) (A) (A) (A) (A) (A)
                 (A) (A) (A) (A) (A) (A) (A) (A) (A) (A) (A) (A)
                 (A) (A) (A) (A) (A) (A) (A) (A) (A) (A) (A) (A)
                 (A) (A) (A) (A) (A) (A) (A) (A) (A) (A) (A) (A)
                 (A) (A) (A) (A) (A) (A) (A) (A) (A) (A) (A) (A)
                 (A) (A) (A) (A) (A) (A) (A) (A) (A) (A) (A) (A)
                 (A) (A) (A) (A) (A) (A) (A) (A) (A) (A) (A) (A)
                 (A) (A)
 The electronic state of the initial guess is 1-A.
 Requested convergence on RMS density matrix=1.00D-04 within 128 cycles.
 Requested convergence on MAX density matrix=1.00D-02.
 Requested convergence on             energy=1.00D-02.
 No special actions if energy rises.
 SCF Done:  E(RB+HF-LYP) =  -1997.33372465     A.U. after    6 cycles
             Convg  =    0.4407D-04             -V/T =  2.0031
             S**2   =   0.0000

 **********************************************************************

            Population analysis using the SCF density.

 **********************************************************************

 Orbital symmetries:
       Occupied  (A) (A) (A) (A) (A) (A) (A) (A) (A) (A) (A) (A)
                 (A) (A) (A) (A) (A) (A) (A) (A) (A) (A) (A) (A)
                 (A) (A) (A) (A) (A) (A) (A) (A) (A) (A) (A) (A)
                 (A) (A) (A) (A) (A) (A) (A)
       Virtual   (A) (A) (A) (A) (A) (A) (A) (A) (A) (A) (A) (A)
                 (A) (A) (A) (A) (A) (A) (A) (A) (A) (A) (A) (A)
                 (A) (A) (A) (A) (A) (A) (A) (A) (A) (A) (A) (A)
                 (A) (A) (A) (A) (A) (A) (A) (A) (A) (A) (A) (A)
                 (A) (A) (A) (A) (A) (A) (A) (A) (A) (A) (A) (A)
                 (A) (A) (A) (A) (A) (A) (A) (A) (A) (A) (A) (A)
                 (A) (A) (A) (A) (A) (A) (A) (A) (A) (A) (A) (A)
                 (A) (A) (A) (A) (A) (A) (A) (A) (A) (A) (A) (A)
                 (A) (A) (A) (A) (A) (A) (A) (A) (A) (A) (A) (A)
                 (A) (A)
 The electronic state is 1-A.
 Alpha  occ. eigenvalues -- -145.53247-145.53244 -77.30163 -19.27960 -19.27944
 Alpha  occ. eigenvalues --  -19.25597 -19.25579 -15.60094 -15.60092 -12.73309
 Alpha  occ. eigenvalues --  -12.73306 -12.73291 -12.73288 -12.73209 -12.73205
 Alpha  occ. eigenvalues --   -6.75644  -4.92084  -4.91869  -4.91424  -1.97236
 Alpha  occ. eigenvalues --   -1.97209  -1.25764  -1.24806  -1.24792  -1.24725
 Alpha  occ. eigenvalues --   -1.24725  -1.24302  -1.13923  -1.08554  -1.08246
 Alpha  occ. eigenvalues --   -0.89522  -0.67705  -0.57281  -0.52822  -0.52600
 Alpha  occ. eigenvalues --   -0.48991  -0.47942  -0.46117  -0.45762  -0.43900
 Alpha  occ. eigenvalues --   -0.40701  -0.37191  -0.34166
 Alpha virt. eigenvalues --   -0.20456  -0.19853  -0.19631  -0.14482  -0.11367
 Alpha virt. eigenvalues --   -0.11280  -0.10319  -0.09666  -0.09046  -0.07375
 Alpha virt. eigenvalues --   -0.07215  -0.06432  -0.05962  -0.05215  -0.04857
 Alpha virt. eigenvalues --   -0.04431  -0.04389  -0.04083  -0.03999  -0.03873
 Alpha virt. eigenvalues --   -0.03337  -0.02378   0.00222   0.01111   0.02011
 Alpha virt. eigenvalues --    0.02949   0.03325   0.03644   0.04211   0.05048
 Alpha virt. eigenvalues --    0.05145   0.05190   0.06781   0.07028   0.07278
 Alpha virt. eigenvalues --    0.07476   0.08123   0.08217   0.12231   0.13582
 Alpha virt. eigenvalues --    0.14152   0.14768   0.16275   0.16814   0.16922
 Alpha virt. eigenvalues --    0.18689   0.20334   0.21715   0.24407   0.26748
 Alpha virt. eigenvalues --    0.28309   0.29465   0.31798   0.32145   0.32488
 Alpha virt. eigenvalues --    0.36020   0.36751   0.40438   0.43968   0.45540
 Alpha virt. eigenvalues --    0.48013   0.56599   0.57821   0.60209   0.65642
 Alpha virt. eigenvalues --    0.71350   0.87008   0.90190   0.94374   1.03573
 Alpha virt. eigenvalues --    1.05864   1.07987   1.08401   1.12009   1.12334
 Alpha virt. eigenvalues --    1.14816   1.15160   1.17894   1.20709   1.23937
 Alpha virt. eigenvalues --    1.28611   1.38346   1.43004   1.46779   1.50564
 Alpha virt. eigenvalues --    1.50929   1.58071   1.66233   1.68015   1.70599
 Alpha virt. eigenvalues --    1.71273   1.75755   1.80029   1.81217   1.82380
 Alpha virt. eigenvalues --    1.84416   1.85979   1.86055   1.92956   2.09466
 Alpha virt. eigenvalues --    2.16184   2.16951   2.53537   2.67513   3.00290
 Alpha virt. eigenvalues --    3.38475   3.83794   3.90577   3.97504   4.05856
          Condensed to atoms (all electrons):
              1          2          3          4          5          6
     1  O    8.515802  -0.059677   0.002555  -0.004419   0.105949   0.002548
     2  O   -0.059677   8.515433   0.002539  -0.004352   0.105970   0.002540
     3  O    0.002555   0.002539   8.815429  -0.094438   0.002345  -0.085949
     4  P   -0.004419  -0.004352  -0.094438  14.566922  -0.019100  -0.094280
     5  Ca   0.105949   0.105970   0.002345  -0.019100  18.209997   0.067459
     6  O    0.002548   0.002540  -0.085949  -0.094280   0.067459   8.815079
     7  Ca   0.105939   0.105990   0.067445  -0.019108  -0.016658   0.002343
              7
     1  O    0.105939
     2  O    0.105990
     3  O    0.067445
     4  P   -0.019108
     5  Ca  -0.016658
     6  O    0.002343
     7  Ca  18.210056
 Mulliken atomic charges:
              1
     1  O   -0.668697
     2  O   -0.668443
     3  O   -0.709926
     4  P    0.668775
     5  Ca   1.544039
     6  O   -0.709740
     7  Ca   1.543992
 Sum of Mulliken charges=   1.00000
 Atomic charges with hydrogens summed into heavy atoms:
              1
     1  O   -0.668697
     2  O   -0.668443
     3  O   -0.709926
     4  P    0.668775
     5  Ca   1.544039
     6  O   -0.709740
     7  Ca   1.543992
 Sum of Mulliken charges=   1.00000
 Electronic spatial extent (au):  <R**2>=  1378.3108
 Charge=     1.0000 electrons
 Dipole moment (field-independent basis, Debye):
    X=     3.1402    Y=    -0.0014    Z=     0.0029  Tot=     3.1402
 Quadrupole moment (field-independent basis, Debye-Ang):
   XX=   -66.5050   YY=    -8.8803   ZZ=   -58.2539
   XY=    -0.0297   XZ=     0.0004   YZ=     0.0025
 Traceless Quadrupole moment (field-independent basis, Debye-Ang):
   XX=   -21.9586   YY=    35.6661   ZZ=   -13.7075
   XY=    -0.0297   XZ=     0.0004   YZ=     0.0025
 Octapole moment (field-independent basis, Debye-Ang**2):
  XXX=    -6.9327  YYY=     0.0885  ZZZ=    -0.0005  XYY=    70.8660
  XXY=    -0.0837  XXZ=    -0.0008  XZZ=    -1.4179  YZZ=    -0.0012
  YYZ=     0.0040  XYZ=    -0.0006
 Hexadecapole moment (field-independent basis, Debye-Ang**3):
 XXXX=  -942.9122 YYYY=  -329.5314 ZZZZ=  -103.9670 XXXY=    -0.1271
 XXXZ=     0.0265 YYYX=    -0.1628 YYYZ=     0.0095 ZZZX=     0.0017
 ZZZY=     0.0032 XXYY=  -220.7324 XXZZ=  -174.4863 YYZZ=  -103.3870
 XXYZ=     0.0039 YYXZ=    -0.0065 ZZXY=    -0.0319
 N-N= 6.021291030077D+02 E-N=-5.923692339326D+03  KE= 1.991110126168D+03
 Merz-Kollman atomic radii used.
 Read replacement radii for each type of atom:
 Rad(20) =   1.188000000000D+00
 Atom Element Radius
    1     8    1.40
    2     8    1.40
    3     8    1.40
    4    15    1.80
    5    20    1.19
    6     8    1.40
    7    20    1.19

 **********************************************************************

            Electrostatic Properties Using The SCF Density

 **********************************************************************

       Atomic Center    1 is at   1.713403  0.000916 -0.786200
       Atomic Center    2 is at   1.713323  0.000896  0.786330
       Atomic Center    3 is at  -1.443038  1.272837 -0.000470
       Atomic Center    4 is at  -2.319957 -0.001117  0.000270
       Atomic Center    5 is at   0.762571 -1.857878 -0.000030
       Atomic Center    6 is at  -1.441635 -1.274143 -0.000220
       Atomic Center    7 is at   0.760576  1.858512  0.000050
     712 points will be used for fitting atomic charges
 Fitting point charges to eletrostatic potential
 Charges from ESP fit, RMS=   0.00428 RRMS=   0.02804:
 Charge=   1.00000 Dipole=     2.9937    -0.0015     0.0038 Tot=     2.9937
              1
     1  O   -0.787418
     2  O   -0.787191
     3  O   -0.751884
     4  P    0.633896
     5  Ca   1.722154
     6  O   -0.751703
     7  Ca   1.722146
 -----------------------------------------------------------------

              Electrostatic Properties (Atomic Units)

 -----------------------------------------------------------------
    Center     Electric         -------- Electric Field --------
               Potential          X             Y             Z
 -----------------------------------------------------------------
    1 Atom    -22.214308
    2 Atom    -22.213798
    3 Atom    -22.184342
    4 Atom    -53.916349
    5 Atom    -80.007921
    6 Atom    -22.183914
    7 Atom    -80.007977
 -----------------------------------------------------------------
 1\1\GINC-N034\SP\RB3LYP\6-31+G(d,p)\Ca2O4P1(1+)\TIMN\12-Jun-2015\0\\# 
 b3lyp/6-31+G(d,p) int=ultrafine pop=(ReadRadii,MK)\\mol_16.4.59.pdbcc_
 plusQ.out.z51609.zip.xyz\\1,1\O,0,1.7134,0.00093,-0.7862\O,0,1.71332,0
 .00091,0.78633\O,0,-1.44305,1.27283,-0.00047\P,0,-2.31996,-0.00113,0.0
 0027\Ca,0,0.76258,-1.85787,-0.00003\O,0,-1.44163,-1.27415,-0.00022\Ca,
 0,0.76056,1.85852,0.00005\\Version=EM64T-G03RevE.01\State=1-A\HF=-1997
 .3337247\RMSD=4.407e-05\Thermal=0.\Dipole=1.2354524,-0.0005573,0.00115
 8\PG=C01 [X(Ca2O4P1)]\\@


 NOT WHAT WE DID SHALL BE THE TEST
 WHEN ACT AND WILL ARE DONE,
 BUT WHAT OUR LORD INFERS WE WOULD-
 HAD WE DIVINER BEEN.
           EMILY DICKINSON  POEMS NO. CLXXV
 Job cpu time:  0 days  0 hours  0 minutes 44.2 seconds.
 File lengths (MBytes):  RWF=     28 Int=      0 D2E=      0 Chk=     10 Scr=      1
 Normal termination of Gaussian 03 at Fri Jun 12 17:48:54 2015.
