 Entering Gaussian System, Link 0=/home/timn/tmp/g03.e01/g03
 Input=mol_16.4.19.pdbc_plusQc.out.z51570.zip.xyz.gjf
 Output=mol_16.4.19.pdbc_plusQc.out.z51570.zip.xyz.out
 Initial command:
 /home/timn/tmp/g03.e01/l1.exe /home/timn/tmp/g03.e01/Gau-19575.inp -scrdir=/home/timn/tmp/g03.e01/
 Default is to use a total of   2 processors:
                                2 via shared-memory
                                1 via Linda
 Entering Link 1 = /home/timn/tmp/g03.e01/l1.exe PID=     19578.
  
 Copyright (c) 1988,1990,1992,1993,1995,1998,2003,2004,2007, Gaussian, Inc.
                  All Rights Reserved.
  
 This is the Gaussian(R) 03 program.  It is based on the
 the Gaussian(R) 98 system (copyright 1998, Gaussian, Inc.),
 the Gaussian(R) 94 system (copyright 1995, Gaussian, Inc.),
 the Gaussian 92(TM) system (copyright 1992, Gaussian, Inc.),
 the Gaussian 90(TM) system (copyright 1990, Gaussian, Inc.),
 the Gaussian 88(TM) system (copyright 1988, Gaussian, Inc.),
 the Gaussian 86(TM) system (copyright 1986, Carnegie Mellon
 University), and the Gaussian 82(TM) system (copyright 1983,
 Carnegie Mellon University). Gaussian is a federally registered
 trademark of Gaussian, Inc.
  
 This software contains proprietary and confidential information,
 including trade secrets, belonging to Gaussian, Inc.
  
 This software is provided under written license and may be
 used, copied, transmitted, or stored only in accord with that
 written license.
  
 The following legend is applicable only to US Government
 contracts under FAR:
  
                    RESTRICTED RIGHTS LEGEND
  
 Use, reproduction and disclosure by the US Government is
 subject to restrictions as set forth in subparagraphs (a)
 and (c) of the Commercial Computer Software - Restricted
 Rights clause in FAR 52.227-19.
  
 Gaussian, Inc.
 340 Quinnipiac St., Bldg. 40, Wallingford CT 06492
  
  
 ---------------------------------------------------------------
 Warning -- This program may not be used in any manner that
 competes with the business of Gaussian, Inc. or will provide
 assistance to any competitor of Gaussian, Inc.  The licensee
 of this program is prohibited from giving any competitor of
 Gaussian, Inc. access to this program.  By using this program,
 the user acknowledges that Gaussian, Inc. is engaged in the
 business of creating and licensing software in the field of
 computational chemistry and represents and warrants to the
 licensee that it is not a competitor of Gaussian, Inc. and that
 it will not use this program in any manner prohibited above.
 ---------------------------------------------------------------
  

 Cite this work as:
 Gaussian 03, Revision E.01,
 M. J. Frisch, G. W. Trucks, H. B. Schlegel, G. E. Scuseria, 
 M. A. Robb, J. R. Cheeseman, J. A. Montgomery, Jr., T. Vreven, 
 K. N. Kudin, J. C. Burant, J. M. Millam, S. S. Iyengar, J. Tomasi, 
 V. Barone, B. Mennucci, M. Cossi, G. Scalmani, N. Rega, 
 G. A. Petersson, H. Nakatsuji, M. Hada, M. Ehara, K. Toyota, 
 R. Fukuda, J. Hasegawa, M. Ishida, T. Nakajima, Y. Honda, O. Kitao, 
 H. Nakai, M. Klene, X. Li, J. E. Knox, H. P. Hratchian, J. B. Cross, 
 V. Bakken, C. Adamo, J. Jaramillo, R. Gomperts, R. E. Stratmann, 
 O. Yazyev, A. J. Austin, R. Cammi, C. Pomelli, J. W. Ochterski, 
 P. Y. Ayala, K. Morokuma, G. A. Voth, P. Salvador, J. J. Dannenberg, 
 V. G. Zakrzewski, S. Dapprich, A. D. Daniels, M. C. Strain, 
 O. Farkas, D. K. Malick, A. D. Rabuck, K. Raghavachari, 
 J. B. Foresman, J. V. Ortiz, Q. Cui, A. G. Baboul, S. Clifford, 
 J. Cioslowski, B. B. Stefanov, G. Liu, A. Liashenko, P. Piskorz, 
 I. Komaromi, R. L. Martin, D. J. Fox, T. Keith, M. A. Al-Laham, 
 C. Y. Peng, A. Nanayakkara, M. Challacombe, P. M. W. Gill, 
 B. Johnson, W. Chen, M. W. Wong, C. Gonzalez, and J. A. Pople, 
 Gaussian, Inc., Wallingford CT, 2004.
 
 ******************************************
 Gaussian 03:  EM64T-G03RevE.01 11-Sep-2007
                12-Jun-2015 
 ******************************************
 %nproc=2
 Will use up to    2 processors via shared memory.
 Default route:  MP2=Direct MaxDisk=2000MB
 ----------------------------------------------------
 # b3lyp/6-31+G(d,p) int=ultrafine pop=(ReadRadii,MK)
 ----------------------------------------------------

 Warning!  SCF SP cutoffs with diffuse functions may be unreliable.
 Consider SCF=Tight

 1/38=1/1;
 2/17=6,18=5,40=1/2;
 3/5=1,6=6,7=111,11=2,16=1,25=1,30=1,74=-5,75=5/1,2,3;
 4//1;
 5/5=2,32=1,38=5/2;
 6/7=2,8=2,9=2,10=2,15=8,20=101,28=1/1,2;
 99/5=1,9=1/99;
 ------------------------------------------
 mol_16.4.19.pdbc_plusQc.out.z51570.zip.xyz
 ------------------------------------------
 Symbolic Z-matrix:
 Charge =  1 Multiplicity = 1
 O                    -0.62793  -0.75498  -0.01065 
 P                    -2.09556  -1.32515  -0.00183 
 Ca                   -4.03496   0.97018   0.00804 
 Ca                    1.59058  -0.43563  -0.01122 
 O                     3.87614  -0.49118   0.03533 
 O                     4.00619   0.87811   0.01302 
 O                     2.78572   1.51633  -0.02635 
 
                          Input orientation:                          
 ---------------------------------------------------------------------
 Center     Atomic     Atomic              Coordinates (Angstroms)
 Number     Number      Type              X           Y           Z
 ---------------------------------------------------------------------
    1          8             0       -0.627930   -0.754980   -0.010650
    2         15             0       -2.095560   -1.325150   -0.001830
    3         20             0       -4.034960    0.970180    0.008040
    4         20             0        1.590580   -0.435630   -0.011220
    5          8             0        3.876140   -0.491180    0.035330
    6          8             0        4.006190    0.878110    0.013020
    7          8             0        2.785720    1.516330   -0.026350
 ---------------------------------------------------------------------
                    Distance matrix (angstroms):
                    1          2          3          4          5
     1  O    0.000000
     2  P    1.574519   0.000000
     3  Ca   3.818950   3.004981   0.000000
     4  Ca   2.241377   3.791960   5.798566   0.000000
     5  O    4.512023   6.029767   8.044987   2.286709   0.000000
     6  O    4.913513   6.487367   8.041679   2.749849   1.375633
     7  O    4.100256   5.648142   6.842597   2.288829   2.285370
                    6          7
     6  O    0.000000
     7  O    1.377832   0.000000
 Stoichiometry    Ca2O4P(1+)
 Framework group  C1[X(Ca2O4P)]
 Deg. of freedom    15
 Full point group                 C1
 Largest Abelian subgroup         C1      NOp   1
 Largest concise Abelian subgroup C1      NOp   1
                         Standard orientation:                         
 ---------------------------------------------------------------------
 Center     Atomic     Atomic              Coordinates (Angstroms)
 Number     Number      Type              X           Y           Z
 ---------------------------------------------------------------------
    1          8             0       -0.627930   -0.754980   -0.010647
    2         15             0       -2.095560   -1.325149   -0.001827
    3         20             0       -4.034959    0.970182    0.008043
    4         20             0        1.590580   -0.435630   -0.011217
    5          8             0        3.876140   -0.491181    0.035333
    6          8             0        4.006191    0.878109    0.013023
    7          8             0        2.785721    1.516329   -0.026347
 ---------------------------------------------------------------------
 Rotational constants (GHZ):      3.1253657      0.3335326      0.3013865
 Standard basis: 6-31+G(d,p) (6D, 7F)
 There are   153 symmetry adapted basis functions of A   symmetry.
 Integral buffers will be    131072 words long.
 Raffenetti 2 integral format.
 Two-electron integral symmetry is turned on.
   153 basis functions,   344 primitive gaussians,   153 cartesian basis functions
    43 alpha electrons       43 beta electrons
       nuclear repulsion energy       487.9512471047 Hartrees.
 NAtoms=    7 NActive=    7 NUniq=    7 SFac= 7.50D-01 NAtFMM=   80 NAOKFM=F Big=F
 One-electron integrals computed using PRISM.
 NBasis=   153 RedAO= T  NBF=   153
 NBsUse=   153 1.00D-06 NBFU=   153
 Harris functional with IExCor=  402 diagonalized for initial guess.
 ExpMin= 7.10D-03 ExpMax= 3.53D+04 ExpMxC= 5.30D+03 IAcc=3 IRadAn=         5 AccDes= 0.00D+00
 HarFok:  IExCor= 402 AccDes= 0.00D+00 IRadAn=         5 IDoV=1
 ScaDFX=  1.000000  1.000000  1.000000  1.000000
 Initial guess orbital symmetries:
       Occupied  (A) (A) (A) (A) (A) (A) (A) (A) (A) (A) (A) (A)
                 (A) (A) (A) (A) (A) (A) (A) (A) (A) (A) (A) (A)
                 (A) (A) (A) (A) (A) (A) (A) (A) (A) (A) (A) (A)
                 (A) (A) (A) (A) (A) (A) (A)
       Virtual   (A) (A) (A) (A) (A) (A) (A) (A) (A) (A) (A) (A)
                 (A) (A) (A) (A) (A) (A) (A) (A) (A) (A) (A) (A)
                 (A) (A) (A) (A) (A) (A) (A) (A) (A) (A) (A) (A)
                 (A) (A) (A) (A) (A) (A) (A) (A) (A) (A) (A) (A)
                 (A) (A) (A) (A) (A) (A) (A) (A) (A) (A) (A) (A)
                 (A) (A) (A) (A) (A) (A) (A) (A) (A) (A) (A) (A)
                 (A) (A) (A) (A) (A) (A) (A) (A) (A) (A) (A) (A)
                 (A) (A) (A) (A) (A) (A) (A) (A) (A) (A) (A) (A)
                 (A) (A) (A) (A) (A) (A) (A) (A) (A) (A) (A) (A)
                 (A) (A)
 The electronic state of the initial guess is 1-A.
 Requested convergence on RMS density matrix=1.00D-04 within 128 cycles.
 Requested convergence on MAX density matrix=1.00D-02.
 Requested convergence on             energy=1.00D-02.
 No special actions if energy rises.
 Rare condition: small coef for last iteration:  0.000D+00
 EnCoef did   100 forward-backward iterations
 EnCoef did   100 forward-backward iterations
 EnCoef did   100 forward-backward iterations
 EnCoef did     5 forward-backward iterations
 EnCoef did    28 forward-backward iterations
 EnCoef did    19 forward-backward iterations
 EnCoef did   100 forward-backward iterations
 EnCoef did    21 forward-backward iterations
 EnCoef did    14 forward-backward iterations
 EnCoef did   100 forward-backward iterations
 EnCoef did     2 forward-backward iterations
 Rare condition: small coef for last iteration:  0.222D-15
 EnCoef did   100 forward-backward iterations
 EnCoef did   100 forward-backward iterations
 EnCoef did   100 forward-backward iterations
 Restarting incremental Fock formation.
 Matrix for removal  4 Erem= -1983.31902574436     Crem= 0.000D+00
 SCF Done:  E(RB+HF-LYP) =  -1997.01197826     A.U. after   20 cycles
             Convg  =    0.2392D-04             -V/T =  2.0030
             S**2   =   0.0000

 **********************************************************************

            Population analysis using the SCF density.

 **********************************************************************

 Orbital symmetries:
       Occupied  (A) (A) (A) (A) (A) (A) (A) (A) (A) (A) (A) (A)
                 (A) (A) (A) (A) (A) (A) (A) (A) (A) (A) (A) (A)
                 (A) (A) (A) (A) (A) (A) (A) (A) (A) (A) (A) (A)
                 (A) (A) (A) (A) (A) (A) (A)
       Virtual   (A) (A) (A) (A) (A) (A) (A) (A) (A) (A) (A) (A)
                 (A) (A) (A) (A) (A) (A) (A) (A) (A) (A) (A) (A)
                 (A) (A) (A) (A) (A) (A) (A) (A) (A) (A) (A) (A)
                 (A) (A) (A) (A) (A) (A) (A) (A) (A) (A) (A) (A)
                 (A) (A) (A) (A) (A) (A) (A) (A) (A) (A) (A) (A)
                 (A) (A) (A) (A) (A) (A) (A) (A) (A) (A) (A) (A)
                 (A) (A) (A) (A) (A) (A) (A) (A) (A) (A) (A) (A)
                 (A) (A) (A) (A) (A) (A) (A) (A) (A) (A) (A) (A)
                 (A) (A) (A) (A) (A) (A) (A) (A) (A) (A) (A) (A)
                 (A) (A)
 The electronic state is 1-A.
 Alpha  occ. eigenvalues -- -145.60057-145.52000 -77.26906 -19.39951 -19.30079
 Alpha  occ. eigenvalues --  -19.28088 -19.28047 -15.67050 -15.58827 -12.80217
 Alpha  occ. eigenvalues --  -12.80203 -12.80167 -12.72104 -12.72041 -12.71872
 Alpha  occ. eigenvalues --   -6.73160  -4.89360  -4.89268  -4.89133  -2.03987
 Alpha  occ. eigenvalues --   -1.96022  -1.31365  -1.31277  -1.30895  -1.29219
 Alpha  occ. eigenvalues --   -1.23915  -1.23655  -1.22592  -1.11896  -1.05905
 Alpha  occ. eigenvalues --   -0.84231  -0.69197  -0.60343  -0.56839  -0.56105
 Alpha  occ. eigenvalues --   -0.52657  -0.51042  -0.50719  -0.40057  -0.39819
 Alpha  occ. eigenvalues --   -0.39051  -0.33400  -0.29131
 Alpha virt. eigenvalues --   -0.27241  -0.25594  -0.19087  -0.17259  -0.16922
 Alpha virt. eigenvalues --   -0.14723  -0.12154  -0.10930  -0.10298  -0.08844
 Alpha virt. eigenvalues --   -0.06957  -0.06338  -0.06199  -0.06049  -0.05406
 Alpha virt. eigenvalues --   -0.04865  -0.04786  -0.04085  -0.03842  -0.03229
 Alpha virt. eigenvalues --   -0.02846  -0.01988  -0.01500  -0.00883  -0.00537
 Alpha virt. eigenvalues --    0.00924   0.01389   0.01514   0.01545   0.01852
 Alpha virt. eigenvalues --    0.02221   0.02865   0.03739   0.04369   0.04662
 Alpha virt. eigenvalues --    0.04746   0.05592   0.06420   0.08622   0.10156
 Alpha virt. eigenvalues --    0.11978   0.13127   0.13370   0.14863   0.15020
 Alpha virt. eigenvalues --    0.15991   0.17354   0.18220   0.19323   0.21631
 Alpha virt. eigenvalues --    0.22770   0.23134   0.26120   0.28175   0.29586
 Alpha virt. eigenvalues --    0.30872   0.32639   0.34366   0.35974   0.37776
 Alpha virt. eigenvalues --    0.43148   0.48058   0.53689   0.58432   0.59045
 Alpha virt. eigenvalues --    0.64600   0.72863   0.87822   1.01148   1.02750
 Alpha virt. eigenvalues --    1.03893   1.04772   1.05407   1.06568   1.08540
 Alpha virt. eigenvalues --    1.12792   1.14043   1.16163   1.20010   1.24937
 Alpha virt. eigenvalues --    1.29586   1.36268   1.37657   1.44940   1.45243
 Alpha virt. eigenvalues --    1.47053   1.63058   1.64349   1.65011   1.70487
 Alpha virt. eigenvalues --    1.72173   1.75620   1.82515   1.85723   1.90264
 Alpha virt. eigenvalues --    1.91996   1.93473   2.09762   2.12452   2.32371
 Alpha virt. eigenvalues --    2.38172   2.52597   2.68246   3.01568   3.04449
 Alpha virt. eigenvalues --    3.36015   3.78945   3.85205   4.00493   4.33277
          Condensed to atoms (all electrons):
              1          2          3          4          5          6
     1  O    8.769824  -0.191649  -0.080382   0.086219  -0.003308   0.001140
     2  P   -0.191649  14.946731   0.231955  -0.016719   0.000972  -0.000484
     3  Ca  -0.080382   0.231955  18.967278   0.004233  -0.000055  -0.000377
     4  Ca   0.086219  -0.016719   0.004233  18.282051   0.139634  -0.004206
     5  O   -0.003308   0.000972  -0.000055   0.139634   8.169958   0.207171
     6  O    0.001140  -0.000484  -0.000377  -0.004206   0.207171   7.463334
     7  O   -0.004285   0.000292   0.001600   0.114717  -0.078142   0.172592
              7
     1  O   -0.004285
     2  P    0.000292
     3  Ca   0.001600
     4  Ca   0.114717
     5  O   -0.078142
     6  O    0.172592
     7  O    8.238991
 Mulliken atomic charges:
              1
     1  O   -0.577558
     2  P    0.028902
     3  Ca   0.875747
     4  Ca   1.394072
     5  O   -0.436229
     6  O    0.160831
     7  O   -0.445765
 Sum of Mulliken charges=   1.00000
 Atomic charges with hydrogens summed into heavy atoms:
              1
     1  O   -0.577558
     2  P    0.028902
     3  Ca   0.875747
     4  Ca   1.394072
     5  O   -0.436229
     6  O    0.160831
     7  O   -0.445765
 Sum of Mulliken charges=   1.00000
 Electronic spatial extent (au):  <R**2>=  3082.6084
 Charge=     1.0000 electrons
 Dipole moment (field-independent basis, Debye):
    X=   -17.0567    Y=     1.6708    Z=    -0.0362  Tot=    17.1384
 Quadrupole moment (field-independent basis, Debye-Ang):
   XX=   -10.4270   YY=   -60.1730   ZZ=   -60.3698
   XY=   -30.2635   XZ=    -0.4174   YZ=     0.2095
 Traceless Quadrupole moment (field-independent basis, Debye-Ang):
   XX=    33.2296   YY=   -16.5164   ZZ=   -16.7132
   XY=   -30.2635   XZ=    -0.4174   YZ=     0.2095
 Octapole moment (field-independent basis, Debye-Ang**2):
  XXX=  -392.0434  YYY=     6.4163  ZZZ=    -0.1741  XYY=   -19.7673
  XXY=    77.1138  XXZ=    -0.2271  XZZ=    14.2085  YZZ=     3.0921
  YYZ=     0.0966  XYZ=     0.3786
 Hexadecapole moment (field-independent basis, Debye-Ang**3):
 XXXX= -2367.7199 YYYY=  -455.3552 ZZZZ=   -85.4982 XXXY=  -360.2458
 XXXZ=    -6.6020 YYYX=   -95.3102 YYYZ=     0.4203 ZZZX=    -0.4775
 ZZZY=     0.3242 XXYY=  -575.5101 XXZZ=  -562.4582 YYZZ=   -89.8678
 XXYZ=     2.1871 YYXZ=     0.0663 ZZXY=   -17.7001
 N-N= 4.879512471047D+02 E-N=-5.693357044330D+03  KE= 1.990984020906D+03
 Merz-Kollman atomic radii used.
 Read replacement radii for each type of atom:
 Rad(20) =   1.188000000000D+00
 Atom Element Radius
    1     8    1.40
    2    15    1.80
    3    20    1.19
    4    20    1.19
    5     8    1.40
    6     8    1.40
    7     8    1.40

 **********************************************************************

            Electrostatic Properties Using The SCF Density

 **********************************************************************

       Atomic Center    1 is at  -0.627930 -0.754980 -0.010647
       Atomic Center    2 is at  -2.095560 -1.325149 -0.001827
       Atomic Center    3 is at  -4.034959  0.970182  0.008043
       Atomic Center    4 is at   1.590580 -0.435630 -0.011217
       Atomic Center    5 is at   3.876140 -0.491181  0.035333
       Atomic Center    6 is at   4.006191  0.878109  0.013023
       Atomic Center    7 is at   2.785721  1.516329 -0.026347
     848 points will be used for fitting atomic charges
 Fitting point charges to eletrostatic potential
 Charges from ESP fit, RMS=   0.00793 RRMS=   0.05107:
 Charge=   1.00000 Dipole=   -18.5425     2.5088    -0.0207 Tot=    18.7114
              1
     1  O   -0.619616
     2  P   -0.187494
     3  Ca   1.066972
     4  Ca   1.715104
     5  O   -0.566194
     6  O    0.219700
     7  O   -0.628472
 -----------------------------------------------------------------

              Electrostatic Properties (Atomic Units)

 -----------------------------------------------------------------
    Center     Electric         -------- Electric Field --------
               Potential          X             Y             Z
 -----------------------------------------------------------------
    1 Atom    -22.165366
    2 Atom    -53.954611
    3 Atom    -79.946627
    4 Atom    -80.018931
    5 Atom    -22.184796
    6 Atom    -22.067645
    7 Atom    -22.185218
 -----------------------------------------------------------------
 1\1\GINC-N022\SP\RB3LYP\6-31+G(d,p)\Ca2O4P1(1+)\TIMN\12-Jun-2015\0\\# 
 b3lyp/6-31+G(d,p) int=ultrafine pop=(ReadRadii,MK)\\mol_16.4.19.pdbc_p
 lusQc.out.z51570.zip.xyz\\1,1\O,0,-0.62793,-0.75498,-0.01065\P,0,-2.09
 556,-1.32515,-0.00183\Ca,0,-4.03496,0.97018,0.00804\Ca,0,1.59058,-0.43
 563,-0.01122\O,0,3.87614,-0.49118,0.03533\O,0,4.00619,0.87811,0.01302\
 O,0,2.78572,1.51633,-0.02635\\Version=EM64T-G03RevE.01\State=1-A\HF=-1
 997.0119783\RMSD=2.392e-05\Thermal=0.\Dipole=-6.7106415,0.657325,-0.01
 42241\PG=C01 [X(Ca2O4P1)]\\@


 TIME IS IN FACT THE HERO OF THE PLOT. THE TIME
 WITH WHICH WE HAVE TO DEAL IS OF THE ORDER OF TWO
 BILLION YEARS...GIVEN SO MUCH TIME, THE "IMPOSSIBLE"
 BECOMES POSSIBLE, THE POSSIBLE PROBABLE, THE PROBABLE
 VIRTUALLY CERTAIN.  ONE HAS ONLY TO WAIT, TIME
 ITSELF PERFORMS THE MIRACLES.
 "ORIGIN OF LIFE" LECTURES, GEORGE WALD, 1954
 Job cpu time:  0 days  0 hours  1 minutes 45.4 seconds.
 File lengths (MBytes):  RWF=     28 Int=      0 D2E=      0 Chk=     10 Scr=      1
 Normal termination of Gaussian 03 at Fri Jun 12 17:48:57 2015.
