 Entering Gaussian System, Link 0=/home/timn/tmp/g03.e01/g03
 Input=mol_17.26.50.pdbccc_plusQ.z58462.zip.xyz.gjf
 Output=mol_17.26.50.pdbccc_plusQ.z58462.zip.xyz.out
 Initial command:
 /home/timn/tmp/g03.e01/l1.exe /home/timn/tmp/g03.e01/Gau-18564.inp -scrdir=/home/timn/tmp/g03.e01/
 Default is to use a total of   2 processors:
                                2 via shared-memory
                                1 via Linda
 Entering Link 1 = /home/timn/tmp/g03.e01/l1.exe PID=     18565.
  
 Copyright (c) 1988,1990,1992,1993,1995,1998,2003,2004,2007, Gaussian, Inc.
                  All Rights Reserved.
  
 This is the Gaussian(R) 03 program.  It is based on the
 the Gaussian(R) 98 system (copyright 1998, Gaussian, Inc.),
 the Gaussian(R) 94 system (copyright 1995, Gaussian, Inc.),
 the Gaussian 92(TM) system (copyright 1992, Gaussian, Inc.),
 the Gaussian 90(TM) system (copyright 1990, Gaussian, Inc.),
 the Gaussian 88(TM) system (copyright 1988, Gaussian, Inc.),
 the Gaussian 86(TM) system (copyright 1986, Carnegie Mellon
 University), and the Gaussian 82(TM) system (copyright 1983,
 Carnegie Mellon University). Gaussian is a federally registered
 trademark of Gaussian, Inc.
  
 This software contains proprietary and confidential information,
 including trade secrets, belonging to Gaussian, Inc.
  
 This software is provided under written license and may be
 used, copied, transmitted, or stored only in accord with that
 written license.
  
 The following legend is applicable only to US Government
 contracts under FAR:
  
                    RESTRICTED RIGHTS LEGEND
  
 Use, reproduction and disclosure by the US Government is
 subject to restrictions as set forth in subparagraphs (a)
 and (c) of the Commercial Computer Software - Restricted
 Rights clause in FAR 52.227-19.
  
 Gaussian, Inc.
 340 Quinnipiac St., Bldg. 40, Wallingford CT 06492
  
  
 ---------------------------------------------------------------
 Warning -- This program may not be used in any manner that
 competes with the business of Gaussian, Inc. or will provide
 assistance to any competitor of Gaussian, Inc.  The licensee
 of this program is prohibited from giving any competitor of
 Gaussian, Inc. access to this program.  By using this program,
 the user acknowledges that Gaussian, Inc. is engaged in the
 business of creating and licensing software in the field of
 computational chemistry and represents and warrants to the
 licensee that it is not a competitor of Gaussian, Inc. and that
 it will not use this program in any manner prohibited above.
 ---------------------------------------------------------------
  

 Cite this work as:
 Gaussian 03, Revision E.01,
 M. J. Frisch, G. W. Trucks, H. B. Schlegel, G. E. Scuseria, 
 M. A. Robb, J. R. Cheeseman, J. A. Montgomery, Jr., T. Vreven, 
 K. N. Kudin, J. C. Burant, J. M. Millam, S. S. Iyengar, J. Tomasi, 
 V. Barone, B. Mennucci, M. Cossi, G. Scalmani, N. Rega, 
 G. A. Petersson, H. Nakatsuji, M. Hada, M. Ehara, K. Toyota, 
 R. Fukuda, J. Hasegawa, M. Ishida, T. Nakajima, Y. Honda, O. Kitao, 
 H. Nakai, M. Klene, X. Li, J. E. Knox, H. P. Hratchian, J. B. Cross, 
 V. Bakken, C. Adamo, J. Jaramillo, R. Gomperts, R. E. Stratmann, 
 O. Yazyev, A. J. Austin, R. Cammi, C. Pomelli, J. W. Ochterski, 
 P. Y. Ayala, K. Morokuma, G. A. Voth, P. Salvador, J. J. Dannenberg, 
 V. G. Zakrzewski, S. Dapprich, A. D. Daniels, M. C. Strain, 
 O. Farkas, D. K. Malick, A. D. Rabuck, K. Raghavachari, 
 J. B. Foresman, J. V. Ortiz, Q. Cui, A. G. Baboul, S. Clifford, 
 J. Cioslowski, B. B. Stefanov, G. Liu, A. Liashenko, P. Piskorz, 
 I. Komaromi, R. L. Martin, D. J. Fox, T. Keith, M. A. Al-Laham, 
 C. Y. Peng, A. Nanayakkara, M. Challacombe, P. M. W. Gill, 
 B. Johnson, W. Chen, M. W. Wong, C. Gonzalez, and J. A. Pople, 
 Gaussian, Inc., Wallingford CT, 2004.
 
 ******************************************
 Gaussian 03:  EM64T-G03RevE.01 11-Sep-2007
                12-Jun-2015 
 ******************************************
 %nproc=2
 Will use up to    2 processors via shared memory.
 Default route:  MP2=Direct MaxDisk=2000MB
 ----------------------------------------------------
 # b3lyp/6-31+G(d,p) int=ultrafine pop=(ReadRadii,MK)
 ----------------------------------------------------

 Warning!  SCF SP cutoffs with diffuse functions may be unreliable.
 Consider SCF=Tight

 1/38=1/1;
 2/17=6,18=5,40=1/2;
 3/5=1,6=6,7=111,11=2,16=1,25=1,30=1,74=-5,75=5/1,2,3;
 4//1;
 5/5=2,32=1,38=5/2;
 6/7=2,8=2,9=2,10=2,15=8,20=101,28=1/1,2;
 99/5=1,9=1/99;
 ----------------------------------------
 mol_17.26.50.pdbccc_plusQ.z58462.zip.xyz
 ----------------------------------------
 Symbolic Z-matrix:
 Charge =  1 Multiplicity = 1
 O                     0.46835  -1.51754  -0.13648 
 O                    -1.94441  -1.25889   0.45864 
 O                    -3.01307  -0.40121   1.13102 
 Ca                   -2.78409   0.36257  -0.91896 
 O                    -0.64903   0.8454   -0.28547 
 P                    -0.41589  -0.53039   0.71662 
 Ca                    2.687    -1.32472  -0.35474 
 O                     2.96635   0.76241  -0.08045 
 Ca                    1.27772   1.98788   0.30133 
 
                          Input orientation:                          
 ---------------------------------------------------------------------
 Center     Atomic     Atomic              Coordinates (Angstroms)
 Number     Number      Type              X           Y           Z
 ---------------------------------------------------------------------
    1          8             0        0.468350   -1.517540   -0.136480
    2          8             0       -1.944410   -1.258890    0.458640
    3          8             0       -3.013070   -0.401210    1.131020
    4         20             0       -2.784090    0.362570   -0.918960
    5          8             0       -0.649030    0.845400   -0.285470
    6         15             0       -0.415890   -0.530390    0.716620
    7         20             0        2.687000   -1.324720   -0.354740
    8          8             0        2.966350    0.762410   -0.080450
    9         20             0        1.277720    1.987880    0.301330
 ---------------------------------------------------------------------
                    Distance matrix (angstroms):
                    1          2          3          4          5
     1  O    0.000000
     2  O    2.498495   0.000000
     3  O    3.869501   1.526350   0.000000
     4  Ca   3.837376   2.287351   2.199593   0.000000
     5  O    2.618057   2.580648   3.024759   2.278797   0.000000
     6  P    1.576111   1.712787   2.633203   3.013448   1.717946
     7  Ca   2.237683   4.702752   5.962479   5.753096   3.980366
     8  O    3.382501   5.337774   6.210888   5.824992   3.622139
     9  Ca   3.624186   4.576940   4.980664   4.541920   2.315591
                    6          7          8          9
     6  P    0.000000
     7  Ca   3.377380   0.000000
     8  O    3.707587   2.123531   0.000000
     9  Ca   3.063081   3.659210   2.121086   0.000000
 Stoichiometry    Ca3O5P(1+)
 Framework group  C1[X(Ca3O5P)]
 Deg. of freedom    21
 Full point group                 C1
 Largest Abelian subgroup         C1      NOp   1
 Largest concise Abelian subgroup C1      NOp   1
                         Standard orientation:                         
 ---------------------------------------------------------------------
 Center     Atomic     Atomic              Coordinates (Angstroms)
 Number     Number      Type              X           Y           Z
 ---------------------------------------------------------------------
    1          8             0        0.468355   -1.517540   -0.136480
    2          8             0       -1.944406   -1.258894    0.458640
    3          8             0       -3.013067   -0.401216    1.131020
    4         20             0       -2.784089    0.362564   -0.918960
    5          8             0       -0.649030    0.845398   -0.285470
    6         15             0       -0.415887   -0.530392    0.716620
    7         20             0        2.687004   -1.324716   -0.354740
    8          8             0        2.966351    0.762414   -0.080450
    9         20             0        1.277718    1.987881    0.301330
 ---------------------------------------------------------------------
 Rotational constants (GHZ):      1.2286131      0.4555445      0.3735087
 Standard basis: 6-31+G(d,p) (6D, 7F)
 There are   199 symmetry adapted basis functions of A   symmetry.
 Integral buffers will be    131072 words long.
 Raffenetti 2 integral format.
 Two-electron integral symmetry is turned on.
   199 basis functions,   456 primitive gaussians,   199 cartesian basis functions
    57 alpha electrons       57 beta electrons
       nuclear repulsion energy       977.0304271527 Hartrees.
 NAtoms=    9 NActive=    9 NUniq=    9 SFac= 7.50D-01 NAtFMM=   80 NAOKFM=F Big=F
 One-electron integrals computed using PRISM.
 NBasis=   199 RedAO= T  NBF=   199
 NBsUse=   199 1.00D-06 NBFU=   199
 Harris functional with IExCor=  402 diagonalized for initial guess.
 ExpMin= 7.10D-03 ExpMax= 3.53D+04 ExpMxC= 5.30D+03 IAcc=3 IRadAn=         5 AccDes= 0.00D+00
 HarFok:  IExCor= 402 AccDes= 0.00D+00 IRadAn=         5 IDoV=1
 ScaDFX=  1.000000  1.000000  1.000000  1.000000
 Initial guess orbital symmetries:
       Occupied  (A) (A) (A) (A) (A) (A) (A) (A) (A) (A) (A) (A)
                 (A) (A) (A) (A) (A) (A) (A) (A) (A) (A) (A) (A)
                 (A) (A) (A) (A) (A) (A) (A) (A) (A) (A) (A) (A)
                 (A) (A) (A) (A) (A) (A) (A) (A) (A) (A) (A) (A)
                 (A) (A) (A) (A) (A) (A) (A) (A) (A)
       Virtual   (A) (A) (A) (A) (A) (A) (A) (A) (A) (A) (A) (A)
                 (A) (A) (A) (A) (A) (A) (A) (A) (A) (A) (A) (A)
                 (A) (A) (A) (A) (A) (A) (A) (A) (A) (A) (A) (A)
                 (A) (A) (A) (A) (A) (A) (A) (A) (A) (A) (A) (A)
                 (A) (A) (A) (A) (A) (A) (A) (A) (A) (A) (A) (A)
                 (A) (A) (A) (A) (A) (A) (A) (A) (A) (A) (A) (A)
                 (A) (A) (A) (A) (A) (A) (A) (A) (A) (A) (A) (A)
                 (A) (A) (A) (A) (A) (A) (A) (A) (A) (A) (A) (A)
                 (A) (A) (A) (A) (A) (A) (A) (A) (A) (A) (A) (A)
                 (A) (A) (A) (A) (A) (A) (A) (A) (A) (A) (A) (A)
                 (A) (A) (A) (A) (A) (A) (A) (A) (A) (A) (A) (A)
                 (A) (A) (A) (A) (A) (A) (A) (A) (A) (A)
 The electronic state of the initial guess is 1-A.
 Requested convergence on RMS density matrix=1.00D-04 within 128 cycles.
 Requested convergence on MAX density matrix=1.00D-02.
 Requested convergence on             energy=1.00D-02.
 No special actions if energy rises.
 EnCoef did     3 forward-backward iterations
 EnCoef did   100 forward-backward iterations
 SCF Done:  E(RB+HF-LYP) =  -2750.12385965     A.U. after    9 cycles
             Convg  =    0.4973D-04             -V/T =  2.0029
             S**2   =   0.0000

 **********************************************************************

            Population analysis using the SCF density.

 **********************************************************************

 Orbital symmetries:
       Occupied  (A) (A) (A) (A) (A) (A) (A) (A) (A) (A) (A) (A)
                 (A) (A) (A) (A) (A) (A) (A) (A) (A) (A) (A) (A)
                 (A) (A) (A) (A) (A) (A) (A) (A) (A) (A) (A) (A)
                 (A) (A) (A) (A) (A) (A) (A) (A) (A) (A) (A) (A)
                 (A) (A) (A) (A) (A) (A) (A) (A) (A)
       Virtual   (A) (A) (A) (A) (A) (A) (A) (A) (A) (A) (A) (A)
                 (A) (A) (A) (A) (A) (A) (A) (A) (A) (A) (A) (A)
                 (A) (A) (A) (A) (A) (A) (A) (A) (A) (A) (A) (A)
                 (A) (A) (A) (A) (A) (A) (A) (A) (A) (A) (A) (A)
                 (A) (A) (A) (A) (A) (A) (A) (A) (A) (A) (A) (A)
                 (A) (A) (A) (A) (A) (A) (A) (A) (A) (A) (A) (A)
                 (A) (A) (A) (A) (A) (A) (A) (A) (A) (A) (A) (A)
                 (A) (A) (A) (A) (A) (A) (A) (A) (A) (A) (A) (A)
                 (A) (A) (A) (A) (A) (A) (A) (A) (A) (A) (A) (A)
                 (A) (A) (A) (A) (A) (A) (A) (A) (A) (A) (A) (A)
                 (A) (A) (A) (A) (A) (A) (A) (A) (A) (A) (A) (A)
                 (A) (A) (A) (A) (A) (A) (A) (A) (A) (A)
 The electronic state is 1-A.
 Alpha  occ. eigenvalues -- -145.52460-145.49021-145.48652 -77.25667 -19.27821
 Alpha  occ. eigenvalues --  -19.22837 -19.22139 -19.21059 -19.12477 -15.59291
 Alpha  occ. eigenvalues --  -15.55906 -15.55547 -12.72515 -12.72454 -12.72415
 Alpha  occ. eigenvalues --  -12.69156 -12.69101 -12.68961 -12.68797 -12.68720
 Alpha  occ. eigenvalues --  -12.68618  -6.70818  -4.87215  -4.87158  -4.86610
 Alpha  occ. eigenvalues --   -1.96469  -1.93143  -1.92785  -1.24744  -1.23995
 Alpha  occ. eigenvalues --   -1.23681  -1.21016  -1.20803  -1.20626  -1.20377
 Alpha  occ. eigenvalues --   -1.20121  -1.19561  -1.12443  -1.05474  -1.01514
 Alpha  occ. eigenvalues --   -0.89722  -0.86718  -0.63915  -0.53425  -0.51605
 Alpha  occ. eigenvalues --   -0.50595  -0.47028  -0.44589  -0.42847  -0.41262
 Alpha  occ. eigenvalues --   -0.38430  -0.33903  -0.32804  -0.32485  -0.31766
 Alpha  occ. eigenvalues --   -0.30861  -0.30583
 Alpha virt. eigenvalues --   -0.20706  -0.18578  -0.17494  -0.12515  -0.12233
 Alpha virt. eigenvalues --   -0.10368  -0.09895  -0.09383  -0.08639  -0.08230
 Alpha virt. eigenvalues --   -0.07493  -0.07341  -0.07103  -0.05903  -0.05761
 Alpha virt. eigenvalues --   -0.05299  -0.04963  -0.04664  -0.04349  -0.03952
 Alpha virt. eigenvalues --   -0.03832  -0.03814  -0.03390  -0.03151  -0.03009
 Alpha virt. eigenvalues --   -0.02889  -0.01768  -0.00415   0.00352   0.00962
 Alpha virt. eigenvalues --    0.02305   0.03253   0.03790   0.04214   0.04337
 Alpha virt. eigenvalues --    0.04824   0.05003   0.05485   0.05952   0.06538
 Alpha virt. eigenvalues --    0.06715   0.07341   0.07774   0.08420   0.09490
 Alpha virt. eigenvalues --    0.09868   0.10223   0.11076   0.11268   0.11861
 Alpha virt. eigenvalues --    0.12376   0.12960   0.14487   0.14813   0.16939
 Alpha virt. eigenvalues --    0.17636   0.18280   0.19965   0.21739   0.21828
 Alpha virt. eigenvalues --    0.23283   0.24703   0.25260   0.25809   0.26643
 Alpha virt. eigenvalues --    0.27713   0.28450   0.29555   0.31030   0.31916
 Alpha virt. eigenvalues --    0.32692   0.33397   0.37176   0.37476   0.38652
 Alpha virt. eigenvalues --    0.41368   0.43221   0.45122   0.47774   0.51444
 Alpha virt. eigenvalues --    0.53417   0.60319   0.60955   0.64304   0.66841
 Alpha virt. eigenvalues --    0.73902   0.80069   0.86649   0.92348   0.96938
 Alpha virt. eigenvalues --    1.02507   1.12376   1.13357   1.14326   1.15159
 Alpha virt. eigenvalues --    1.16668   1.17303   1.19232   1.20015   1.22067
 Alpha virt. eigenvalues --    1.22682   1.25714   1.27691   1.29459   1.31628
 Alpha virt. eigenvalues --    1.37646   1.45647   1.48884   1.54193   1.57194
 Alpha virt. eigenvalues --    1.58051   1.59631   1.68738   1.73421   1.74937
 Alpha virt. eigenvalues --    1.75217   1.76890   1.79713   1.82167   1.84642
 Alpha virt. eigenvalues --    1.84883   1.85210   1.88041   1.90355   1.90975
 Alpha virt. eigenvalues --    1.94308   1.96130   1.97369   2.03028   2.03306
 Alpha virt. eigenvalues --    2.23376   2.25608   2.35375   2.47577   2.68627
 Alpha virt. eigenvalues --    3.09649   3.51660   3.96260   3.98231   4.04433
 Alpha virt. eigenvalues --    4.11544   4.21277
          Condensed to atoms (all electrons):
              1          2          3          4          5          6
     1  O    9.066455   0.104844  -0.001928   0.004752   0.125476  -0.556768
     2  O    0.104844   8.460440   0.006018   0.041599  -0.019784  -0.114493
     3  O   -0.001928   0.006018   8.381317   0.164376   0.053655  -0.078864
     4  Ca   0.004752   0.041599   0.164376  18.281338   0.065555  -0.010931
     5  O    0.125476  -0.019784   0.053655   0.065555   9.306863  -0.614112
     6  P   -0.556768  -0.114493  -0.078864  -0.010931  -0.614112  15.713489
     7  Ca   0.099943   0.005521   0.002115  -0.001868   0.014037  -0.042181
     8  O    0.007871   0.002465   0.000409   0.000104   0.010448  -0.036734
     9  Ca   0.032561   0.014308   0.002968  -0.008771   0.097469  -0.072272
              7          8          9
     1  O    0.099943   0.007871   0.032561
     2  O    0.005521   0.002465   0.014308
     3  O    0.002115   0.000409   0.002968
     4  Ca  -0.001868   0.000104  -0.008771
     5  O    0.014037   0.010448   0.097469
     6  P   -0.042181  -0.036734  -0.072272
     7  Ca  18.273611   0.216391  -0.008801
     8  O    0.216391   8.757336   0.228710
     9  Ca  -0.008801   0.228710  18.290974
 Mulliken atomic charges:
              1
     1  O   -0.883206
     2  O   -0.500918
     3  O   -0.530066
     4  Ca   1.463845
     5  O   -1.039607
     6  P    0.812865
     7  Ca   1.441234
     8  O   -1.187001
     9  Ca   1.422853
 Sum of Mulliken charges=   1.00000
 Atomic charges with hydrogens summed into heavy atoms:
              1
     1  O   -0.883206
     2  O   -0.500918
     3  O   -0.530066
     4  Ca   1.463845
     5  O   -1.039607
     6  P    0.812865
     7  Ca   1.441234
     8  O   -1.187001
     9  Ca   1.422853
 Sum of Mulliken charges=   1.00000
 Electronic spatial extent (au):  <R**2>=  2685.8529
 Charge=     1.0000 electrons
 Dipole moment (field-independent basis, Debye):
    X=     0.3947    Y=     5.2319    Z=    -8.2441  Tot=     9.7721
 Quadrupole moment (field-independent basis, Debye-Ang):
   XX=   -42.2241   YY=   -46.7539   ZZ=   -72.5142
   XY=   -32.6972   XZ=    26.1350   YZ=     7.1034
 Traceless Quadrupole moment (field-independent basis, Debye-Ang):
   XX=    11.6066   YY=     7.0768   ZZ=   -18.6834
   XY=   -32.6972   XZ=    26.1350   YZ=     7.1034
 Octapole moment (field-independent basis, Debye-Ang**2):
  XXX=   -81.2786  YYY=    67.7362  ZZZ=   -34.3895  XYY=    68.9488
  XXY=   -53.4346  XXZ=  -105.9668  XZZ=    -7.3000  YZZ=     5.5308
  YYZ=     0.5557  XYZ=    20.2497
 Hexadecapole moment (field-independent basis, Debye-Ang**3):
 XXXX= -1872.4183 YYYY=  -505.1957 ZZZZ=  -258.6617 XXXY=  -495.3610
 XXXZ=   259.7315 YYYX=   -32.3540 YYYZ=    38.1333 ZZZX=    71.9816
 ZZZY=    16.6053 XXYY=  -319.4689 XXZZ=  -336.8359 YYZZ=  -139.0809
 XXYZ=    38.4788 YYXZ=    20.3994 ZZXY=   -32.8259
 N-N= 9.770304271527D+02 E-N=-8.456013127638D+03  KE= 2.742141860714D+03
 Merz-Kollman atomic radii used.
 Read replacement radii for each type of atom:
 Rad(20) =   1.188000000000D+00
 Atom Element Radius
    1     8    1.40
    2     8    1.40
    3     8    1.40
    4    20    1.19
    5     8    1.40
    6    15    1.80
    7    20    1.19
    8     8    1.40
    9    20    1.19

 **********************************************************************

            Electrostatic Properties Using The SCF Density

 **********************************************************************

       Atomic Center    1 is at   0.468355 -1.517540 -0.136480
       Atomic Center    2 is at  -1.944406 -1.258894  0.458640
       Atomic Center    3 is at  -3.013067 -0.401216  1.131020
       Atomic Center    4 is at  -2.784089  0.362564 -0.918960
       Atomic Center    5 is at  -0.649030  0.845398 -0.285470
       Atomic Center    6 is at  -0.415887 -0.530392  0.716620
       Atomic Center    7 is at   2.687004 -1.324716 -0.354740
       Atomic Center    8 is at   2.966351  0.762414 -0.080450
       Atomic Center    9 is at   1.277718  1.987881  0.301330
     799 points will be used for fitting atomic charges
 Fitting point charges to eletrostatic potential
 Charges from ESP fit, RMS=   0.00717 RRMS=   0.04580:
 Charge=   1.00000 Dipole=     0.4135     5.2691    -8.5079 Tot=    10.0160
              1
     1  O   -0.724622
     2  O   -0.124946
     3  O   -0.656467
     4  Ca   1.622254
     5  O   -1.046307
     6  P    0.126022
     7  Ca   1.659182
     8  O   -1.509491
     9  Ca   1.654375
 -----------------------------------------------------------------

              Electrostatic Properties (Atomic Units)

 -----------------------------------------------------------------
    Center     Electric         -------- Electric Field --------
               Potential          X             Y             Z
 -----------------------------------------------------------------
    1 Atom    -22.253365
    2 Atom    -22.191597
    3 Atom    -22.252235
    4 Atom    -80.016173
    5 Atom    -22.234252
    6 Atom    -53.956714
    7 Atom    -80.055045
    8 Atom    -22.338395
    9 Atom    -80.050920
 -----------------------------------------------------------------
 1\1\GINC-N025\SP\RB3LYP\6-31+G(d,p)\Ca3O5P1(1+)\TIMN\12-Jun-2015\0\\# 
 b3lyp/6-31+G(d,p) int=ultrafine pop=(ReadRadii,MK)\\mol_17.26.50.pdbcc
 c_plusQ.z58462.zip.xyz\\1,1\O,0,0.46835,-1.51754,-0.13648\O,0,-1.94441
 ,-1.25889,0.45864\O,0,-3.01307,-0.40121,1.13102\Ca,0,-2.78409,0.36257,
 -0.91896\O,0,-0.64903,0.8454,-0.28547\P,0,-0.41589,-0.53039,0.71662\Ca
 ,0,2.687,-1.32472,-0.35474\O,0,2.96635,0.76241,-0.08045\Ca,0,1.27772,1
 .98788,0.30133\\Version=EM64T-G03RevE.01\State=1-A\HF=-2750.1238597\RM
 SD=4.973e-05\Thermal=0.\Dipole=0.1552821,2.0583921,-3.2434596\PG=C01 [
 X(Ca3O5P1)]\\@


 10 WHATSOEVER THY HAND FINDETH TO DO, DO IT WITH THY  
 MIGHT. FOR THERE IS NO WORK, NOR DEVICE, NOR KNOWLEDGE, NOR  
 WISDOM, IN THE GRAVE, WHITHER THOU GOEST.                    
 11 I RETURNED AND SAW UNDER THE SUN, THAT THE RACE IS NOT TO 
 THE SWIFT, NOR THE BATTLE TO THE STRONG, NEITHER YET BREAD TO
 THE WISE, NOR YET RICHES TO MEN OF UNDERSTANDING, NOR YET    
 FAVOR TO MEN OF SKILL. BUT TIME AND CHANCE HAPPEN TO THEM ALL.
 12 FOR MAN ALSO KNOWETH NOT HIS TIME. AS THE FISHES   
 THAT ARE TAKEN IN AN EVIL NET, AND AS THE BIRDS THAT ARE     
 CAUGHT IN THE SNARE. SO ARE THE SONS OF MEN SNARED IN AN EVIL
 TIME, WHEN IT FALLETH SUDDENLY UPON THEM.
                                         ECCLESIASTES 9
 Job cpu time:  0 days  0 hours  2 minutes 14.0 seconds.
 File lengths (MBytes):  RWF=     36 Int=      0 D2E=      0 Chk=     11 Scr=      1
 Normal termination of Gaussian 03 at Fri Jun 12 18:01:56 2015.
