 Entering Gaussian System, Link 0=/home/timn/tmp/g03.e01/g03
 Input=mol_16.4.22.pdbc_plusQ.out.z51573.zip.xyz.gjf
 Output=mol_16.4.22.pdbc_plusQ.out.z51573.zip.xyz.out
 Initial command:
 /home/timn/tmp/g03.e01/l1.exe /home/timn/tmp/g03.e01/Gau-17631.inp -scrdir=/home/timn/tmp/g03.e01/
 Default is to use a total of   2 processors:
                                2 via shared-memory
                                1 via Linda
 Entering Link 1 = /home/timn/tmp/g03.e01/l1.exe PID=     17633.
  
 Copyright (c) 1988,1990,1992,1993,1995,1998,2003,2004,2007, Gaussian, Inc.
                  All Rights Reserved.
  
 This is the Gaussian(R) 03 program.  It is based on the
 the Gaussian(R) 98 system (copyright 1998, Gaussian, Inc.),
 the Gaussian(R) 94 system (copyright 1995, Gaussian, Inc.),
 the Gaussian 92(TM) system (copyright 1992, Gaussian, Inc.),
 the Gaussian 90(TM) system (copyright 1990, Gaussian, Inc.),
 the Gaussian 88(TM) system (copyright 1988, Gaussian, Inc.),
 the Gaussian 86(TM) system (copyright 1986, Carnegie Mellon
 University), and the Gaussian 82(TM) system (copyright 1983,
 Carnegie Mellon University). Gaussian is a federally registered
 trademark of Gaussian, Inc.
  
 This software contains proprietary and confidential information,
 including trade secrets, belonging to Gaussian, Inc.
  
 This software is provided under written license and may be
 used, copied, transmitted, or stored only in accord with that
 written license.
  
 The following legend is applicable only to US Government
 contracts under FAR:
  
                    RESTRICTED RIGHTS LEGEND
  
 Use, reproduction and disclosure by the US Government is
 subject to restrictions as set forth in subparagraphs (a)
 and (c) of the Commercial Computer Software - Restricted
 Rights clause in FAR 52.227-19.
  
 Gaussian, Inc.
 340 Quinnipiac St., Bldg. 40, Wallingford CT 06492
  
  
 ---------------------------------------------------------------
 Warning -- This program may not be used in any manner that
 competes with the business of Gaussian, Inc. or will provide
 assistance to any competitor of Gaussian, Inc.  The licensee
 of this program is prohibited from giving any competitor of
 Gaussian, Inc. access to this program.  By using this program,
 the user acknowledges that Gaussian, Inc. is engaged in the
 business of creating and licensing software in the field of
 computational chemistry and represents and warrants to the
 licensee that it is not a competitor of Gaussian, Inc. and that
 it will not use this program in any manner prohibited above.
 ---------------------------------------------------------------
  

 Cite this work as:
 Gaussian 03, Revision E.01,
 M. J. Frisch, G. W. Trucks, H. B. Schlegel, G. E. Scuseria, 
 M. A. Robb, J. R. Cheeseman, J. A. Montgomery, Jr., T. Vreven, 
 K. N. Kudin, J. C. Burant, J. M. Millam, S. S. Iyengar, J. Tomasi, 
 V. Barone, B. Mennucci, M. Cossi, G. Scalmani, N. Rega, 
 G. A. Petersson, H. Nakatsuji, M. Hada, M. Ehara, K. Toyota, 
 R. Fukuda, J. Hasegawa, M. Ishida, T. Nakajima, Y. Honda, O. Kitao, 
 H. Nakai, M. Klene, X. Li, J. E. Knox, H. P. Hratchian, J. B. Cross, 
 V. Bakken, C. Adamo, J. Jaramillo, R. Gomperts, R. E. Stratmann, 
 O. Yazyev, A. J. Austin, R. Cammi, C. Pomelli, J. W. Ochterski, 
 P. Y. Ayala, K. Morokuma, G. A. Voth, P. Salvador, J. J. Dannenberg, 
 V. G. Zakrzewski, S. Dapprich, A. D. Daniels, M. C. Strain, 
 O. Farkas, D. K. Malick, A. D. Rabuck, K. Raghavachari, 
 J. B. Foresman, J. V. Ortiz, Q. Cui, A. G. Baboul, S. Clifford, 
 J. Cioslowski, B. B. Stefanov, G. Liu, A. Liashenko, P. Piskorz, 
 I. Komaromi, R. L. Martin, D. J. Fox, T. Keith, M. A. Al-Laham, 
 C. Y. Peng, A. Nanayakkara, M. Challacombe, P. M. W. Gill, 
 B. Johnson, W. Chen, M. W. Wong, C. Gonzalez, and J. A. Pople, 
 Gaussian, Inc., Wallingford CT, 2004.
 
 ******************************************
 Gaussian 03:  EM64T-G03RevE.01 11-Sep-2007
                12-Jun-2015 
 ******************************************
 %nproc=2
 Will use up to    2 processors via shared memory.
 Default route:  MP2=Direct MaxDisk=2000MB
 ----------------------------------------------------
 # b3lyp/6-31+G(d,p) int=ultrafine pop=(ReadRadii,MK)
 ----------------------------------------------------

 Warning!  SCF SP cutoffs with diffuse functions may be unreliable.
 Consider SCF=Tight

 1/38=1/1;
 2/17=6,18=5,40=1/2;
 3/5=1,6=6,7=111,11=2,16=1,25=1,30=1,74=-5,75=5/1,2,3;
 4//1;
 5/5=2,32=1,38=5/2;
 6/7=2,8=2,9=2,10=2,15=8,20=101,28=1/1,2;
 99/5=1,9=1/99;
 -----------------------------------------
 mol_16.4.22.pdbc_plusQ.out.z51573.zip.xyz
 -----------------------------------------
 Symbolic Z-matrix:
 Charge =  1 Multiplicity = 1
 O                    -1.89609  -0.76027   0.79184 
 O                    -1.78146  -0.87465  -0.77184 
 O                     1.47793  -0.08296   0.1995 
 P                     1.48903   1.45961   0.08818 
 O                     0.05112   2.01113  -0.05599 
 Ca                   -0.0136   -1.8082    0.21676 
 Ca                   -2.0954    1.24773  -0.15881 
 
                          Input orientation:                          
 ---------------------------------------------------------------------
 Center     Atomic     Atomic              Coordinates (Angstroms)
 Number     Number      Type              X           Y           Z
 ---------------------------------------------------------------------
    1          8             0       -1.896090   -0.760270    0.791840
    2          8             0       -1.781460   -0.874650   -0.771840
    3          8             0        1.477930   -0.082960    0.199500
    4         15             0        1.489030    1.459610    0.088180
    5          8             0        0.051120    2.011130   -0.055990
    6         20             0       -0.013600   -1.808200    0.216760
    7         20             0       -2.095400    1.247730   -0.158810
 ---------------------------------------------------------------------
                    Distance matrix (angstroms):
                    1          2          3          4          5
     1  O    0.000000
     2  O    1.572043   0.000000
     3  O    3.491937   3.491976   0.000000
     4  P    4.108776   4.109076   1.546621   0.000000
     5  O    3.491576   3.492638   2.546817   1.546785   0.000000
     6  Ca   2.229942   2.230286   2.280661   3.599029   3.829603
     7  Ca   2.230588   2.231336   3.829858   3.599172   2.280548
                    6          7
     6  Ca   0.000000
     7  Ca   3.716672   0.000000
 Stoichiometry    Ca2O4P(1+)
 Framework group  C1[X(Ca2O4P)]
 Deg. of freedom    15
 Full point group                 C1
 Largest Abelian subgroup         C1      NOp   1
 Largest concise Abelian subgroup C1      NOp   1
                         Standard orientation:                         
 ---------------------------------------------------------------------
 Center     Atomic     Atomic              Coordinates (Angstroms)
 Number     Number      Type              X           Y           Z
 ---------------------------------------------------------------------
    1          8             0        1.712622    0.000298   -0.785619
    2          8             0        1.712910   -0.000156    0.786424
    3          8             0       -1.442124   -1.273744    0.000527
    4         15             0       -2.320278   -0.000605    0.000356
    5          8             0       -1.442618    1.273072   -0.001011
    6         20             0        0.762429   -1.858003   -0.000447
    7         20             0        0.761464    1.858669    0.000052
 ---------------------------------------------------------------------
 Rotational constants (GHZ):      1.4536895      1.2850188      0.7205193
 Standard basis: 6-31+G(d,p) (6D, 7F)
 There are   153 symmetry adapted basis functions of A   symmetry.
 Integral buffers will be    131072 words long.
 Raffenetti 2 integral format.
 Two-electron integral symmetry is turned on.
   153 basis functions,   344 primitive gaussians,   153 cartesian basis functions
    43 alpha electrons       43 beta electrons
       nuclear repulsion energy       602.1279642403 Hartrees.
 NAtoms=    7 NActive=    7 NUniq=    7 SFac= 7.50D-01 NAtFMM=   80 NAOKFM=F Big=F
 One-electron integrals computed using PRISM.
 NBasis=   153 RedAO= T  NBF=   153
 NBsUse=   153 1.00D-06 NBFU=   153
 Harris functional with IExCor=  402 diagonalized for initial guess.
 ExpMin= 7.10D-03 ExpMax= 3.53D+04 ExpMxC= 5.30D+03 IAcc=3 IRadAn=         5 AccDes= 0.00D+00
 HarFok:  IExCor= 402 AccDes= 0.00D+00 IRadAn=         5 IDoV=1
 ScaDFX=  1.000000  1.000000  1.000000  1.000000
 Initial guess orbital symmetries:
       Occupied  (A) (A) (A) (A) (A) (A) (A) (A) (A) (A) (A) (A)
                 (A) (A) (A) (A) (A) (A) (A) (A) (A) (A) (A) (A)
                 (A) (A) (A) (A) (A) (A) (A) (A) (A) (A) (A) (A)
                 (A) (A) (A) (A) (A) (A) (A)
       Virtual   (A) (A) (A) (A) (A) (A) (A) (A) (A) (A) (A) (A)
                 (A) (A) (A) (A) (A) (A) (A) (A) (A) (A) (A) (A)
                 (A) (A) (A) (A) (A) (A) (A) (A) (A) (A) (A) (A)
                 (A) (A) (A) (A) (A) (A) (A) (A) (A) (A) (A) (A)
                 (A) (A) (A) (A) (A) (A) (A) (A) (A) (A) (A) (A)
                 (A) (A) (A) (A) (A) (A) (A) (A) (A) (A) (A) (A)
                 (A) (A) (A) (A) (A) (A) (A) (A) (A) (A) (A) (A)
                 (A) (A) (A) (A) (A) (A) (A) (A) (A) (A) (A) (A)
                 (A) (A) (A) (A) (A) (A) (A) (A) (A) (A) (A) (A)
                 (A) (A)
 The electronic state of the initial guess is 1-A.
 Requested convergence on RMS density matrix=1.00D-04 within 128 cycles.
 Requested convergence on MAX density matrix=1.00D-02.
 Requested convergence on             energy=1.00D-02.
 No special actions if energy rises.
 SCF Done:  E(RB+HF-LYP) =  -1997.33372398     A.U. after    6 cycles
             Convg  =    0.4439D-04             -V/T =  2.0031
             S**2   =   0.0000

 **********************************************************************

            Population analysis using the SCF density.

 **********************************************************************

 Orbital symmetries:
       Occupied  (A) (A) (A) (A) (A) (A) (A) (A) (A) (A) (A) (A)
                 (A) (A) (A) (A) (A) (A) (A) (A) (A) (A) (A) (A)
                 (A) (A) (A) (A) (A) (A) (A) (A) (A) (A) (A) (A)
                 (A) (A) (A) (A) (A) (A) (A)
       Virtual   (A) (A) (A) (A) (A) (A) (A) (A) (A) (A) (A) (A)
                 (A) (A) (A) (A) (A) (A) (A) (A) (A) (A) (A) (A)
                 (A) (A) (A) (A) (A) (A) (A) (A) (A) (A) (A) (A)
                 (A) (A) (A) (A) (A) (A) (A) (A) (A) (A) (A) (A)
                 (A) (A) (A) (A) (A) (A) (A) (A) (A) (A) (A) (A)
                 (A) (A) (A) (A) (A) (A) (A) (A) (A) (A) (A) (A)
                 (A) (A) (A) (A) (A) (A) (A) (A) (A) (A) (A) (A)
                 (A) (A) (A) (A) (A) (A) (A) (A) (A) (A) (A) (A)
                 (A) (A) (A) (A) (A) (A) (A) (A) (A) (A) (A) (A)
                 (A) (A)
 The electronic state is 1-A.
 Alpha  occ. eigenvalues -- -145.53251-145.53238 -77.30156 -19.27969 -19.27915
 Alpha  occ. eigenvalues --  -19.25622 -19.25546 -15.60097 -15.60086 -12.73312
 Alpha  occ. eigenvalues --  -12.73300 -12.73294 -12.73282 -12.73211 -12.73200
 Alpha  occ. eigenvalues --   -6.75637  -4.92077  -4.91861  -4.91417  -1.97235
 Alpha  occ. eigenvalues --   -1.97207  -1.25766  -1.24804  -1.24789  -1.24723
 Alpha  occ. eigenvalues --   -1.24722  -1.24301  -1.13910  -1.08540  -1.08259
 Alpha  occ. eigenvalues --   -0.89515  -0.67696  -0.57269  -0.52811  -0.52588
 Alpha  occ. eigenvalues --   -0.48998  -0.47950  -0.46124  -0.45748  -0.43886
 Alpha  occ. eigenvalues --   -0.40696  -0.37189  -0.34161
 Alpha virt. eigenvalues --   -0.20456  -0.19848  -0.19631  -0.14475  -0.11367
 Alpha virt. eigenvalues --   -0.11278  -0.10320  -0.09665  -0.09033  -0.07376
 Alpha virt. eigenvalues --   -0.07214  -0.06432  -0.05961  -0.05214  -0.04857
 Alpha virt. eigenvalues --   -0.04431  -0.04388  -0.04083  -0.03996  -0.03871
 Alpha virt. eigenvalues --   -0.03337  -0.02376   0.00222   0.01114   0.02012
 Alpha virt. eigenvalues --    0.02951   0.03329   0.03646   0.04211   0.05048
 Alpha virt. eigenvalues --    0.05153   0.05191   0.06785   0.07028   0.07281
 Alpha virt. eigenvalues --    0.07480   0.08121   0.08219   0.12232   0.13583
 Alpha virt. eigenvalues --    0.14156   0.14772   0.16276   0.16815   0.16921
 Alpha virt. eigenvalues --    0.18687   0.20335   0.21717   0.24410   0.26746
 Alpha virt. eigenvalues --    0.28313   0.29474   0.31803   0.32165   0.32490
 Alpha virt. eigenvalues --    0.36025   0.36756   0.40426   0.43960   0.45536
 Alpha virt. eigenvalues --    0.48017   0.56603   0.57828   0.60203   0.65643
 Alpha virt. eigenvalues --    0.71393   0.87006   0.90187   0.94382   1.03572
 Alpha virt. eigenvalues --    1.05871   1.07982   1.08401   1.12008   1.12325
 Alpha virt. eigenvalues --    1.14817   1.15171   1.17898   1.20715   1.23941
 Alpha virt. eigenvalues --    1.28604   1.38359   1.43014   1.46788   1.50562
 Alpha virt. eigenvalues --    1.50919   1.58058   1.66245   1.68031   1.70657
 Alpha virt. eigenvalues --    1.71286   1.75774   1.80026   1.81225   1.82398
 Alpha virt. eigenvalues --    1.84419   1.85978   1.86066   1.92943   2.09464
 Alpha virt. eigenvalues --    2.16231   2.16996   2.53528   2.67513   3.00325
 Alpha virt. eigenvalues --    3.38488   3.83798   3.90585   3.97515   4.05878
          Condensed to atoms (all electrons):
              1          2          3          4          5          6
     1  O    8.516521  -0.059748   0.002538  -0.004383   0.002555   0.105937
     2  O   -0.059748   8.514726   0.002557  -0.004365   0.002523   0.106024
     3  O    0.002538   0.002557   8.815888  -0.094375  -0.086061   0.067373
     4  P   -0.004383  -0.004365  -0.094375  14.566170  -0.093748  -0.019074
     5  O    0.002555   0.002523  -0.086061  -0.093748   8.814576   0.002349
     6  Ca   0.105937   0.106024   0.067373  -0.019074   0.002349  18.210113
     7  Ca   0.105838   0.106050   0.002347  -0.019081   0.067480  -0.016664
              7
     1  O    0.105838
     2  O    0.106050
     3  O    0.002347
     4  P   -0.019081
     5  O    0.067480
     6  Ca  -0.016664
     7  Ca  18.209857
 Mulliken atomic charges:
              1
     1  O   -0.669259
     2  O   -0.667768
     3  O   -0.710268
     4  P    0.668856
     5  O   -0.709675
     6  Ca   1.543942
     7  Ca   1.544173
 Sum of Mulliken charges=   1.00000
 Atomic charges with hydrogens summed into heavy atoms:
              1
     1  O   -0.669259
     2  O   -0.667768
     3  O   -0.710268
     4  P    0.668856
     5  O   -0.709675
     6  Ca   1.543942
     7  Ca   1.544173
 Sum of Mulliken charges=   1.00000
 Electronic spatial extent (au):  <R**2>=  1378.3761
 Charge=     1.0000 electrons
 Dipole moment (field-independent basis, Debye):
    X=     3.1494    Y=     0.0098    Z=     0.0027  Tot=     3.1494
 Quadrupole moment (field-independent basis, Debye-Ang):
   XX=   -66.4797   YY=    -8.8728   ZZ=   -58.2525
   XY=    -0.0143   XZ=     0.0022   YZ=     0.0160
 Traceless Quadrupole moment (field-independent basis, Debye-Ang):
   XX=   -21.9447   YY=    35.6622   ZZ=   -13.7175
   XY=    -0.0143   XZ=     0.0022   YZ=     0.0160
 Octapole moment (field-independent basis, Debye-Ang**2):
  XXX=    -6.8838  YYY=     0.0903  ZZZ=    -0.0096  XYY=    70.9063
  XXY=    -0.0202  XXZ=     0.0015  XZZ=    -1.4057  YZZ=     0.0012
  YYZ=    -0.0154  XYZ=    -0.0023
 Hexadecapole moment (field-independent basis, Debye-Ang**3):
 XXXX=  -942.7983 YYYY=  -329.5301 ZZZZ=  -103.9357 XXXY=    -0.0470
 XXXZ=     0.0112 YYYX=    -0.0438 YYYZ=     0.0626 ZZZX=    -0.0062
 ZZZY=     0.0232 XXYY=  -220.7015 XXZZ=  -174.4700 YYZZ=  -103.3885
 XXYZ=     0.0287 YYXZ=    -0.0243 ZZXY=    -0.0055
 N-N= 6.021279642403D+02 E-N=-5.923693150755D+03  KE= 1.991110141746D+03
 Merz-Kollman atomic radii used.
 Read replacement radii for each type of atom:
 Rad(20) =   1.188000000000D+00
 Atom Element Radius
    1     8    1.40
    2     8    1.40
    3     8    1.40
    4    15    1.80
    5     8    1.40
    6    20    1.19
    7    20    1.19

 **********************************************************************

            Electrostatic Properties Using The SCF Density

 **********************************************************************

       Atomic Center    1 is at   1.712622  0.000298 -0.785619
       Atomic Center    2 is at   1.712910 -0.000156  0.786424
       Atomic Center    3 is at  -1.442124 -1.273744  0.000527
       Atomic Center    4 is at  -2.320278 -0.000605  0.000356
       Atomic Center    5 is at  -1.442618  1.273072 -0.001011
       Atomic Center    6 is at   0.762429 -1.858003 -0.000447
       Atomic Center    7 is at   0.761464  1.858669  0.000052
     712 points will be used for fitting atomic charges
 Fitting point charges to eletrostatic potential
 Charges from ESP fit, RMS=   0.00428 RRMS=   0.02803:
 Charge=   1.00000 Dipole=     3.0031     0.0098     0.0034 Tot=     3.0031
              1
     1  O   -0.788269
     2  O   -0.786442
     3  O   -0.752195
     4  P    0.634002
     5  O   -0.751531
     6  Ca   1.722206
     7  Ca   1.722228
 -----------------------------------------------------------------

              Electrostatic Properties (Atomic Units)

 -----------------------------------------------------------------
    Center     Electric         -------- Electric Field --------
               Potential          X             Y             Z
 -----------------------------------------------------------------
    1 Atom    -22.215202
    2 Atom    -22.212905
    3 Atom    -22.184933
    4 Atom    -53.916406
    5 Atom    -22.183481
    6 Atom    -80.008082
    7 Atom    -80.007864
 -----------------------------------------------------------------
 1\1\GINC-N025\SP\RB3LYP\6-31+G(d,p)\Ca2O4P1(1+)\TIMN\12-Jun-2015\0\\# 
 b3lyp/6-31+G(d,p) int=ultrafine pop=(ReadRadii,MK)\\mol_16.4.22.pdbc_p
 lusQ.out.z51573.zip.xyz\\1,1\O,0,-1.89609,-0.76027,0.79184\O,0,-1.7814
 6,-0.87465,-0.77184\O,0,1.47793,-0.08296,0.1995\P,0,1.48903,1.45961,0.
 08818\O,0,0.05112,2.01113,-0.05599\Ca,0,-0.0136,-1.8082,0.21676\Ca,0,-
 2.0954,1.24773,-0.15881\\Version=EM64T-G03RevE.01\State=1-A\HF=-1997.3
 33724\RMSD=4.439e-05\Thermal=0.\Dipole=-1.024373,-0.696657,-0.0254451\
 PG=C01 [X(Ca2O4P1)]\\@


 THERE'S SMALL CHOICE IN A BOWL OF ROTTEN APPLES.
                     SHAKESPEARE
 Job cpu time:  0 days  0 hours  0 minutes 44.0 seconds.
 File lengths (MBytes):  RWF=     28 Int=      0 D2E=      0 Chk=     10 Scr=      1
 Normal termination of Gaussian 03 at Fri Jun 12 17:48:08 2015.
