 Entering Gaussian System, Link 0=/home/timn/tmp/g03.e01/g03
 Input=mol_16.5.1.pdbc_plusQ.out.z51626.zip.xyz.gjf
 Output=mol_16.5.1.pdbc_plusQ.out.z51626.zip.xyz.out
 Initial command:
 /home/timn/tmp/g03.e01/l1.exe /home/timn/tmp/g03.e01/Gau-17938.inp -scrdir=/home/timn/tmp/g03.e01/
 Default is to use a total of   2 processors:
                                2 via shared-memory
                                1 via Linda
 Entering Link 1 = /home/timn/tmp/g03.e01/l1.exe PID=     17939.
  
 Copyright (c) 1988,1990,1992,1993,1995,1998,2003,2004,2007, Gaussian, Inc.
                  All Rights Reserved.
  
 This is the Gaussian(R) 03 program.  It is based on the
 the Gaussian(R) 98 system (copyright 1998, Gaussian, Inc.),
 the Gaussian(R) 94 system (copyright 1995, Gaussian, Inc.),
 the Gaussian 92(TM) system (copyright 1992, Gaussian, Inc.),
 the Gaussian 90(TM) system (copyright 1990, Gaussian, Inc.),
 the Gaussian 88(TM) system (copyright 1988, Gaussian, Inc.),
 the Gaussian 86(TM) system (copyright 1986, Carnegie Mellon
 University), and the Gaussian 82(TM) system (copyright 1983,
 Carnegie Mellon University). Gaussian is a federally registered
 trademark of Gaussian, Inc.
  
 This software contains proprietary and confidential information,
 including trade secrets, belonging to Gaussian, Inc.
  
 This software is provided under written license and may be
 used, copied, transmitted, or stored only in accord with that
 written license.
  
 The following legend is applicable only to US Government
 contracts under FAR:
  
                    RESTRICTED RIGHTS LEGEND
  
 Use, reproduction and disclosure by the US Government is
 subject to restrictions as set forth in subparagraphs (a)
 and (c) of the Commercial Computer Software - Restricted
 Rights clause in FAR 52.227-19.
  
 Gaussian, Inc.
 340 Quinnipiac St., Bldg. 40, Wallingford CT 06492
  
  
 ---------------------------------------------------------------
 Warning -- This program may not be used in any manner that
 competes with the business of Gaussian, Inc. or will provide
 assistance to any competitor of Gaussian, Inc.  The licensee
 of this program is prohibited from giving any competitor of
 Gaussian, Inc. access to this program.  By using this program,
 the user acknowledges that Gaussian, Inc. is engaged in the
 business of creating and licensing software in the field of
 computational chemistry and represents and warrants to the
 licensee that it is not a competitor of Gaussian, Inc. and that
 it will not use this program in any manner prohibited above.
 ---------------------------------------------------------------
  

 Cite this work as:
 Gaussian 03, Revision E.01,
 M. J. Frisch, G. W. Trucks, H. B. Schlegel, G. E. Scuseria, 
 M. A. Robb, J. R. Cheeseman, J. A. Montgomery, Jr., T. Vreven, 
 K. N. Kudin, J. C. Burant, J. M. Millam, S. S. Iyengar, J. Tomasi, 
 V. Barone, B. Mennucci, M. Cossi, G. Scalmani, N. Rega, 
 G. A. Petersson, H. Nakatsuji, M. Hada, M. Ehara, K. Toyota, 
 R. Fukuda, J. Hasegawa, M. Ishida, T. Nakajima, Y. Honda, O. Kitao, 
 H. Nakai, M. Klene, X. Li, J. E. Knox, H. P. Hratchian, J. B. Cross, 
 V. Bakken, C. Adamo, J. Jaramillo, R. Gomperts, R. E. Stratmann, 
 O. Yazyev, A. J. Austin, R. Cammi, C. Pomelli, J. W. Ochterski, 
 P. Y. Ayala, K. Morokuma, G. A. Voth, P. Salvador, J. J. Dannenberg, 
 V. G. Zakrzewski, S. Dapprich, A. D. Daniels, M. C. Strain, 
 O. Farkas, D. K. Malick, A. D. Rabuck, K. Raghavachari, 
 J. B. Foresman, J. V. Ortiz, Q. Cui, A. G. Baboul, S. Clifford, 
 J. Cioslowski, B. B. Stefanov, G. Liu, A. Liashenko, P. Piskorz, 
 I. Komaromi, R. L. Martin, D. J. Fox, T. Keith, M. A. Al-Laham, 
 C. Y. Peng, A. Nanayakkara, M. Challacombe, P. M. W. Gill, 
 B. Johnson, W. Chen, M. W. Wong, C. Gonzalez, and J. A. Pople, 
 Gaussian, Inc., Wallingford CT, 2004.
 
 ******************************************
 Gaussian 03:  EM64T-G03RevE.01 11-Sep-2007
                12-Jun-2015 
 ******************************************
 %nproc=2
 Will use up to    2 processors via shared memory.
 Default route:  MP2=Direct MaxDisk=2000MB
 ----------------------------------------------------
 # b3lyp/6-31+G(d,p) int=ultrafine pop=(ReadRadii,MK)
 ----------------------------------------------------

 Warning!  SCF SP cutoffs with diffuse functions may be unreliable.
 Consider SCF=Tight

 1/38=1/1;
 2/17=6,18=5,40=1/2;
 3/5=1,6=6,7=111,11=2,16=1,25=1,30=1,74=-5,75=5/1,2,3;
 4//1;
 5/5=2,32=1,38=5/2;
 6/7=2,8=2,9=2,10=2,15=8,20=101,28=1/1,2;
 99/5=1,9=1/99;
 ----------------------------------------
 mol_16.5.1.pdbc_plusQ.out.z51626.zip.xyz
 ----------------------------------------
 Symbolic Z-matrix:
 Charge =  1 Multiplicity = 1
 O                    -1.44221  -1.27373  -0.00006 
 O                    -1.44266   1.27324  -0.00003 
 P                    -2.31999  -0.0004    0.00001 
 Ca                    0.76196  -1.85797   0. 
 O                     1.71332   0.00031   0.78627 
 Ca                    0.76122   1.85822  -0.00001 
 O                     1.71359   0.00033  -0.78616 
 
                          Input orientation:                          
 ---------------------------------------------------------------------
 Center     Atomic     Atomic              Coordinates (Angstroms)
 Number     Number      Type              X           Y           Z
 ---------------------------------------------------------------------
    1          8             0       -1.442210   -1.273730   -0.000060
    2          8             0       -1.442660    1.273240   -0.000030
    3         15             0       -2.319990   -0.000400    0.000010
    4         20             0        0.761960   -1.857970    0.000000
    5          8             0        1.713320    0.000310    0.786270
    6         20             0        0.761220    1.858220   -0.000010
    7          8             0        1.713590    0.000330   -0.786160
 ---------------------------------------------------------------------
                    Distance matrix (angstroms):
                    1          2          3          4          5
     1  O    0.000000
     2  O    2.546970   0.000000
     3  P    1.546566   1.546566   0.000000
     4  Ca   2.280285   3.829468   3.598469   0.000000
     5  O    3.492687   3.492682   4.109233   2.230809   0.000000
     6  Ca   3.829388   2.280195   3.598378   3.716190   2.230821
     7  O    3.492886   3.492881   4.109481   2.230903   1.572430
                    6          7
     6  Ca   0.000000
     7  O    2.230873   0.000000
 Stoichiometry    Ca2O4P(1+)
 Framework group  C1[X(Ca2O4P)]
 Deg. of freedom    15
 Full point group                 C1
 Largest Abelian subgroup         C1      NOp   1
 Largest concise Abelian subgroup C1      NOp   1
                         Standard orientation:                         
 ---------------------------------------------------------------------
 Center     Atomic     Atomic              Coordinates (Angstroms)
 Number     Number      Type              X           Y           Z
 ---------------------------------------------------------------------
    1          8             0       -1.442215   -1.273727   -0.000061
    2          8             0       -1.442656    1.273243   -0.000031
    3         15             0       -2.319991   -0.000394    0.000009
    4         20             0        0.761953   -1.857975   -0.000001
    5          8             0        1.713319    0.000302    0.786269
    6         20             0        0.761226    1.858215   -0.000011
    7          8             0        1.713589    0.000322   -0.786161
 ---------------------------------------------------------------------
 Rotational constants (GHZ):      1.4539222      1.2849981      0.7205899
 Standard basis: 6-31+G(d,p) (6D, 7F)
 There are   153 symmetry adapted basis functions of A   symmetry.
 Integral buffers will be    131072 words long.
 Raffenetti 2 integral format.
 Two-electron integral symmetry is turned on.
   153 basis functions,   344 primitive gaussians,   153 cartesian basis functions
    43 alpha electrons       43 beta electrons
       nuclear repulsion energy       602.1355360871 Hartrees.
 NAtoms=    7 NActive=    7 NUniq=    7 SFac= 7.50D-01 NAtFMM=   80 NAOKFM=F Big=F
 One-electron integrals computed using PRISM.
 NBasis=   153 RedAO= T  NBF=   153
 NBsUse=   153 1.00D-06 NBFU=   153
 Harris functional with IExCor=  402 diagonalized for initial guess.
 ExpMin= 7.10D-03 ExpMax= 3.53D+04 ExpMxC= 5.30D+03 IAcc=3 IRadAn=         5 AccDes= 0.00D+00
 HarFok:  IExCor= 402 AccDes= 0.00D+00 IRadAn=         5 IDoV=1
 ScaDFX=  1.000000  1.000000  1.000000  1.000000
 Initial guess orbital symmetries:
       Occupied  (A) (A) (A) (A) (A) (A) (A) (A) (A) (A) (A) (A)
                 (A) (A) (A) (A) (A) (A) (A) (A) (A) (A) (A) (A)
                 (A) (A) (A) (A) (A) (A) (A) (A) (A) (A) (A) (A)
                 (A) (A) (A) (A) (A) (A) (A)
       Virtual   (A) (A) (A) (A) (A) (A) (A) (A) (A) (A) (A) (A)
                 (A) (A) (A) (A) (A) (A) (A) (A) (A) (A) (A) (A)
                 (A) (A) (A) (A) (A) (A) (A) (A) (A) (A) (A) (A)
                 (A) (A) (A) (A) (A) (A) (A) (A) (A) (A) (A) (A)
                 (A) (A) (A) (A) (A) (A) (A) (A) (A) (A) (A) (A)
                 (A) (A) (A) (A) (A) (A) (A) (A) (A) (A) (A) (A)
                 (A) (A) (A) (A) (A) (A) (A) (A) (A) (A) (A) (A)
                 (A) (A) (A) (A) (A) (A) (A) (A) (A) (A) (A) (A)
                 (A) (A) (A) (A) (A) (A) (A) (A) (A) (A) (A) (A)
                 (A) (A)
 The electronic state of the initial guess is 1-A.
 Requested convergence on RMS density matrix=1.00D-04 within 128 cycles.
 Requested convergence on MAX density matrix=1.00D-02.
 Requested convergence on             energy=1.00D-02.
 No special actions if energy rises.
 SCF Done:  E(RB+HF-LYP) =  -1997.33372469     A.U. after    6 cycles
             Convg  =    0.4406D-04             -V/T =  2.0031
             S**2   =   0.0000

 **********************************************************************

            Population analysis using the SCF density.

 **********************************************************************

 Orbital symmetries:
       Occupied  (A) (A) (A) (A) (A) (A) (A) (A) (A) (A) (A) (A)
                 (A) (A) (A) (A) (A) (A) (A) (A) (A) (A) (A) (A)
                 (A) (A) (A) (A) (A) (A) (A) (A) (A) (A) (A) (A)
                 (A) (A) (A) (A) (A) (A) (A)
       Virtual   (A) (A) (A) (A) (A) (A) (A) (A) (A) (A) (A) (A)
                 (A) (A) (A) (A) (A) (A) (A) (A) (A) (A) (A) (A)
                 (A) (A) (A) (A) (A) (A) (A) (A) (A) (A) (A) (A)
                 (A) (A) (A) (A) (A) (A) (A) (A) (A) (A) (A) (A)
                 (A) (A) (A) (A) (A) (A) (A) (A) (A) (A) (A) (A)
                 (A) (A) (A) (A) (A) (A) (A) (A) (A) (A) (A) (A)
                 (A) (A) (A) (A) (A) (A) (A) (A) (A) (A) (A) (A)
                 (A) (A) (A) (A) (A) (A) (A) (A) (A) (A) (A) (A)
                 (A) (A) (A) (A) (A) (A) (A) (A) (A) (A) (A) (A)
                 (A) (A)
 The electronic state is 1-A.
 Alpha  occ. eigenvalues -- -145.53247-145.53246 -77.30162 -19.27955 -19.27950
 Alpha  occ. eigenvalues --  -19.25596 -19.25581 -15.60094 -15.60093 -12.73309
 Alpha  occ. eigenvalues --  -12.73308 -12.73291 -12.73290 -12.73209 -12.73206
 Alpha  occ. eigenvalues --   -6.75643  -4.92083  -4.91868  -4.91423  -1.97237
 Alpha  occ. eigenvalues --   -1.97210  -1.25765  -1.24806  -1.24792  -1.24726
 Alpha  occ. eigenvalues --   -1.24726  -1.24303  -1.13925  -1.08555  -1.08250
 Alpha  occ. eigenvalues --   -0.89522  -0.67705  -0.57282  -0.52823  -0.52601
 Alpha  occ. eigenvalues --   -0.48993  -0.47945  -0.46120  -0.45762  -0.43901
 Alpha  occ. eigenvalues --   -0.40700  -0.37191  -0.34167
 Alpha virt. eigenvalues --   -0.20457  -0.19852  -0.19631  -0.14482  -0.11368
 Alpha virt. eigenvalues --   -0.11280  -0.10319  -0.09667  -0.09045  -0.07375
 Alpha virt. eigenvalues --   -0.07215  -0.06432  -0.05962  -0.05215  -0.04857
 Alpha virt. eigenvalues --   -0.04431  -0.04389  -0.04083  -0.03999  -0.03874
 Alpha virt. eigenvalues --   -0.03337  -0.02378   0.00221   0.01109   0.02011
 Alpha virt. eigenvalues --    0.02949   0.03324   0.03644   0.04212   0.05047
 Alpha virt. eigenvalues --    0.05144   0.05190   0.06781   0.07028   0.07277
 Alpha virt. eigenvalues --    0.07476   0.08123   0.08217   0.12231   0.13582
 Alpha virt. eigenvalues --    0.14151   0.14768   0.16274   0.16814   0.16921
 Alpha virt. eigenvalues --    0.18688   0.20333   0.21715   0.24406   0.26748
 Alpha virt. eigenvalues --    0.28310   0.29465   0.31798   0.32144   0.32486
 Alpha virt. eigenvalues --    0.36020   0.36750   0.40440   0.43968   0.45541
 Alpha virt. eigenvalues --    0.48014   0.56600   0.57821   0.60211   0.65644
 Alpha virt. eigenvalues --    0.71344   0.87008   0.90192   0.94375   1.03574
 Alpha virt. eigenvalues --    1.05863   1.07985   1.08400   1.12007   1.12334
 Alpha virt. eigenvalues --    1.14814   1.15160   1.17891   1.20707   1.23938
 Alpha virt. eigenvalues --    1.28612   1.38345   1.43002   1.46780   1.50561
 Alpha virt. eigenvalues --    1.50924   1.58074   1.66232   1.68013   1.70610
 Alpha virt. eigenvalues --    1.71272   1.75750   1.80028   1.81211   1.82379
 Alpha virt. eigenvalues --    1.84417   1.85981   1.86056   1.92956   2.09470
 Alpha virt. eigenvalues --    2.16192   2.16959   2.53544   2.67519   3.00296
 Alpha virt. eigenvalues --    3.38474   3.83794   3.90577   3.97503   4.05858
          Condensed to atoms (all electrons):
              1          2          3          4          5          6
     1  O    8.815223  -0.085950  -0.094378   0.067448   0.002545   0.002344
     2  O   -0.085950   8.815374  -0.094457   0.002343   0.002547   0.067448
     3  P   -0.094378  -0.094457  14.567090  -0.019098  -0.004378  -0.019105
     4  Ca   0.067448   0.002343  -0.019098  18.210032   0.105944  -0.016660
     5  O    0.002545   0.002547  -0.004378   0.105944   8.515831   0.105939
     6  Ca   0.002344   0.067448  -0.019105  -0.016660   0.105939  18.210050
     7  O    0.002544   0.002544  -0.004392   0.105979  -0.059737   0.105981
              7
     1  O    0.002544
     2  O    0.002544
     3  P   -0.004392
     4  Ca   0.105979
     5  O   -0.059737
     6  Ca   0.105981
     7  O    8.515496
 Mulliken atomic charges:
              1
     1  O   -0.709775
     2  O   -0.709850
     3  P    0.668718
     4  Ca   1.544012
     5  O   -0.668691
     6  Ca   1.544003
     7  O   -0.668416
 Sum of Mulliken charges=   1.00000
 Atomic charges with hydrogens summed into heavy atoms:
              1
     1  O   -0.709775
     2  O   -0.709850
     3  P    0.668718
     4  Ca   1.544012
     5  O   -0.668691
     6  Ca   1.544003
     7  O   -0.668416
 Sum of Mulliken charges=   1.00000
 Electronic spatial extent (au):  <R**2>=  1378.3041
 Charge=     1.0000 electrons
 Dipole moment (field-independent basis, Debye):
    X=     3.1408    Y=    -0.0003    Z=    -0.0013  Tot=     3.1408
 Quadrupole moment (field-independent basis, Debye-Ang):
   XX=   -66.5079   YY=    -8.8857   ZZ=   -58.2534
   XY=    -0.0108   XZ=    -0.0022   YZ=    -0.0003
 Traceless Quadrupole moment (field-independent basis, Debye-Ang):
   XX=   -21.9589   YY=    35.6633   ZZ=   -13.7044
   XY=    -0.0108   XZ=    -0.0022   YZ=    -0.0003
 Octapole moment (field-independent basis, Debye-Ang**2):
  XXX=    -6.9286  YYY=     0.0333  ZZZ=    -0.0019  XYY=    70.8631
  XXY=    -0.0294  XXZ=    -0.0024  XZZ=    -1.4171  YZZ=    -0.0003
  YYZ=     0.0008  XYZ=     0.0002
 Hexadecapole moment (field-independent basis, Debye-Ang**3):
 XXXX=  -942.9908 YYYY=  -329.5342 ZZZZ=  -103.9601 XXXY=    -0.0461
 XXXZ=     0.0019 YYYX=    -0.0587 YYYZ=    -0.0009 ZZZX=    -0.0043
 ZZZY=    -0.0001 XXYY=  -220.7382 XXZZ=  -174.4951 YYZZ=  -103.3792
 XXYZ=    -0.0002 YYXZ=     0.0000 ZZXY=    -0.0113
 N-N= 6.021355360871D+02 E-N=-5.923704991225D+03  KE= 1.991110546590D+03
 Merz-Kollman atomic radii used.
 Read replacement radii for each type of atom:
 Rad(20) =   1.188000000000D+00
 Atom Element Radius
    1     8    1.40
    2     8    1.40
    3    15    1.80
    4    20    1.19
    5     8    1.40
    6    20    1.19
    7     8    1.40

 **********************************************************************

            Electrostatic Properties Using The SCF Density

 **********************************************************************

       Atomic Center    1 is at  -1.442215 -1.273727 -0.000061
       Atomic Center    2 is at  -1.442656  1.273243 -0.000031
       Atomic Center    3 is at  -2.319991 -0.000394  0.000009
       Atomic Center    4 is at   0.761953 -1.857975 -0.000001
       Atomic Center    5 is at   1.713319  0.000302  0.786269
       Atomic Center    6 is at   0.761226  1.858215 -0.000011
       Atomic Center    7 is at   1.713589  0.000322 -0.786161
     712 points will be used for fitting atomic charges
 Fitting point charges to eletrostatic potential
 Charges from ESP fit, RMS=   0.00428 RRMS=   0.02804:
 Charge=   1.00000 Dipole=     2.9942    -0.0003    -0.0013 Tot=     2.9942
              1
     1  O   -0.751747
     2  O   -0.751821
     3  P    0.633868
     4  Ca   1.722144
     5  O   -0.787438
     6  Ca   1.722139
     7  O   -0.787145
 -----------------------------------------------------------------

              Electrostatic Properties (Atomic Units)

 -----------------------------------------------------------------
    Center     Electric         -------- Electric Field --------
               Potential          X             Y             Z
 -----------------------------------------------------------------
    1 Atom    -22.184051
    2 Atom    -22.184199
    3 Atom    -53.916360
    4 Atom    -80.007935
    5 Atom    -22.214258
    6 Atom    -80.007953
    7 Atom    -22.213832
 -----------------------------------------------------------------
 1\1\GINC-N021\SP\RB3LYP\6-31+G(d,p)\Ca2O4P1(1+)\TIMN\12-Jun-2015\0\\# 
 b3lyp/6-31+G(d,p) int=ultrafine pop=(ReadRadii,MK)\\mol_16.5.1.pdbc_pl
 usQ.out.z51626.zip.xyz\\1,1\O,0,-1.44221,-1.27373,-0.00006\O,0,-1.4426
 6,1.27324,-0.00003\P,0,-2.31999,-0.0004,0.00001\Ca,0,0.76196,-1.85797,
 0.\O,0,1.71332,0.00031,0.78627\Ca,0,0.76122,1.85822,-0.00001\O,0,1.713
 59,0.00033,-0.78616\\Version=EM64T-G03RevE.01\State=1-A\HF=-1997.33372
 47\RMSD=4.406e-05\Thermal=0.\Dipole=1.2356803,-0.0001296,-0.0005204\PG
 =C01 [X(Ca2O4P1)]\\@


 SCIENCE AND PEACE WILL TRIUMPH OVER IGNORANCE AND WAR

                          -- PASTEUR
 Job cpu time:  0 days  0 hours  0 minutes 43.0 seconds.
 File lengths (MBytes):  RWF=     28 Int=      0 D2E=      0 Chk=     10 Scr=      1
 Normal termination of Gaussian 03 at Fri Jun 12 17:49:24 2015.
