 Entering Gaussian System, Link 0=/home/timn/tmp/g03.e01/g03
 Input=mol_16.4.43.pdb_plusQc.out.z51593.zip.xyz.gjf
 Output=mol_16.4.43.pdb_plusQc.out.z51593.zip.xyz.out
 Initial command:
 /home/timn/tmp/g03.e01/l1.exe /home/timn/tmp/g03.e01/Gau-14318.inp -scrdir=/home/timn/tmp/g03.e01/
 Default is to use a total of   2 processors:
                                2 via shared-memory
                                1 via Linda
 Entering Link 1 = /home/timn/tmp/g03.e01/l1.exe PID=     14321.
  
 Copyright (c) 1988,1990,1992,1993,1995,1998,2003,2004,2007, Gaussian, Inc.
                  All Rights Reserved.
  
 This is the Gaussian(R) 03 program.  It is based on the
 the Gaussian(R) 98 system (copyright 1998, Gaussian, Inc.),
 the Gaussian(R) 94 system (copyright 1995, Gaussian, Inc.),
 the Gaussian 92(TM) system (copyright 1992, Gaussian, Inc.),
 the Gaussian 90(TM) system (copyright 1990, Gaussian, Inc.),
 the Gaussian 88(TM) system (copyright 1988, Gaussian, Inc.),
 the Gaussian 86(TM) system (copyright 1986, Carnegie Mellon
 University), and the Gaussian 82(TM) system (copyright 1983,
 Carnegie Mellon University). Gaussian is a federally registered
 trademark of Gaussian, Inc.
  
 This software contains proprietary and confidential information,
 including trade secrets, belonging to Gaussian, Inc.
  
 This software is provided under written license and may be
 used, copied, transmitted, or stored only in accord with that
 written license.
  
 The following legend is applicable only to US Government
 contracts under FAR:
  
                    RESTRICTED RIGHTS LEGEND
  
 Use, reproduction and disclosure by the US Government is
 subject to restrictions as set forth in subparagraphs (a)
 and (c) of the Commercial Computer Software - Restricted
 Rights clause in FAR 52.227-19.
  
 Gaussian, Inc.
 340 Quinnipiac St., Bldg. 40, Wallingford CT 06492
  
  
 ---------------------------------------------------------------
 Warning -- This program may not be used in any manner that
 competes with the business of Gaussian, Inc. or will provide
 assistance to any competitor of Gaussian, Inc.  The licensee
 of this program is prohibited from giving any competitor of
 Gaussian, Inc. access to this program.  By using this program,
 the user acknowledges that Gaussian, Inc. is engaged in the
 business of creating and licensing software in the field of
 computational chemistry and represents and warrants to the
 licensee that it is not a competitor of Gaussian, Inc. and that
 it will not use this program in any manner prohibited above.
 ---------------------------------------------------------------
  

 Cite this work as:
 Gaussian 03, Revision E.01,
 M. J. Frisch, G. W. Trucks, H. B. Schlegel, G. E. Scuseria, 
 M. A. Robb, J. R. Cheeseman, J. A. Montgomery, Jr., T. Vreven, 
 K. N. Kudin, J. C. Burant, J. M. Millam, S. S. Iyengar, J. Tomasi, 
 V. Barone, B. Mennucci, M. Cossi, G. Scalmani, N. Rega, 
 G. A. Petersson, H. Nakatsuji, M. Hada, M. Ehara, K. Toyota, 
 R. Fukuda, J. Hasegawa, M. Ishida, T. Nakajima, Y. Honda, O. Kitao, 
 H. Nakai, M. Klene, X. Li, J. E. Knox, H. P. Hratchian, J. B. Cross, 
 V. Bakken, C. Adamo, J. Jaramillo, R. Gomperts, R. E. Stratmann, 
 O. Yazyev, A. J. Austin, R. Cammi, C. Pomelli, J. W. Ochterski, 
 P. Y. Ayala, K. Morokuma, G. A. Voth, P. Salvador, J. J. Dannenberg, 
 V. G. Zakrzewski, S. Dapprich, A. D. Daniels, M. C. Strain, 
 O. Farkas, D. K. Malick, A. D. Rabuck, K. Raghavachari, 
 J. B. Foresman, J. V. Ortiz, Q. Cui, A. G. Baboul, S. Clifford, 
 J. Cioslowski, B. B. Stefanov, G. Liu, A. Liashenko, P. Piskorz, 
 I. Komaromi, R. L. Martin, D. J. Fox, T. Keith, M. A. Al-Laham, 
 C. Y. Peng, A. Nanayakkara, M. Challacombe, P. M. W. Gill, 
 B. Johnson, W. Chen, M. W. Wong, C. Gonzalez, and J. A. Pople, 
 Gaussian, Inc., Wallingford CT, 2004.
 
 ******************************************
 Gaussian 03:  EM64T-G03RevE.01 11-Sep-2007
                12-Jun-2015 
 ******************************************
 %nproc=2
 Will use up to    2 processors via shared memory.
 Default route:  MP2=Direct MaxDisk=2000MB
 ----------------------------------------------------
 # b3lyp/6-31+G(d,p) int=ultrafine pop=(ReadRadii,MK)
 ----------------------------------------------------

 Warning!  SCF SP cutoffs with diffuse functions may be unreliable.
 Consider SCF=Tight

 1/38=1/1;
 2/17=6,18=5,40=1/2;
 3/5=1,6=6,7=111,11=2,16=1,25=1,30=1,74=-5,75=5/1,2,3;
 4//1;
 5/5=2,32=1,38=5/2;
 6/7=2,8=2,9=2,10=2,15=8,20=101,28=1/1,2;
 99/5=1,9=1/99;
 -----------------------------------------
 mol_16.4.43.pdb_plusQc.out.z51593.zip.xyz
 -----------------------------------------
 Symbolic Z-matrix:
 Charge =  1 Multiplicity = 1
 O                     0.00035  -2.0989    0.71962 
 O                     0.00035  -2.0989   -0.71962 
 P                    -0.00026   2.32618   0. 
 O                     0.00035   1.44927  -1.2718 
 Ca                   -0.00018  -0.61247  -2.22201 
 Ca                   -0.00018  -0.61247   2.22201 
 O                     0.00035   1.44927   1.2718 
 
                          Input orientation:                          
 ---------------------------------------------------------------------
 Center     Atomic     Atomic              Coordinates (Angstroms)
 Number     Number      Type              X           Y           Z
 ---------------------------------------------------------------------
    1          8             0        0.000350   -2.098900    0.719620
    2          8             0        0.000350   -2.098900   -0.719620
    3         15             0       -0.000260    2.326180    0.000000
    4          8             0        0.000350    1.449270   -1.271800
    5         20             0       -0.000180   -0.612470   -2.222010
    6         20             0       -0.000180   -0.612470    2.222010
    7          8             0        0.000350    1.449270    1.271800
 ---------------------------------------------------------------------
                    Distance matrix (angstroms):
                    1          2          3          4          5
     1  O    0.000000
     2  O    1.439240   0.000000
     3  P    4.483212   4.483212   0.000000
     4  O    4.068816   3.590879   1.544813   0.000000
     5  Ca   3.295855   2.113445   3.684154   2.270170   0.000000
     6  Ca   2.113445   3.295855   3.684154   4.056782   4.444020
     7  O    3.590879   4.068816   1.544813   2.543600   4.056782
                    6          7
     6  Ca   0.000000
     7  O    2.270170   0.000000
 Stoichiometry    Ca2O4P(1+)
 Framework group  CS[SG(P),X(Ca2O4)]
 Deg. of freedom     8
 Full point group                 CS
 Largest Abelian subgroup         CS      NOp   2
 Largest concise Abelian subgroup CS      NOp   2
                         Standard orientation:                         
 ---------------------------------------------------------------------
 Center     Atomic     Atomic              Coordinates (Angstroms)
 Number     Number      Type              X           Y           Z
 ---------------------------------------------------------------------
    1          8             0        0.000349   -2.098898    0.719620
    2          8             0        0.000349   -2.098898   -0.719620
    3         15             0       -0.000261    2.326182    0.000000
    4          8             0        0.000349    1.449272   -1.271800
    5         20             0       -0.000181   -0.612468   -2.222010
    6         20             0       -0.000181   -0.612468    2.222010
    7          8             0        0.000349    1.449272    1.271800
 ---------------------------------------------------------------------
 Rotational constants (GHZ):      1.2457834      1.0917066      0.5818335
 Standard basis: 6-31+G(d,p) (6D, 7F)
 There are    82 symmetry adapted basis functions of A'  symmetry.
 There are    71 symmetry adapted basis functions of A"  symmetry.
 Integral buffers will be    131072 words long.
 Raffenetti 2 integral format.
 Two-electron integral symmetry is turned on.
   153 basis functions,   344 primitive gaussians,   153 cartesian basis functions
    43 alpha electrons       43 beta electrons
       nuclear repulsion energy       564.5451494411 Hartrees.
 NAtoms=    7 NActive=    7 NUniq=    4 SFac= 2.30D+00 NAtFMM=   80 NAOKFM=F Big=F
 One-electron integrals computed using PRISM.
 NBasis=   153 RedAO= T  NBF=    82    71
 NBsUse=   153 1.00D-06 NBFU=    82    71
 Harris functional with IExCor=  402 diagonalized for initial guess.
 ExpMin= 7.10D-03 ExpMax= 3.53D+04 ExpMxC= 5.30D+03 IAcc=3 IRadAn=         5 AccDes= 0.00D+00
 HarFok:  IExCor= 402 AccDes= 0.00D+00 IRadAn=         5 IDoV=1
 ScaDFX=  1.000000  1.000000  1.000000  1.000000
 Initial guess orbital symmetries:
       Occupied  (A") (A') (A') (A") (A') (A') (A") (A") (A') (A")
                 (A') (A") (A') (A") (A') (A') (A") (A') (A') (A')
                 (A") (A') (A') (A") (A") (A') (A") (A') (A') (A")
                 (A") (A') (A") (A') (A') (A') (A') (A') (A") (A")
                 (A") (A") (A')
       Virtual   (A') (A") (A') (A") (A') (A') (A") (A') (A") (A")
                 (A') (A") (A') (A') (A') (A") (A") (A") (A') (A")
                 (A') (A') (A') (A') (A') (A') (A") (A") (A") (A')
                 (A") (A") (A') (A') (A") (A') (A') (A") (A") (A')
                 (A") (A") (A") (A') (A') (A') (A") (A') (A") (A')
                 (A") (A') (A") (A') (A') (A') (A") (A") (A") (A')
                 (A') (A") (A') (A') (A') (A") (A") (A') (A') (A')
                 (A") (A") (A') (A') (A") (A") (A") (A') (A") (A')
                 (A") (A') (A") (A') (A') (A') (A') (A") (A') (A")
                 (A') (A") (A') (A") (A") (A') (A") (A") (A') (A')
                 (A") (A") (A') (A") (A") (A') (A') (A') (A") (A")
 The electronic state of the initial guess is 1-A'.
 Requested convergence on RMS density matrix=1.00D-04 within 128 cycles.
 Requested convergence on MAX density matrix=1.00D-02.
 Requested convergence on             energy=1.00D-02.
 No special actions if energy rises.
 EnCoef did     2 forward-backward iterations
 EnCoef did     2 forward-backward iterations
 SCF Done:  E(RB+HF-LYP) =  -1997.25607083     A.U. after    8 cycles
             Convg  =    0.9624D-04             -V/T =  2.0031
             S**2   =   0.0000

 **********************************************************************

            Population analysis using the SCF density.

 **********************************************************************

 Orbital symmetries:
       Occupied  (A") (A') (A') (A") (A') (A') (A") (A") (A') (A")
                 (A') (A") (A') (A") (A') (A') (A') (A") (A') (A')
                 (A") (A') (A") (A') (A") (A') (A") (A') (A") (A')
                 (A") (A') (A") (A') (A') (A') (A") (A") (A') (A')
                 (A') (A") (A")
       Virtual   (A') (A") (A') (A') (A") (A') (A") (A') (A") (A')
                 (A") (A') (A") (A') (A') (A") (A') (A') (A") (A")
                 (A') (A") (A') (A') (A") (A') (A") (A') (A") (A')
                 (A") (A") (A') (A') (A') (A") (A") (A') (A") (A")
                 (A') (A") (A') (A') (A") (A') (A") (A') (A') (A")
                 (A") (A") (A') (A') (A') (A') (A") (A") (A') (A")
                 (A') (A") (A') (A') (A') (A") (A') (A") (A") (A")
                 (A') (A') (A') (A') (A") (A") (A") (A') (A") (A')
                 (A") (A') (A") (A') (A') (A') (A") (A') (A") (A')
                 (A') (A") (A") (A') (A') (A") (A") (A") (A') (A')
                 (A") (A") (A') (A") (A") (A') (A') (A') (A") (A")
 The electronic state is 1-A'.
 Alpha  occ. eigenvalues -- -145.54167-145.54163 -77.31236 -19.28987 -19.28986
 Alpha  occ. eigenvalues --  -19.21047 -19.21039 -15.60974 -15.60971 -12.74219
 Alpha  occ. eigenvalues --  -12.74218 -12.74161 -12.74160 -12.74072 -12.74070
 Alpha  occ. eigenvalues --   -6.76705  -4.93147  -4.92931  -4.92483  -1.97990
 Alpha  occ. eigenvalues --   -1.97989  -1.25690  -1.25688  -1.25589  -1.25512
 Alpha  occ. eigenvalues --   -1.25259  -1.25056  -1.14971  -1.09634  -1.07606
 Alpha  occ. eigenvalues --   -0.82753  -0.68924  -0.58507  -0.53707  -0.53662
 Alpha  occ. eigenvalues --   -0.48825  -0.46909  -0.44977  -0.42792  -0.42347
 Alpha  occ. eigenvalues --   -0.41533  -0.28045  -0.28020
 Alpha virt. eigenvalues --   -0.21129  -0.21003  -0.20865  -0.13146  -0.12179
 Alpha virt. eigenvalues --   -0.11927  -0.10648  -0.10490  -0.09070  -0.07620
 Alpha virt. eigenvalues --   -0.06793  -0.06047  -0.05607  -0.05450  -0.04866
 Alpha virt. eigenvalues --   -0.04572  -0.04567  -0.04389  -0.04264  -0.03548
 Alpha virt. eigenvalues --   -0.02877  -0.01875  -0.00195   0.00738   0.01581
 Alpha virt. eigenvalues --    0.02490   0.02649   0.03534   0.03641   0.03699
 Alpha virt. eigenvalues --    0.04679   0.04882   0.06199   0.06260   0.06686
 Alpha virt. eigenvalues --    0.06983   0.08192   0.09254   0.11603   0.14296
 Alpha virt. eigenvalues --    0.14644   0.15962   0.17076   0.17347   0.17923
 Alpha virt. eigenvalues --    0.19578   0.20584   0.20702   0.24340   0.25443
 Alpha virt. eigenvalues --    0.25788   0.30032   0.30881   0.30959   0.32509
 Alpha virt. eigenvalues --    0.36357   0.36530   0.40277   0.45666   0.46135
 Alpha virt. eigenvalues --    0.50960   0.55858   0.57062   0.60351   0.76920
 Alpha virt. eigenvalues --    0.77632   0.88755   0.90553   0.96141   1.04752
 Alpha virt. eigenvalues --    1.05307   1.06558   1.08269   1.11308   1.14280
 Alpha virt. eigenvalues --    1.16280   1.16588   1.20565   1.23104   1.25752
 Alpha virt. eigenvalues --    1.29940   1.34602   1.36687   1.39886   1.51569
 Alpha virt. eigenvalues --    1.62313   1.63003   1.64510   1.64804   1.67585
 Alpha virt. eigenvalues --    1.68431   1.71082   1.77975   1.78032   1.84578
 Alpha virt. eigenvalues --    1.84987   1.90117   1.95777   2.00153   2.07770
 Alpha virt. eigenvalues --    2.34412   2.37921   2.52052   2.66735   3.12792
 Alpha virt. eigenvalues --    3.38206   3.80068   3.82156   3.88052   4.20075
          Condensed to atoms (all electrons):
              1          2          3          4          5          6
     1  O    8.544469  -0.136055  -0.003792   0.005783  -0.067002   0.258009
     2  O   -0.136055   8.544469  -0.003792  -0.003327   0.258009  -0.067002
     3  P   -0.003792  -0.003792  14.667489  -0.157325  -0.017678  -0.017678
     4  O    0.005783  -0.003327  -0.157325   8.883223   0.069342   0.003750
     5  Ca  -0.067002   0.258009  -0.017678   0.069342  18.276280   0.005155
     6  Ca   0.258009  -0.067002  -0.017678   0.003750   0.005155  18.276280
     7  O   -0.003327   0.005783  -0.157325  -0.082336   0.003750   0.069342
              7
     1  O   -0.003327
     2  O    0.005783
     3  P   -0.157325
     4  O   -0.082336
     5  Ca   0.003750
     6  Ca   0.069342
     7  O    8.883223
 Mulliken atomic charges:
              1
     1  O   -0.598085
     2  O   -0.598085
     3  P    0.690101
     4  O   -0.719110
     5  Ca   1.472145
     6  Ca   1.472145
     7  O   -0.719110
 Sum of Mulliken charges=   1.00000
 Atomic charges with hydrogens summed into heavy atoms:
              1
     1  O   -0.598085
     2  O   -0.598085
     3  P    0.690101
     4  O   -0.719110
     5  Ca   1.472145
     6  Ca   1.472145
     7  O   -0.719110
 Sum of Mulliken charges=   1.00000
 Electronic spatial extent (au):  <R**2>=  1637.4641
 Charge=     1.0000 electrons
 Dipole moment (field-independent basis, Debye):
    X=    -0.0063    Y=     1.4889    Z=     0.0000  Tot=     1.4889
 Quadrupole moment (field-independent basis, Debye-Ang):
   XX=   -54.9876   YY=   -78.8688   ZZ=     6.0213
   XY=     0.0045   XZ=     0.0000   YZ=     0.0000
 Traceless Quadrupole moment (field-independent basis, Debye-Ang):
   XX=   -12.3759   YY=   -36.2571   ZZ=    48.6330
   XY=     0.0045   XZ=     0.0000   YZ=     0.0000
 Octapole moment (field-independent basis, Debye-Ang**2):
  XXX=    -0.0074  YYY=    42.9527  ZZZ=     0.0000  XYY=    -0.0054
  XXY=    -1.4044  XXZ=     0.0000  XZZ=    -0.0189  YZZ=   -63.5917
  YYZ=     0.0000  XYZ=     0.0000
 Hexadecapole moment (field-independent basis, Debye-Ang**3):
 XXXX=   -60.5749 YYYY= -1111.3835 ZZZZ=  -373.8184 XXXY=     0.0296
 XXXZ=     0.0000 YYYX=     0.0647 YYYZ=     0.0000 ZZZX=     0.0000
 ZZZY=     0.0000 XXYY=  -174.6470 XXZZ=  -133.5386 YYZZ=  -303.7790
 XXYZ=     0.0000 YYXZ=     0.0000 ZZXY=     0.0135
 N-N= 5.645451494411D+02 E-N=-5.848457413153D+03  KE= 1.990993380616D+03
 Symmetry A'   KE= 1.134412481056D+03
 Symmetry A"   KE= 8.565808995603D+02
 Merz-Kollman atomic radii used.
 Read replacement radii for each type of atom:
 Rad(20) =   1.188000000000D+00
 Atom Element Radius
    1     8    1.40
    2     8    1.40
    3    15    1.80
    4     8    1.40
    5    20    1.19
    6    20    1.19
    7     8    1.40

 **********************************************************************

            Electrostatic Properties Using The SCF Density

 **********************************************************************

       Atomic Center    1 is at   0.000349 -2.098898  0.719620
       Atomic Center    2 is at   0.000349 -2.098898 -0.719620
       Atomic Center    3 is at  -0.000261  2.326182  0.000000
       Atomic Center    4 is at   0.000349  1.449272 -1.271800
       Atomic Center    5 is at  -0.000181 -0.612468 -2.222010
       Atomic Center    6 is at  -0.000181 -0.612468  2.222010
       Atomic Center    7 is at   0.000349  1.449272  1.271800
     733 points will be used for fitting atomic charges
 Fitting point charges to eletrostatic potential
 Charges from ESP fit, RMS=   0.00588 RRMS=   0.03776:
 Charge=   1.00000 Dipole=    -0.0084     1.6277     0.0000 Tot=     1.6277
              1
     1  O   -0.717514
     2  O   -0.717514
     3  P    0.596615
     4  O   -0.711772
     5  Ca   1.630978
     6  Ca   1.630978
     7  O   -0.711772
 -----------------------------------------------------------------

              Electrostatic Properties (Atomic Units)

 -----------------------------------------------------------------
    Center     Electric         -------- Electric Field --------
               Potential          X             Y             Z
 -----------------------------------------------------------------
    1 Atom    -22.252361
    2 Atom    -22.252361
    3 Atom    -53.905423
    4 Atom    -22.174004
    5 Atom    -79.999097
    6 Atom    -79.999097
    7 Atom    -22.174004
 -----------------------------------------------------------------
 1\1\GINC-N035\SP\RB3LYP\6-31+G(d,p)\Ca2O4P1(1+)\TIMN\12-Jun-2015\0\\# 
 b3lyp/6-31+G(d,p) int=ultrafine pop=(ReadRadii,MK)\\mol_16.4.43.pdb_pl
 usQc.out.z51593.zip.xyz\\1,1\O,0,0.00035,-2.0989,0.71962\O,0,0.00035,-
 2.0989,-0.71962\P,0,-0.00026,2.32618,0.\O,0,0.00035,1.44927,-1.2718\Ca
 ,0,-0.00018,-0.61247,-2.22201\Ca,0,-0.00018,-0.61247,2.22201\O,0,0.000
 35,1.44927,1.2718\\Version=EM64T-G03RevE.01\State=1-A'\HF=-1997.256070
 8\RMSD=9.624e-05\Thermal=0.\Dipole=-0.0024702,0.5857703,0.\PG=CS [SG(P
 1),X(Ca2O4)]\\@


 ALL MEN WHO EXPLORE
 DEPLORE
 THAT FRUSTRATING HURDLE
 THE GIRDLE.

         -- COLIN FLETCHER
 Job cpu time:  0 days  0 hours  0 minutes 30.5 seconds.
 File lengths (MBytes):  RWF=     28 Int=      0 D2E=      0 Chk=     10 Scr=      1
 Normal termination of Gaussian 03 at Fri Jun 12 17:47:58 2015.
