 Entering Gaussian System, Link 0=/home/timn/tmp/g03.e01/g03
 Input=mol_17.26.15.pdbcc_plusQ.z58374.zip.xyz.gjf
 Output=mol_17.26.15.pdbcc_plusQ.z58374.zip.xyz.out
 Initial command:
 /home/timn/tmp/g03.e01/l1.exe /home/timn/tmp/g03.e01/Gau-13021.inp -scrdir=/home/timn/tmp/g03.e01/
 Default is to use a total of   2 processors:
                                2 via shared-memory
                                1 via Linda
 Entering Link 1 = /home/timn/tmp/g03.e01/l1.exe PID=     13022.
  
 Copyright (c) 1988,1990,1992,1993,1995,1998,2003,2004,2007, Gaussian, Inc.
                  All Rights Reserved.
  
 This is the Gaussian(R) 03 program.  It is based on the
 the Gaussian(R) 98 system (copyright 1998, Gaussian, Inc.),
 the Gaussian(R) 94 system (copyright 1995, Gaussian, Inc.),
 the Gaussian 92(TM) system (copyright 1992, Gaussian, Inc.),
 the Gaussian 90(TM) system (copyright 1990, Gaussian, Inc.),
 the Gaussian 88(TM) system (copyright 1988, Gaussian, Inc.),
 the Gaussian 86(TM) system (copyright 1986, Carnegie Mellon
 University), and the Gaussian 82(TM) system (copyright 1983,
 Carnegie Mellon University). Gaussian is a federally registered
 trademark of Gaussian, Inc.
  
 This software contains proprietary and confidential information,
 including trade secrets, belonging to Gaussian, Inc.
  
 This software is provided under written license and may be
 used, copied, transmitted, or stored only in accord with that
 written license.
  
 The following legend is applicable only to US Government
 contracts under FAR:
  
                    RESTRICTED RIGHTS LEGEND
  
 Use, reproduction and disclosure by the US Government is
 subject to restrictions as set forth in subparagraphs (a)
 and (c) of the Commercial Computer Software - Restricted
 Rights clause in FAR 52.227-19.
  
 Gaussian, Inc.
 340 Quinnipiac St., Bldg. 40, Wallingford CT 06492
  
  
 ---------------------------------------------------------------
 Warning -- This program may not be used in any manner that
 competes with the business of Gaussian, Inc. or will provide
 assistance to any competitor of Gaussian, Inc.  The licensee
 of this program is prohibited from giving any competitor of
 Gaussian, Inc. access to this program.  By using this program,
 the user acknowledges that Gaussian, Inc. is engaged in the
 business of creating and licensing software in the field of
 computational chemistry and represents and warrants to the
 licensee that it is not a competitor of Gaussian, Inc. and that
 it will not use this program in any manner prohibited above.
 ---------------------------------------------------------------
  

 Cite this work as:
 Gaussian 03, Revision E.01,
 M. J. Frisch, G. W. Trucks, H. B. Schlegel, G. E. Scuseria, 
 M. A. Robb, J. R. Cheeseman, J. A. Montgomery, Jr., T. Vreven, 
 K. N. Kudin, J. C. Burant, J. M. Millam, S. S. Iyengar, J. Tomasi, 
 V. Barone, B. Mennucci, M. Cossi, G. Scalmani, N. Rega, 
 G. A. Petersson, H. Nakatsuji, M. Hada, M. Ehara, K. Toyota, 
 R. Fukuda, J. Hasegawa, M. Ishida, T. Nakajima, Y. Honda, O. Kitao, 
 H. Nakai, M. Klene, X. Li, J. E. Knox, H. P. Hratchian, J. B. Cross, 
 V. Bakken, C. Adamo, J. Jaramillo, R. Gomperts, R. E. Stratmann, 
 O. Yazyev, A. J. Austin, R. Cammi, C. Pomelli, J. W. Ochterski, 
 P. Y. Ayala, K. Morokuma, G. A. Voth, P. Salvador, J. J. Dannenberg, 
 V. G. Zakrzewski, S. Dapprich, A. D. Daniels, M. C. Strain, 
 O. Farkas, D. K. Malick, A. D. Rabuck, K. Raghavachari, 
 J. B. Foresman, J. V. Ortiz, Q. Cui, A. G. Baboul, S. Clifford, 
 J. Cioslowski, B. B. Stefanov, G. Liu, A. Liashenko, P. Piskorz, 
 I. Komaromi, R. L. Martin, D. J. Fox, T. Keith, M. A. Al-Laham, 
 C. Y. Peng, A. Nanayakkara, M. Challacombe, P. M. W. Gill, 
 B. Johnson, W. Chen, M. W. Wong, C. Gonzalez, and J. A. Pople, 
 Gaussian, Inc., Wallingford CT, 2004.
 
 ******************************************
 Gaussian 03:  EM64T-G03RevE.01 11-Sep-2007
                12-Jun-2015 
 ******************************************
 %nproc=2
 Will use up to    2 processors via shared memory.
 Default route:  MP2=Direct MaxDisk=2000MB
 ----------------------------------------------------
 # b3lyp/6-31+G(d,p) int=ultrafine pop=(ReadRadii,MK)
 ----------------------------------------------------

 Warning!  SCF SP cutoffs with diffuse functions may be unreliable.
 Consider SCF=Tight

 1/38=1/1;
 2/17=6,18=5,40=1/2;
 3/5=1,6=6,7=111,11=2,16=1,25=1,30=1,74=-5,75=5/1,2,3;
 4//1;
 5/5=2,32=1,38=5/2;
 6/7=2,8=2,9=2,10=2,15=8,20=101,28=1/1,2;
 99/5=1,9=1/99;
 ---------------------------------------
 mol_17.26.15.pdbcc_plusQ.z58374.zip.xyz
 ---------------------------------------
 Symbolic Z-matrix:
 Charge =  1 Multiplicity = 1
 O                     0.75613  -1.24972  -0.03346 
 O                     0.75866   1.25024  -0.03647 
 P                     0.97224   0.00142   1.1104 
 O                     2.54253   0.00015   1.24529 
 Ca                    2.53433  -0.0022   -1.02129 
 Ca                   -1.43956   1.80083  -0.04464 
 O                    -2.63264   0.00115   0.53172 
 O                    -2.37877   0.00047  -1.0155 
 Ca                   -1.44231  -1.80061  -0.0435 
 
                          Input orientation:                          
 ---------------------------------------------------------------------
 Center     Atomic     Atomic              Coordinates (Angstroms)
 Number     Number      Type              X           Y           Z
 ---------------------------------------------------------------------
    1          8             0        0.756130   -1.249720   -0.033460
    2          8             0        0.758660    1.250240   -0.036470
    3         15             0        0.972240    0.001420    1.110400
    4          8             0        2.542530    0.000150    1.245290
    5         20             0        2.534330   -0.002200   -1.021290
    6         20             0       -1.439560    1.800830   -0.044640
    7          8             0       -2.632640    0.001150    0.531720
    8          8             0       -2.378770    0.000470   -1.015500
    9         20             0       -1.442310   -1.800610   -0.043500
 ---------------------------------------------------------------------
                    Distance matrix (angstroms):
                    1          2          3          4          5
     1  O    0.000000
     2  O    2.499963   0.000000
     3  P    1.708938   1.708941   0.000000
     4  O    2.527568   2.527415   1.576073   0.000000
     5  Ca   2.386233   2.385682   2.642771   2.266596   0.000000
     6  Ca   3.758595   2.266139   3.223162   4.556688   4.471752
     7  O    3.656209   3.658412   3.651031   5.224133   5.395316
     8  O    3.514965   3.516233   3.968466   5.415752   4.913104
     9  Ca   2.266433   3.761915   3.226275   4.558801   4.472585
                    6          7          8          9
     6  Ca   0.000000
     7  O    2.234833   0.000000
     8  O    2.250773   1.567909   0.000000
     9  Ca   3.601441   2.234749   2.250696   0.000000
 Stoichiometry    Ca3O5P(1+)
 Framework group  C1[X(Ca3O5P)]
 Deg. of freedom    21
 Full point group                 C1
 Largest Abelian subgroup         C1      NOp   1
 Largest concise Abelian subgroup C1      NOp   1
                         Standard orientation:                         
 ---------------------------------------------------------------------
 Center     Atomic     Atomic              Coordinates (Angstroms)
 Number     Number      Type              X           Y           Z
 ---------------------------------------------------------------------
    1          8             0        0.756128   -1.249721   -0.033460
    2          8             0        0.758661    1.250239   -0.036470
    3         15             0        0.972239    0.001419    1.110400
    4          8             0        2.542529    0.000147    1.245290
    5         20             0        2.534329   -0.002203   -1.021290
    6         20             0       -1.439559    1.800831   -0.044640
    7          8             0       -2.632641    0.001152    0.531720
    8          8             0       -2.378771    0.000472   -1.015500
    9         20             0       -1.442313   -1.800609   -0.043500
 ---------------------------------------------------------------------
 Rotational constants (GHZ):      1.1617157      0.5609760      0.4661482
 Standard basis: 6-31+G(d,p) (6D, 7F)
 There are   199 symmetry adapted basis functions of A   symmetry.
 Integral buffers will be    131072 words long.
 Raffenetti 2 integral format.
 Two-electron integral symmetry is turned on.
   199 basis functions,   456 primitive gaussians,   199 cartesian basis functions
    57 alpha electrons       57 beta electrons
       nuclear repulsion energy      1021.6071834568 Hartrees.
 NAtoms=    9 NActive=    9 NUniq=    9 SFac= 7.50D-01 NAtFMM=   80 NAOKFM=F Big=F
 One-electron integrals computed using PRISM.
 NBasis=   199 RedAO= T  NBF=   199
 NBsUse=   199 1.00D-06 NBFU=   199
 Harris functional with IExCor=  402 diagonalized for initial guess.
 ExpMin= 7.10D-03 ExpMax= 3.53D+04 ExpMxC= 5.30D+03 IAcc=3 IRadAn=         5 AccDes= 0.00D+00
 HarFok:  IExCor= 402 AccDes= 0.00D+00 IRadAn=         5 IDoV=1
 ScaDFX=  1.000000  1.000000  1.000000  1.000000
 Initial guess orbital symmetries:
       Occupied  (A) (A) (A) (A) (A) (A) (A) (A) (A) (A) (A) (A)
                 (A) (A) (A) (A) (A) (A) (A) (A) (A) (A) (A) (A)
                 (A) (A) (A) (A) (A) (A) (A) (A) (A) (A) (A) (A)
                 (A) (A) (A) (A) (A) (A) (A) (A) (A) (A) (A) (A)
                 (A) (A) (A) (A) (A) (A) (A) (A) (A)
       Virtual   (A) (A) (A) (A) (A) (A) (A) (A) (A) (A) (A) (A)
                 (A) (A) (A) (A) (A) (A) (A) (A) (A) (A) (A) (A)
                 (A) (A) (A) (A) (A) (A) (A) (A) (A) (A) (A) (A)
                 (A) (A) (A) (A) (A) (A) (A) (A) (A) (A) (A) (A)
                 (A) (A) (A) (A) (A) (A) (A) (A) (A) (A) (A) (A)
                 (A) (A) (A) (A) (A) (A) (A) (A) (A) (A) (A) (A)
                 (A) (A) (A) (A) (A) (A) (A) (A) (A) (A) (A) (A)
                 (A) (A) (A) (A) (A) (A) (A) (A) (A) (A) (A) (A)
                 (A) (A) (A) (A) (A) (A) (A) (A) (A) (A) (A) (A)
                 (A) (A) (A) (A) (A) (A) (A) (A) (A) (A) (A) (A)
                 (A) (A) (A) (A) (A) (A) (A) (A) (A) (A) (A) (A)
                 (A) (A) (A) (A) (A) (A) (A) (A) (A) (A)
 The electronic state of the initial guess is 1-A.
 Requested convergence on RMS density matrix=1.00D-04 within 128 cycles.
 Requested convergence on MAX density matrix=1.00D-02.
 Requested convergence on             energy=1.00D-02.
 No special actions if energy rises.
 SCF Done:  E(RB+HF-LYP) =  -2750.19821044     A.U. after    7 cycles
             Convg  =    0.3778D-04             -V/T =  2.0029
             S**2   =   0.0000

 **********************************************************************

            Population analysis using the SCF density.

 **********************************************************************

 Orbital symmetries:
       Occupied  (A) (A) (A) (A) (A) (A) (A) (A) (A) (A) (A) (A)
                 (A) (A) (A) (A) (A) (A) (A) (A) (A) (A) (A) (A)
                 (A) (A) (A) (A) (A) (A) (A) (A) (A) (A) (A) (A)
                 (A) (A) (A) (A) (A) (A) (A) (A) (A) (A) (A) (A)
                 (A) (A) (A) (A) (A) (A) (A) (A) (A)
       Virtual   (A) (A) (A) (A) (A) (A) (A) (A) (A) (A) (A) (A)
                 (A) (A) (A) (A) (A) (A) (A) (A) (A) (A) (A) (A)
                 (A) (A) (A) (A) (A) (A) (A) (A) (A) (A) (A) (A)
                 (A) (A) (A) (A) (A) (A) (A) (A) (A) (A) (A) (A)
                 (A) (A) (A) (A) (A) (A) (A) (A) (A) (A) (A) (A)
                 (A) (A) (A) (A) (A) (A) (A) (A) (A) (A) (A) (A)
                 (A) (A) (A) (A) (A) (A) (A) (A) (A) (A) (A) (A)
                 (A) (A) (A) (A) (A) (A) (A) (A) (A) (A) (A) (A)
                 (A) (A) (A) (A) (A) (A) (A) (A) (A) (A) (A) (A)
                 (A) (A) (A) (A) (A) (A) (A) (A) (A) (A) (A) (A)
                 (A) (A) (A) (A) (A) (A) (A) (A) (A) (A) (A) (A)
                 (A) (A) (A) (A) (A) (A) (A) (A) (A) (A)
 The electronic state is 1-A.
 Alpha  occ. eigenvalues -- -145.52886-145.49503-145.49493 -77.24302 -19.22793
 Alpha  occ. eigenvalues --  -19.22506 -19.21326 -19.21322 -19.19021 -15.59679
 Alpha  occ. eigenvalues --  -15.56365 -15.56355 -12.72861 -12.72857 -12.72844
 Alpha  occ. eigenvalues --  -12.69592 -12.69582 -12.69566 -12.69556 -12.69455
 Alpha  occ. eigenvalues --  -12.69445  -6.69590  -4.85970  -4.85894  -4.85454
 Alpha  occ. eigenvalues --   -1.96714  -1.93608  -1.93573  -1.24676  -1.23979
 Alpha  occ. eigenvalues --   -1.23939  -1.22273  -1.21278  -1.21226  -1.21051
 Alpha  occ. eigenvalues --   -1.21025  -1.20592  -1.06713  -1.05360  -0.99867
 Alpha  occ. eigenvalues --   -0.99595  -0.86447  -0.61783  -0.49595  -0.49235
 Alpha  occ. eigenvalues --   -0.48395  -0.46089  -0.44982  -0.43561  -0.42566
 Alpha  occ. eigenvalues --   -0.41978  -0.37837  -0.37834  -0.34587  -0.33870
 Alpha  occ. eigenvalues --   -0.32215  -0.31068
 Alpha virt. eigenvalues --   -0.20490  -0.17973  -0.17401  -0.13047  -0.12113
 Alpha virt. eigenvalues --   -0.11132  -0.09669  -0.08664  -0.08335  -0.07573
 Alpha virt. eigenvalues --   -0.06944  -0.06821  -0.06582  -0.06263  -0.05324
 Alpha virt. eigenvalues --   -0.05149  -0.04819  -0.04472  -0.04468  -0.04013
 Alpha virt. eigenvalues --   -0.03941  -0.03763  -0.03231  -0.03169  -0.02968
 Alpha virt. eigenvalues --   -0.02685  -0.01945  -0.00440   0.00560   0.01166
 Alpha virt. eigenvalues --    0.02331   0.02491   0.03648   0.04437   0.04807
 Alpha virt. eigenvalues --    0.04976   0.05025   0.05611   0.06120   0.06243
 Alpha virt. eigenvalues --    0.07164   0.07739   0.07855   0.08485   0.08962
 Alpha virt. eigenvalues --    0.09239   0.09950   0.10314   0.10782   0.10824
 Alpha virt. eigenvalues --    0.14425   0.14433   0.15135   0.15491   0.17006
 Alpha virt. eigenvalues --    0.18161   0.19205   0.20545   0.21565   0.21607
 Alpha virt. eigenvalues --    0.22782   0.22882   0.25160   0.25498   0.26934
 Alpha virt. eigenvalues --    0.28232   0.28248   0.29202   0.32230   0.33094
 Alpha virt. eigenvalues --    0.33404   0.34933   0.37598   0.37883   0.39086
 Alpha virt. eigenvalues --    0.40799   0.45276   0.46834   0.47676   0.53193
 Alpha virt. eigenvalues --    0.57465   0.58560   0.62391   0.66980   0.67846
 Alpha virt. eigenvalues --    0.73397   0.76086   0.88125   0.89055   0.94184
 Alpha virt. eigenvalues --    1.00750   1.12055   1.14051   1.14903   1.15033
 Alpha virt. eigenvalues --    1.17230   1.18759   1.19112   1.19488   1.19930
 Alpha virt. eigenvalues --    1.22530   1.23272   1.27806   1.28763   1.29184
 Alpha virt. eigenvalues --    1.35371   1.52140   1.52982   1.55316   1.56134
 Alpha virt. eigenvalues --    1.56704   1.64424   1.73001   1.73311   1.77170
 Alpha virt. eigenvalues --    1.77669   1.78433   1.79855   1.80524   1.80893
 Alpha virt. eigenvalues --    1.83343   1.84892   1.84947   1.87137   1.88457
 Alpha virt. eigenvalues --    1.90146   1.95334   1.97371   2.02596   2.10427
 Alpha virt. eigenvalues --    2.19640   2.21209   2.39268   2.49169   2.70223
 Alpha virt. eigenvalues --    3.04161   3.51733   4.03097   4.05735   4.10361
 Alpha virt. eigenvalues --    4.15827   4.19110
          Condensed to atoms (all electrons):
              1          2          3          4          5          6
     1  O    9.109041   0.086025  -0.429696   0.016675   0.024545   0.032618
     2  O    0.086025   9.108260  -0.429412   0.016657   0.024629   0.116329
     3  P   -0.429696  -0.429412  15.060639   0.009163   0.207143  -0.076609
     4  O    0.016675   0.016657   0.009163   8.693378   0.102359   0.014765
     5  Ca   0.024545   0.024629   0.207143   0.102359  18.326249  -0.020684
     6  Ca   0.032618   0.116329  -0.076609   0.014765  -0.020684  18.264131
     7  O    0.002562   0.002496  -0.020516   0.002746  -0.000949   0.104570
     8  O    0.014295   0.014349  -0.048123  -0.000589  -0.000048   0.105838
     9  Ca   0.116083   0.032479  -0.076506   0.014706  -0.020655  -0.025921
              7          8          9
     1  O    0.002562   0.014295   0.116083
     2  O    0.002496   0.014349   0.032479
     3  P   -0.020516  -0.048123  -0.076506
     4  O    0.002746  -0.000589   0.014706
     5  Ca  -0.000949  -0.000048  -0.020655
     6  Ca   0.104570   0.105838  -0.025921
     7  O    8.466564  -0.004057   0.104590
     8  O   -0.004057   8.472342   0.105855
     9  Ca   0.104590   0.105855  18.263971
 Mulliken atomic charges:
              1
     1  O   -0.972148
     2  O   -0.971811
     3  P    0.803915
     4  O   -0.869859
     5  Ca   1.357411
     6  Ca   1.484964
     7  O   -0.658006
     8  O   -0.659861
     9  Ca   1.485397
 Sum of Mulliken charges=   1.00000
 Atomic charges with hydrogens summed into heavy atoms:
              1
     1  O   -0.972148
     2  O   -0.971811
     3  P    0.803915
     4  O   -0.869859
     5  Ca   1.357411
     6  Ca   1.484964
     7  O   -0.658006
     8  O   -0.659861
     9  Ca   1.485397
 Sum of Mulliken charges=   1.00000
 Electronic spatial extent (au):  <R**2>=  2287.8778
 Charge=     1.0000 electrons
 Dipole moment (field-independent basis, Debye):
    X=     1.3331    Y=    -0.0215    Z=    -8.1494  Tot=     8.2578
 Quadrupole moment (field-independent basis, Debye-Ang):
   XX=   -62.1042   YY=   -36.3252   ZZ=   -75.9345
   XY=    -0.0016   XZ=   -28.8004   YZ=     0.0137
 Traceless Quadrupole moment (field-independent basis, Debye-Ang):
   XX=    -3.9829   YY=    21.7961   ZZ=   -17.8132
   XY=    -0.0016   XZ=   -28.8004   YZ=     0.0137
 Octapole moment (field-independent basis, Debye-Ang**2):
  XXX=   117.8447  YYY=    -0.0260  ZZZ=   -33.8288  XYY=   -94.8226
  XXY=    -0.2934  XXZ=   -76.7205  XZZ=    20.1018  YZZ=    -0.0479
  YYZ=    -7.5926  XYZ=     0.0908
 Hexadecapole moment (field-independent basis, Debye-Ang**3):
 XXXX= -1594.8848 YYYY=  -390.1990 ZZZZ=  -361.0942 XXXY=     0.0396
 XXXZ=  -265.2444 YYYX=     0.0830 YYYZ=    -0.0220 ZZZX=   -88.6011
 ZZZY=    -0.0082 XXYY=  -243.9211 XXZZ=  -320.9850 YYZZ=  -148.1140
 XXYZ=     0.0957 YYXZ=   -11.4695 ZZXY=    -0.0370
 N-N= 1.021607183457D+03 E-N=-8.544946097669D+03  KE= 2.742223808387D+03
 Merz-Kollman atomic radii used.
 Read replacement radii for each type of atom:
 Rad(20) =   1.188000000000D+00
 Atom Element Radius
    1     8    1.40
    2     8    1.40
    3    15    1.80
    4     8    1.40
    5    20    1.19
    6    20    1.19
    7     8    1.40
    8     8    1.40
    9    20    1.19

 **********************************************************************

            Electrostatic Properties Using The SCF Density

 **********************************************************************

       Atomic Center    1 is at   0.756128 -1.249721 -0.033460
       Atomic Center    2 is at   0.758661  1.250239 -0.036470
       Atomic Center    3 is at   0.972239  0.001419  1.110400
       Atomic Center    4 is at   2.542529  0.000147  1.245290
       Atomic Center    5 is at   2.534329 -0.002203 -1.021290
       Atomic Center    6 is at  -1.439559  1.800831 -0.044640
       Atomic Center    7 is at  -2.632641  0.001152  0.531720
       Atomic Center    8 is at  -2.378771  0.000472 -1.015500
       Atomic Center    9 is at  -1.442313 -1.800609 -0.043500
     767 points will be used for fitting atomic charges
 Fitting point charges to eletrostatic potential
 Charges from ESP fit, RMS=   0.00683 RRMS=   0.04450:
 Charge=   1.00000 Dipole=     1.7693    -0.0300    -8.3238 Tot=     8.5098
              1
     1  O   -1.069923
     2  O   -1.073498
     3  P    0.282282
     4  O   -0.569314
     5  Ca   1.607125
     6  Ca   1.719010
     7  O   -0.812867
     8  O   -0.800197
     9  Ca   1.717383
 -----------------------------------------------------------------

              Electrostatic Properties (Atomic Units)

 -----------------------------------------------------------------
    Center     Electric         -------- Electric Field --------
               Potential          X             Y             Z
 -----------------------------------------------------------------
    1 Atom    -22.250118
    2 Atom    -22.250161
    3 Atom    -53.968850
    4 Atom    -22.276028
    5 Atom    -80.013556
    6 Atom    -80.045471
    7 Atom    -22.247577
    8 Atom    -22.240007
    9 Atom    -80.045364
 -----------------------------------------------------------------
 1\1\GINC-N033\SP\RB3LYP\6-31+G(d,p)\Ca3O5P1(1+)\TIMN\12-Jun-2015\0\\# 
 b3lyp/6-31+G(d,p) int=ultrafine pop=(ReadRadii,MK)\\mol_17.26.15.pdbcc
 _plusQ.z58374.zip.xyz\\1,1\O,0,0.75613,-1.24972,-0.03346\O,0,0.75866,1
 .25024,-0.03647\P,0,0.97224,0.00142,1.1104\O,0,2.54253,0.00015,1.24529
 \Ca,0,2.53433,-0.0022,-1.02129\Ca,0,-1.43956,1.80083,-0.04464\O,0,-2.6
 3264,0.00115,0.53172\O,0,-2.37877,0.00047,-1.0155\Ca,0,-1.44231,-1.800
 61,-0.0435\\Version=EM64T-G03RevE.01\State=1-A\HF=-2750.1982104\RMSD=3
 .778e-05\Thermal=0.\Dipole=0.5244847,-0.0084388,-3.2062253\PG=C01 [X(C
 a3O5P1)]\\@


 FIREWORKS ENDED
 AND SPECTATORS GONE AWAY....
 AH, HOW VAST AND DARK
                     SHIKI
 Job cpu time:  0 days  0 hours  1 minutes 50.2 seconds.
 File lengths (MBytes):  RWF=     36 Int=      0 D2E=      0 Chk=     11 Scr=      1
 Normal termination of Gaussian 03 at Fri Jun 12 17:59:37 2015.
