 Entering Gaussian System, Link 0=/home/timn/tmp/g03.e01/g03
 Input=mol_16.4.17.pdbc_plusQ.out.z51568.zip.xyz.gjf
 Output=mol_16.4.17.pdbc_plusQ.out.z51568.zip.xyz.out
 Initial command:
 /home/timn/tmp/g03.e01/l1.exe /home/timn/tmp/g03.e01/Gau-17782.inp -scrdir=/home/timn/tmp/g03.e01/
 Default is to use a total of   2 processors:
                                2 via shared-memory
                                1 via Linda
 Entering Link 1 = /home/timn/tmp/g03.e01/l1.exe PID=     17784.
  
 Copyright (c) 1988,1990,1992,1993,1995,1998,2003,2004,2007, Gaussian, Inc.
                  All Rights Reserved.
  
 This is the Gaussian(R) 03 program.  It is based on the
 the Gaussian(R) 98 system (copyright 1998, Gaussian, Inc.),
 the Gaussian(R) 94 system (copyright 1995, Gaussian, Inc.),
 the Gaussian 92(TM) system (copyright 1992, Gaussian, Inc.),
 the Gaussian 90(TM) system (copyright 1990, Gaussian, Inc.),
 the Gaussian 88(TM) system (copyright 1988, Gaussian, Inc.),
 the Gaussian 86(TM) system (copyright 1986, Carnegie Mellon
 University), and the Gaussian 82(TM) system (copyright 1983,
 Carnegie Mellon University). Gaussian is a federally registered
 trademark of Gaussian, Inc.
  
 This software contains proprietary and confidential information,
 including trade secrets, belonging to Gaussian, Inc.
  
 This software is provided under written license and may be
 used, copied, transmitted, or stored only in accord with that
 written license.
  
 The following legend is applicable only to US Government
 contracts under FAR:
  
                    RESTRICTED RIGHTS LEGEND
  
 Use, reproduction and disclosure by the US Government is
 subject to restrictions as set forth in subparagraphs (a)
 and (c) of the Commercial Computer Software - Restricted
 Rights clause in FAR 52.227-19.
  
 Gaussian, Inc.
 340 Quinnipiac St., Bldg. 40, Wallingford CT 06492
  
  
 ---------------------------------------------------------------
 Warning -- This program may not be used in any manner that
 competes with the business of Gaussian, Inc. or will provide
 assistance to any competitor of Gaussian, Inc.  The licensee
 of this program is prohibited from giving any competitor of
 Gaussian, Inc. access to this program.  By using this program,
 the user acknowledges that Gaussian, Inc. is engaged in the
 business of creating and licensing software in the field of
 computational chemistry and represents and warrants to the
 licensee that it is not a competitor of Gaussian, Inc. and that
 it will not use this program in any manner prohibited above.
 ---------------------------------------------------------------
  

 Cite this work as:
 Gaussian 03, Revision E.01,
 M. J. Frisch, G. W. Trucks, H. B. Schlegel, G. E. Scuseria, 
 M. A. Robb, J. R. Cheeseman, J. A. Montgomery, Jr., T. Vreven, 
 K. N. Kudin, J. C. Burant, J. M. Millam, S. S. Iyengar, J. Tomasi, 
 V. Barone, B. Mennucci, M. Cossi, G. Scalmani, N. Rega, 
 G. A. Petersson, H. Nakatsuji, M. Hada, M. Ehara, K. Toyota, 
 R. Fukuda, J. Hasegawa, M. Ishida, T. Nakajima, Y. Honda, O. Kitao, 
 H. Nakai, M. Klene, X. Li, J. E. Knox, H. P. Hratchian, J. B. Cross, 
 V. Bakken, C. Adamo, J. Jaramillo, R. Gomperts, R. E. Stratmann, 
 O. Yazyev, A. J. Austin, R. Cammi, C. Pomelli, J. W. Ochterski, 
 P. Y. Ayala, K. Morokuma, G. A. Voth, P. Salvador, J. J. Dannenberg, 
 V. G. Zakrzewski, S. Dapprich, A. D. Daniels, M. C. Strain, 
 O. Farkas, D. K. Malick, A. D. Rabuck, K. Raghavachari, 
 J. B. Foresman, J. V. Ortiz, Q. Cui, A. G. Baboul, S. Clifford, 
 J. Cioslowski, B. B. Stefanov, G. Liu, A. Liashenko, P. Piskorz, 
 I. Komaromi, R. L. Martin, D. J. Fox, T. Keith, M. A. Al-Laham, 
 C. Y. Peng, A. Nanayakkara, M. Challacombe, P. M. W. Gill, 
 B. Johnson, W. Chen, M. W. Wong, C. Gonzalez, and J. A. Pople, 
 Gaussian, Inc., Wallingford CT, 2004.
 
 ******************************************
 Gaussian 03:  EM64T-G03RevE.01 11-Sep-2007
                12-Jun-2015 
 ******************************************
 %nproc=2
 Will use up to    2 processors via shared memory.
 Default route:  MP2=Direct MaxDisk=2000MB
 ----------------------------------------------------
 # b3lyp/6-31+G(d,p) int=ultrafine pop=(ReadRadii,MK)
 ----------------------------------------------------

 Warning!  SCF SP cutoffs with diffuse functions may be unreliable.
 Consider SCF=Tight

 1/38=1/1;
 2/17=6,18=5,40=1/2;
 3/5=1,6=6,7=111,11=2,16=1,25=1,30=1,74=-5,75=5/1,2,3;
 4//1;
 5/5=2,32=1,38=5/2;
 6/7=2,8=2,9=2,10=2,15=8,20=101,28=1/1,2;
 99/5=1,9=1/99;
 -----------------------------------------
 mol_16.4.17.pdbc_plusQ.out.z51568.zip.xyz
 -----------------------------------------
 Symbolic Z-matrix:
 Charge =  1 Multiplicity = 1
 Ca                    2.06984  -0.75308   0.00001 
 O                    -0.0001   -0.33152  -1.19655 
 P                    -0.00003   0.79917   0.00001 
 O                     1.38165   1.46418  -0.00074 
 O                    -1.38171   1.4641   -0.00044 
 Ca                   -2.06983  -0.75309   0. 
 O                     0.00021  -0.32977   1.1977 
 
                          Input orientation:                          
 ---------------------------------------------------------------------
 Center     Atomic     Atomic              Coordinates (Angstroms)
 Number     Number      Type              X           Y           Z
 ---------------------------------------------------------------------
    1         20             0        2.069840   -0.753080    0.000010
    2          8             0       -0.000100   -0.331520   -1.196550
    3         15             0       -0.000030    0.799170    0.000010
    4          8             0        1.381650    1.464180   -0.000740
    5          8             0       -1.381710    1.464100   -0.000440
    6         20             0       -2.069830   -0.753090    0.000000
    7          8             0        0.000210   -0.329770    1.197700
 ---------------------------------------------------------------------
                    Distance matrix (angstroms):
                    1          2          3          4          5
     1  Ca   0.000000
     2  O    2.427781   0.000000
     3  P    2.587246   1.646273   0.000000
     4  O    2.321605   2.561978   1.533388   0.000000
     5  O    4.102327   2.561987   1.533353   2.763360   0.000000
     6  Ca   4.139670   2.427599   2.587196   4.102317   2.321517
     7  O    2.428378   2.394251   1.645894   2.561814   2.561877
                    6          7
     6  Ca   0.000000
     7  O    2.428734   0.000000
 Stoichiometry    Ca2O4P(1+)
 Framework group  C1[X(Ca2O4P)]
 Deg. of freedom    15
 Full point group                 C1
 Largest Abelian subgroup         C1      NOp   1
 Largest concise Abelian subgroup C1      NOp   1
                         Standard orientation:                         
 ---------------------------------------------------------------------
 Center     Atomic     Atomic              Coordinates (Angstroms)
 Number     Number      Type              X           Y           Z
 ---------------------------------------------------------------------
    1         20             0        2.069839   -0.753078    0.000009
    2          8             0       -0.000101   -0.331521   -1.196551
    3         15             0       -0.000033    0.799169    0.000009
    4          8             0        1.381646    1.464181   -0.000741
    5          8             0       -1.381714    1.464097   -0.000441
    6         20             0       -2.069831   -0.753094   -0.000001
    7          8             0        0.000209   -0.329771    1.197699
 ---------------------------------------------------------------------
 Rotational constants (GHZ):      2.7612447      1.1247351      0.9347315
 Standard basis: 6-31+G(d,p) (6D, 7F)
 There are   153 symmetry adapted basis functions of A   symmetry.
 Integral buffers will be    131072 words long.
 Raffenetti 2 integral format.
 Two-electron integral symmetry is turned on.
   153 basis functions,   344 primitive gaussians,   153 cartesian basis functions
    43 alpha electrons       43 beta electrons
       nuclear repulsion energy       666.8113754179 Hartrees.
 NAtoms=    7 NActive=    7 NUniq=    7 SFac= 7.50D-01 NAtFMM=   80 NAOKFM=F Big=F
 One-electron integrals computed using PRISM.
 NBasis=   153 RedAO= T  NBF=   153
 NBsUse=   153 1.00D-06 NBFU=   153
 Harris functional with IExCor=  402 diagonalized for initial guess.
 ExpMin= 7.10D-03 ExpMax= 3.53D+04 ExpMxC= 5.30D+03 IAcc=3 IRadAn=         5 AccDes= 0.00D+00
 HarFok:  IExCor= 402 AccDes= 0.00D+00 IRadAn=         5 IDoV=1
 ScaDFX=  1.000000  1.000000  1.000000  1.000000
 Initial guess orbital symmetries:
       Occupied  (A) (A) (A) (A) (A) (A) (A) (A) (A) (A) (A) (A)
                 (A) (A) (A) (A) (A) (A) (A) (A) (A) (A) (A) (A)
                 (A) (A) (A) (A) (A) (A) (A) (A) (A) (A) (A) (A)
                 (A) (A) (A) (A) (A) (A) (A)
       Virtual   (A) (A) (A) (A) (A) (A) (A) (A) (A) (A) (A) (A)
                 (A) (A) (A) (A) (A) (A) (A) (A) (A) (A) (A) (A)
                 (A) (A) (A) (A) (A) (A) (A) (A) (A) (A) (A) (A)
                 (A) (A) (A) (A) (A) (A) (A) (A) (A) (A) (A) (A)
                 (A) (A) (A) (A) (A) (A) (A) (A) (A) (A) (A) (A)
                 (A) (A) (A) (A) (A) (A) (A) (A) (A) (A) (A) (A)
                 (A) (A) (A) (A) (A) (A) (A) (A) (A) (A) (A) (A)
                 (A) (A) (A) (A) (A) (A) (A) (A) (A) (A) (A) (A)
                 (A) (A) (A) (A) (A) (A) (A) (A) (A) (A) (A) (A)
                 (A) (A)
 The electronic state of the initial guess is 1-A.
 Requested convergence on RMS density matrix=1.00D-04 within 128 cycles.
 Requested convergence on MAX density matrix=1.00D-02.
 Requested convergence on             energy=1.00D-02.
 No special actions if energy rises.
 SCF Done:  E(RB+HF-LYP) =  -1997.39007840     A.U. after    8 cycles
             Convg  =    0.1139D-04             -V/T =  2.0031
             S**2   =   0.0000

 **********************************************************************

            Population analysis using the SCF density.

 **********************************************************************

 Orbital symmetries:
       Occupied  (A) (A) (A) (A) (A) (A) (A) (A) (A) (A) (A) (A)
                 (A) (A) (A) (A) (A) (A) (A) (A) (A) (A) (A) (A)
                 (A) (A) (A) (A) (A) (A) (A) (A) (A) (A) (A) (A)
                 (A) (A) (A) (A) (A) (A) (A)
       Virtual   (A) (A) (A) (A) (A) (A) (A) (A) (A) (A) (A) (A)
                 (A) (A) (A) (A) (A) (A) (A) (A) (A) (A) (A) (A)
                 (A) (A) (A) (A) (A) (A) (A) (A) (A) (A) (A) (A)
                 (A) (A) (A) (A) (A) (A) (A) (A) (A) (A) (A) (A)
                 (A) (A) (A) (A) (A) (A) (A) (A) (A) (A) (A) (A)
                 (A) (A) (A) (A) (A) (A) (A) (A) (A) (A) (A) (A)
                 (A) (A) (A) (A) (A) (A) (A) (A) (A) (A) (A) (A)
                 (A) (A) (A) (A) (A) (A) (A) (A) (A) (A) (A) (A)
                 (A) (A) (A) (A) (A) (A) (A) (A) (A) (A) (A) (A)
                 (A) (A)
 The electronic state is 1-A.
 Alpha  occ. eigenvalues -- -145.57697-145.57695 -77.31326 -19.22613 -19.22605
 Alpha  occ. eigenvalues --  -19.22311 -19.22275 -15.64398 -15.64396 -12.77597
 Alpha  occ. eigenvalues --  -12.77596 -12.77584 -12.77583 -12.77583 -12.77581
 Alpha  occ. eigenvalues --   -6.76048  -4.92396  -4.92389  -4.92312  -2.01227
 Alpha  occ. eigenvalues --   -2.01220  -1.29334  -1.28820  -1.28442  -1.28441
 Alpha  occ. eigenvalues --   -1.28386  -1.28337  -1.12988  -1.05493  -1.03663
 Alpha  occ. eigenvalues --   -1.01681  -0.62395  -0.53172  -0.53140  -0.52457
 Alpha  occ. eigenvalues --   -0.45688  -0.45584  -0.45184  -0.42425  -0.40458
 Alpha  occ. eigenvalues --   -0.39277  -0.37993  -0.35883
 Alpha virt. eigenvalues --   -0.23655  -0.22444  -0.14869  -0.13487  -0.12801
 Alpha virt. eigenvalues --   -0.12507  -0.10778  -0.08515  -0.07910  -0.06635
 Alpha virt. eigenvalues --   -0.05355  -0.05333  -0.04645  -0.04456  -0.04312
 Alpha virt. eigenvalues --   -0.03597  -0.02858  -0.01980  -0.01523  -0.00806
 Alpha virt. eigenvalues --    0.00092   0.00399   0.01146   0.02146   0.02468
 Alpha virt. eigenvalues --    0.02605   0.02879   0.03017   0.03634   0.04696
 Alpha virt. eigenvalues --    0.05027   0.05158   0.06598   0.07259   0.08283
 Alpha virt. eigenvalues --    0.08748   0.11358   0.12095   0.14127   0.14908
 Alpha virt. eigenvalues --    0.15685   0.15771   0.17403   0.17728   0.17929
 Alpha virt. eigenvalues --    0.19648   0.21599   0.22268   0.24355   0.27087
 Alpha virt. eigenvalues --    0.27893   0.29849   0.31741   0.32162   0.32425
 Alpha virt. eigenvalues --    0.35789   0.40321   0.42918   0.44629   0.50836
 Alpha virt. eigenvalues --    0.53417   0.56526   0.56999   0.64776   0.70048
 Alpha virt. eigenvalues --    0.79475   0.90035   0.98080   0.98333   1.10011
 Alpha virt. eigenvalues --    1.12196   1.12846   1.14701   1.15999   1.18955
 Alpha virt. eigenvalues --    1.20101   1.24884   1.24924   1.25835   1.26352
 Alpha virt. eigenvalues --    1.29043   1.44355   1.48577   1.54113   1.68281
 Alpha virt. eigenvalues --    1.70712   1.72873   1.73112   1.76257   1.78214
 Alpha virt. eigenvalues --    1.78657   1.80770   1.81668   1.82252   1.82891
 Alpha virt. eigenvalues --    1.91065   1.95764   1.98547   2.14280   2.15028
 Alpha virt. eigenvalues --    2.25173   2.53201   2.59825   2.74524   2.81922
 Alpha virt. eigenvalues --    3.47282   4.00151   4.02593   4.11993   4.32658
          Condensed to atoms (all electrons):
              1          2          3          4          5          6
     1  Ca  18.228316   0.090607   0.053321   0.051081   0.021985  -0.018836
     2  O    0.090607   8.922460  -0.045724  -0.040439  -0.040439   0.090637
     3  P    0.053321  -0.045724  12.905586   0.178691   0.178643   0.053340
     4  O    0.051081  -0.040439   0.178691   8.823622  -0.168510   0.021980
     5  O    0.021985  -0.040439   0.178643  -0.168510   8.823735   0.051066
     6  Ca  -0.018836   0.090637   0.053340   0.021980   0.051066  18.228319
     7  O    0.090490   0.040932  -0.045924  -0.040438  -0.040466   0.090451
              7
     1  Ca   0.090490
     2  O    0.040932
     3  P   -0.045924
     4  O   -0.040438
     5  O   -0.040466
     6  Ca   0.090451
     7  O    8.923067
 Mulliken atomic charges:
              1
     1  Ca   1.483036
     2  O   -1.018033
     3  P    1.722068
     4  O   -0.825987
     5  O   -0.826012
     6  Ca   1.483042
     7  O   -1.018113
 Sum of Mulliken charges=   1.00000
 Atomic charges with hydrogens summed into heavy atoms:
              1
     1  Ca   1.483036
     2  O   -1.018033
     3  P    1.722068
     4  O   -0.825987
     5  O   -0.826012
     6  Ca   1.483042
     7  O   -1.018113
 Sum of Mulliken charges=   1.00000
 Electronic spatial extent (au):  <R**2>=  1135.2156
 Charge=     1.0000 electrons
 Dipole moment (field-independent basis, Debye):
    X=     0.0000    Y=   -13.9789    Z=    -0.0012  Tot=    13.9789
 Quadrupole moment (field-independent basis, Debye-Ang):
   XX=     3.5528   YY=   -55.5650   ZZ=   -66.7978
   XY=     0.0004   XZ=     0.0000   YZ=    -0.0018
 Traceless Quadrupole moment (field-independent basis, Debye-Ang):
   XX=    43.1562   YY=   -15.9617   ZZ=   -27.1945
   XY=     0.0004   XZ=     0.0000   YZ=    -0.0018
 Octapole moment (field-independent basis, Debye-Ang**2):
  XXX=     0.0016  YYY=   -48.5315  ZZZ=    -0.0155  XYY=    -0.0012
  XXY=   -85.8165  XXZ=     0.0090  XZZ=    -0.0010  YZZ=    -4.0759
  YYZ=     0.0174  XYZ=     0.0026
 Hexadecapole moment (field-independent basis, Debye-Ang**3):
 XXXX=  -325.0917 YYYY=  -337.2134 ZZZZ=  -197.0009 XXXY=     0.0021
 XXXZ=     0.0043 YYYX=    -0.0025 YYYZ=     0.0019 ZZZX=    -0.0029
 ZZZY=    -0.0128 XXYY=  -143.4237 XXZZ=  -133.2383 YYZZ=   -83.9852
 XXYZ=     0.0089 YYXZ=     0.0027 ZZXY=    -0.0007
 N-N= 6.668113754179D+02 E-N=-6.052233845242D+03  KE= 1.991124631816D+03
 Merz-Kollman atomic radii used.
 Read replacement radii for each type of atom:
 Rad(20) =   1.188000000000D+00
 Atom Element Radius
    1    20    1.19
    2     8    1.40
    3    15    1.80
    4     8    1.40
    5     8    1.40
    6    20    1.19
    7     8    1.40

 **********************************************************************

            Electrostatic Properties Using The SCF Density

 **********************************************************************

       Atomic Center    1 is at   2.069839 -0.753078  0.000009
       Atomic Center    2 is at  -0.000101 -0.331521 -1.196551
       Atomic Center    3 is at  -0.000033  0.799169  0.000009
       Atomic Center    4 is at   1.381646  1.464181 -0.000741
       Atomic Center    5 is at  -1.381714  1.464097 -0.000441
       Atomic Center    6 is at  -2.069831 -0.753094 -0.000001
       Atomic Center    7 is at   0.000209 -0.329771  1.197699
     594 points will be used for fitting atomic charges
 Fitting point charges to eletrostatic potential
 Charges from ESP fit, RMS=   0.00408 RRMS=   0.02333:
 Charge=   1.00000 Dipole=     0.0004   -14.0450    -0.0012 Tot=    14.0450
              1
     1  Ca   1.706039
     2  O   -1.209961
     3  P    1.748394
     4  O   -0.869860
     5  O   -0.872283
     6  Ca   1.707563
     7  O   -1.209892
 -----------------------------------------------------------------

              Electrostatic Properties (Atomic Units)

 -----------------------------------------------------------------
    Center     Electric         -------- Electric Field --------
               Potential          X             Y             Z
 -----------------------------------------------------------------
    1 Atom    -79.963695
    2 Atom    -22.240426
    3 Atom    -53.892438
    4 Atom    -22.238839
    5 Atom    -22.238961
    6 Atom    -79.963690
    7 Atom    -22.241376
 -----------------------------------------------------------------
 1\1\GINC-N021\SP\RB3LYP\6-31+G(d,p)\Ca2O4P1(1+)\TIMN\12-Jun-2015\0\\# 
 b3lyp/6-31+G(d,p) int=ultrafine pop=(ReadRadii,MK)\\mol_16.4.17.pdbc_p
 lusQ.out.z51568.zip.xyz\\1,1\Ca,0,2.06984,-0.75308,0.00001\O,0,-0.0001
 ,-0.33152,-1.19655\P,0,-0.00003,0.79917,0.00001\O,0,1.38165,1.46418,-0
 .00074\O,0,-1.38171,1.4641,-0.00044\Ca,0,-2.06983,-0.75309,0.\O,0,0.00
 021,-0.32977,1.1977\\Version=EM64T-G03RevE.01\State=1-A\HF=-1997.39007
 84\RMSD=1.139e-05\Thermal=0.\Dipole=-0.0000193,-5.4997275,-0.0004558\P
 G=C01 [X(Ca2O4P1)]\\@


0EVERYBODY IS IGNORANT, ONLY ON DIFFERENT SUBJECTS.
0          WILL ROGERS
 Job cpu time:  0 days  0 hours  1 minutes  1.7 seconds.
 File lengths (MBytes):  RWF=     28 Int=      0 D2E=      0 Chk=     10 Scr=      1
 Normal termination of Gaussian 03 at Fri Jun 12 17:48:23 2015.
