 Entering Gaussian System, Link 0=/home/timn/tmp/g03.e01/g03
 Input=mol_17.27.18.pdbcc_plusQ.z58485.zip.xyz.gjf
 Output=mol_17.27.18.pdbcc_plusQ.z58485.zip.xyz.out
 Initial command:
 /home/timn/tmp/g03.e01/l1.exe /home/timn/tmp/g03.e01/Gau-20077.inp -scrdir=/home/timn/tmp/g03.e01/
 Default is to use a total of   2 processors:
                                2 via shared-memory
                                1 via Linda
 Entering Link 1 = /home/timn/tmp/g03.e01/l1.exe PID=     20078.
  
 Copyright (c) 1988,1990,1992,1993,1995,1998,2003,2004,2007, Gaussian, Inc.
                  All Rights Reserved.
  
 This is the Gaussian(R) 03 program.  It is based on the
 the Gaussian(R) 98 system (copyright 1998, Gaussian, Inc.),
 the Gaussian(R) 94 system (copyright 1995, Gaussian, Inc.),
 the Gaussian 92(TM) system (copyright 1992, Gaussian, Inc.),
 the Gaussian 90(TM) system (copyright 1990, Gaussian, Inc.),
 the Gaussian 88(TM) system (copyright 1988, Gaussian, Inc.),
 the Gaussian 86(TM) system (copyright 1986, Carnegie Mellon
 University), and the Gaussian 82(TM) system (copyright 1983,
 Carnegie Mellon University). Gaussian is a federally registered
 trademark of Gaussian, Inc.
  
 This software contains proprietary and confidential information,
 including trade secrets, belonging to Gaussian, Inc.
  
 This software is provided under written license and may be
 used, copied, transmitted, or stored only in accord with that
 written license.
  
 The following legend is applicable only to US Government
 contracts under FAR:
  
                    RESTRICTED RIGHTS LEGEND
  
 Use, reproduction and disclosure by the US Government is
 subject to restrictions as set forth in subparagraphs (a)
 and (c) of the Commercial Computer Software - Restricted
 Rights clause in FAR 52.227-19.
  
 Gaussian, Inc.
 340 Quinnipiac St., Bldg. 40, Wallingford CT 06492
  
  
 ---------------------------------------------------------------
 Warning -- This program may not be used in any manner that
 competes with the business of Gaussian, Inc. or will provide
 assistance to any competitor of Gaussian, Inc.  The licensee
 of this program is prohibited from giving any competitor of
 Gaussian, Inc. access to this program.  By using this program,
 the user acknowledges that Gaussian, Inc. is engaged in the
 business of creating and licensing software in the field of
 computational chemistry and represents and warrants to the
 licensee that it is not a competitor of Gaussian, Inc. and that
 it will not use this program in any manner prohibited above.
 ---------------------------------------------------------------
  

 Cite this work as:
 Gaussian 03, Revision E.01,
 M. J. Frisch, G. W. Trucks, H. B. Schlegel, G. E. Scuseria, 
 M. A. Robb, J. R. Cheeseman, J. A. Montgomery, Jr., T. Vreven, 
 K. N. Kudin, J. C. Burant, J. M. Millam, S. S. Iyengar, J. Tomasi, 
 V. Barone, B. Mennucci, M. Cossi, G. Scalmani, N. Rega, 
 G. A. Petersson, H. Nakatsuji, M. Hada, M. Ehara, K. Toyota, 
 R. Fukuda, J. Hasegawa, M. Ishida, T. Nakajima, Y. Honda, O. Kitao, 
 H. Nakai, M. Klene, X. Li, J. E. Knox, H. P. Hratchian, J. B. Cross, 
 V. Bakken, C. Adamo, J. Jaramillo, R. Gomperts, R. E. Stratmann, 
 O. Yazyev, A. J. Austin, R. Cammi, C. Pomelli, J. W. Ochterski, 
 P. Y. Ayala, K. Morokuma, G. A. Voth, P. Salvador, J. J. Dannenberg, 
 V. G. Zakrzewski, S. Dapprich, A. D. Daniels, M. C. Strain, 
 O. Farkas, D. K. Malick, A. D. Rabuck, K. Raghavachari, 
 J. B. Foresman, J. V. Ortiz, Q. Cui, A. G. Baboul, S. Clifford, 
 J. Cioslowski, B. B. Stefanov, G. Liu, A. Liashenko, P. Piskorz, 
 I. Komaromi, R. L. Martin, D. J. Fox, T. Keith, M. A. Al-Laham, 
 C. Y. Peng, A. Nanayakkara, M. Challacombe, P. M. W. Gill, 
 B. Johnson, W. Chen, M. W. Wong, C. Gonzalez, and J. A. Pople, 
 Gaussian, Inc., Wallingford CT, 2004.
 
 ******************************************
 Gaussian 03:  EM64T-G03RevE.01 11-Sep-2007
                12-Jun-2015 
 ******************************************
 %nproc=2
 Will use up to    2 processors via shared memory.
 Default route:  MP2=Direct MaxDisk=2000MB
 ----------------------------------------------------
 # b3lyp/6-31+G(d,p) int=ultrafine pop=(ReadRadii,MK)
 ----------------------------------------------------

 Warning!  SCF SP cutoffs with diffuse functions may be unreliable.
 Consider SCF=Tight

 1/38=1/1;
 2/17=6,18=5,40=1/2;
 3/5=1,6=6,7=111,11=2,16=1,25=1,30=1,74=-5,75=5/1,2,3;
 4//1;
 5/5=2,32=1,38=5/2;
 6/7=2,8=2,9=2,10=2,15=8,20=101,28=1/1,2;
 99/5=1,9=1/99;
 ---------------------------------------
 mol_17.27.18.pdbcc_plusQ.z58485.zip.xyz
 ---------------------------------------
 Symbolic Z-matrix:
 Charge =  1 Multiplicity = 1
 O                     2.60228   0.37877  -0.00004 
 O                    -0.65708   2.44875  -0.00007 
 Ca                    1.44256   2.35032  -0.00012 
 P                     2.84229  -1.14374   0.00014 
 O                     1.51057  -1.92321   0.00021 
 Ca                   -0.73046  -2.31801  -0.00023 
 O                    -2.26278  -0.92644  -0.78645 
 O                    -2.26247  -0.92644   0.78662 
 Ca                   -2.41603   1.20492   0.00014 
 
                          Input orientation:                          
 ---------------------------------------------------------------------
 Center     Atomic     Atomic              Coordinates (Angstroms)
 Number     Number      Type              X           Y           Z
 ---------------------------------------------------------------------
    1          8             0        2.602280    0.378770   -0.000040
    2          8             0       -0.657080    2.448750   -0.000070
    3         20             0        1.442560    2.350320   -0.000120
    4         15             0        2.842290   -1.143740    0.000140
    5          8             0        1.510570   -1.923210    0.000210
    6         20             0       -0.730460   -2.318010   -0.000230
    7          8             0       -2.262780   -0.926440   -0.786450
    8          8             0       -2.262470   -0.926440    0.786620
    9         20             0       -2.416030    1.204920    0.000140
 ---------------------------------------------------------------------
                    Distance matrix (angstroms):
                    1          2          3          4          5
     1  O    0.000000
     2  O    3.861120   0.000000
     3  Ca   2.287348   2.101946   0.000000
     4  P    1.541312   5.015135   3.764000   0.000000
     5  O    2.547733   4.879830   4.274071   1.543066   0.000000
     6  Ca   4.287164   4.767325   5.149303   3.760778   2.275540
     7  O    5.098120   3.819499   5.008494   5.169882   3.981276
     8  O    5.097862   3.819433   5.008329   5.169559   3.980932
     9  Ca   5.085859   2.154302   4.025004   5.759005   5.020297
                    6          7          8          9
     6  Ca   0.000000
     7  O    2.214185   0.000000
     8  O    2.214194   1.573070   0.000000
     9  Ca   3.905404   2.277039   2.277022   0.000000
 Stoichiometry    Ca3O5P(1+)
 Framework group  C1[X(Ca3O5P)]
 Deg. of freedom    21
 Full point group                 C1
 Largest Abelian subgroup         C1      NOp   1
 Largest concise Abelian subgroup C1      NOp   1
                         Standard orientation:                         
 ---------------------------------------------------------------------
 Center     Atomic     Atomic              Coordinates (Angstroms)
 Number     Number      Type              X           Y           Z
 ---------------------------------------------------------------------
    1          8             0        2.602280    0.378779   -0.000041
    2          8             0       -0.657087    2.448748   -0.000071
    3         20             0        1.442553    2.350325   -0.000121
    4         15             0        2.842294   -1.143730    0.000139
    5          8             0        1.510577   -1.923205    0.000209
    6         20             0       -0.730452   -2.318012   -0.000231
    7          8             0       -2.262776   -0.926447   -0.786451
    8          8             0       -2.262466   -0.926447    0.786619
    9         20             0       -2.416033    1.204913    0.000139
 ---------------------------------------------------------------------
 Rotational constants (GHZ):      0.6842690      0.5473731      0.3115262
 Standard basis: 6-31+G(d,p) (6D, 7F)
 There are   199 symmetry adapted basis functions of A   symmetry.
 Integral buffers will be    131072 words long.
 Raffenetti 2 integral format.
 Two-electron integral symmetry is turned on.
   199 basis functions,   456 primitive gaussians,   199 cartesian basis functions
    57 alpha electrons       57 beta electrons
       nuclear repulsion energy       907.2952765047 Hartrees.
 NAtoms=    9 NActive=    9 NUniq=    9 SFac= 7.50D-01 NAtFMM=   80 NAOKFM=F Big=F
 One-electron integrals computed using PRISM.
 NBasis=   199 RedAO= T  NBF=   199
 NBsUse=   199 1.00D-06 NBFU=   199
 Harris functional with IExCor=  402 diagonalized for initial guess.
 ExpMin= 7.10D-03 ExpMax= 3.53D+04 ExpMxC= 5.30D+03 IAcc=3 IRadAn=         5 AccDes= 0.00D+00
 HarFok:  IExCor= 402 AccDes= 0.00D+00 IRadAn=         5 IDoV=1
 ScaDFX=  1.000000  1.000000  1.000000  1.000000
 Initial guess orbital symmetries:
       Occupied  (A) (A) (A) (A) (A) (A) (A) (A) (A) (A) (A) (A)
                 (A) (A) (A) (A) (A) (A) (A) (A) (A) (A) (A) (A)
                 (A) (A) (A) (A) (A) (A) (A) (A) (A) (A) (A) (A)
                 (A) (A) (A) (A) (A) (A) (A) (A) (A) (A) (A) (A)
                 (A) (A) (A) (A) (A) (A) (A) (A) (A)
       Virtual   (A) (A) (A) (A) (A) (A) (A) (A) (A) (A) (A) (A)
                 (A) (A) (A) (A) (A) (A) (A) (A) (A) (A) (A) (A)
                 (A) (A) (A) (A) (A) (A) (A) (A) (A) (A) (A) (A)
                 (A) (A) (A) (A) (A) (A) (A) (A) (A) (A) (A) (A)
                 (A) (A) (A) (A) (A) (A) (A) (A) (A) (A) (A) (A)
                 (A) (A) (A) (A) (A) (A) (A) (A) (A) (A) (A) (A)
                 (A) (A) (A) (A) (A) (A) (A) (A) (A) (A) (A) (A)
                 (A) (A) (A) (A) (A) (A) (A) (A) (A) (A) (A) (A)
                 (A) (A) (A) (A) (A) (A) (A) (A) (A) (A) (A) (A)
                 (A) (A) (A) (A) (A) (A) (A) (A) (A) (A) (A) (A)
                 (A) (A) (A) (A) (A) (A) (A) (A) (A) (A) (A) (A)
                 (A) (A) (A) (A) (A) (A) (A) (A) (A) (A)
 The electronic state of the initial guess is 1-A.
 Requested convergence on RMS density matrix=1.00D-04 within 128 cycles.
 Requested convergence on MAX density matrix=1.00D-02.
 Requested convergence on             energy=1.00D-02.
 No special actions if energy rises.
 EnCoef did     3 forward-backward iterations
 SCF Done:  E(RB+HF-LYP) =  -2750.19710286     A.U. after    8 cycles
             Convg  =    0.5206D-04             -V/T =  2.0029
             S**2   =   0.0000

 **********************************************************************

            Population analysis using the SCF density.

 **********************************************************************

 Orbital symmetries:
       Occupied  (A) (A) (A) (A) (A) (A) (A) (A) (A) (A) (A) (A)
                 (A) (A) (A) (A) (A) (A) (A) (A) (A) (A) (A) (A)
                 (A) (A) (A) (A) (A) (A) (A) (A) (A) (A) (A) (A)
                 (A) (A) (A) (A) (A) (A) (A) (A) (A) (A) (A) (A)
                 (A) (A) (A) (A) (A) (A) (A) (A) (A)
       Virtual   (A) (A) (A) (A) (A) (A) (A) (A) (A) (A) (A) (A)
                 (A) (A) (A) (A) (A) (A) (A) (A) (A) (A) (A) (A)
                 (A) (A) (A) (A) (A) (A) (A) (A) (A) (A) (A) (A)
                 (A) (A) (A) (A) (A) (A) (A) (A) (A) (A) (A) (A)
                 (A) (A) (A) (A) (A) (A) (A) (A) (A) (A) (A) (A)
                 (A) (A) (A) (A) (A) (A) (A) (A) (A) (A) (A) (A)
                 (A) (A) (A) (A) (A) (A) (A) (A) (A) (A) (A) (A)
                 (A) (A) (A) (A) (A) (A) (A) (A) (A) (A) (A) (A)
                 (A) (A) (A) (A) (A) (A) (A) (A) (A) (A) (A) (A)
                 (A) (A) (A) (A) (A) (A) (A) (A) (A) (A) (A) (A)
                 (A) (A) (A) (A) (A) (A) (A) (A) (A) (A) (A) (A)
                 (A) (A) (A) (A) (A) (A) (A) (A) (A) (A)
 The electronic state is 1-A.
 Alpha  occ. eigenvalues -- -145.50250-145.49522-145.43947 -77.30081 -19.27869
 Alpha  occ. eigenvalues --  -19.27705 -19.22483 -19.22478 -19.12217 -15.57113
 Alpha  occ. eigenvalues --  -15.56424 -15.50921 -12.70350 -12.70330 -12.70183
 Alpha  occ. eigenvalues --  -12.69677 -12.69631 -12.69461 -12.64146 -12.64143
 Alpha  occ. eigenvalues --  -12.63956  -6.75555  -4.92001  -4.91779  -4.91333
 Alpha  occ. eigenvalues --   -1.94318  -1.93665  -1.88350  -1.22290  -1.22015
 Alpha  occ. eigenvalues --   -1.21917  -1.21521  -1.21392  -1.20572  -1.16523
 Alpha  occ. eigenvalues --   -1.16138  -1.15618  -1.13712  -1.08482  -1.04681
 Alpha  occ. eigenvalues --   -0.86297  -0.86243  -0.67762  -0.57325  -0.52569
 Alpha  occ. eigenvalues --   -0.52498  -0.45801  -0.45759  -0.44707  -0.43916
 Alpha  occ. eigenvalues --   -0.42965  -0.40393  -0.34041  -0.32615  -0.30973
 Alpha  occ. eigenvalues --   -0.30566  -0.30366
 Alpha virt. eigenvalues --   -0.19723  -0.18400  -0.17451  -0.14060  -0.12039
 Alpha virt. eigenvalues --   -0.10578  -0.10166  -0.08901  -0.08320  -0.08286
 Alpha virt. eigenvalues --   -0.07014  -0.06735  -0.06064  -0.06001  -0.05477
 Alpha virt. eigenvalues --   -0.04804  -0.04662  -0.04653  -0.04463  -0.04385
 Alpha virt. eigenvalues --   -0.04059  -0.03940  -0.03807  -0.03370  -0.02989
 Alpha virt. eigenvalues --   -0.02859  -0.02426  -0.02383  -0.02093  -0.01505
 Alpha virt. eigenvalues --    0.01134   0.02449   0.03485   0.03966   0.04625
 Alpha virt. eigenvalues --    0.04966   0.05178   0.05424   0.06685   0.06897
 Alpha virt. eigenvalues --    0.07571   0.08285   0.08559   0.08977   0.09591
 Alpha virt. eigenvalues --    0.09661   0.10223   0.11124   0.11870   0.12152
 Alpha virt. eigenvalues --    0.12186   0.13350   0.14894   0.15200   0.15804
 Alpha virt. eigenvalues --    0.15805   0.17028   0.17570   0.18836   0.20317
 Alpha virt. eigenvalues --    0.21128   0.21592   0.22342   0.24906   0.26083
 Alpha virt. eigenvalues --    0.27490   0.29235   0.29374   0.31955   0.32615
 Alpha virt. eigenvalues --    0.34068   0.35223   0.36790   0.38313   0.38627
 Alpha virt. eigenvalues --    0.39873   0.41017   0.42724   0.48103   0.48685
 Alpha virt. eigenvalues --    0.55381   0.57399   0.58844   0.63685   0.71258
 Alpha virt. eigenvalues --    0.76051   0.83527   0.88503   0.90243   0.92407
 Alpha virt. eigenvalues --    1.01078   1.06426   1.08361   1.09630   1.11132
 Alpha virt. eigenvalues --    1.13688   1.13871   1.16696   1.16981   1.18900
 Alpha virt. eigenvalues --    1.20341   1.23521   1.24866   1.27417   1.28193
 Alpha virt. eigenvalues --    1.33664   1.40200   1.41817   1.46652   1.50143
 Alpha virt. eigenvalues --    1.53278   1.57219   1.61921   1.65480   1.65631
 Alpha virt. eigenvalues --    1.68018   1.70915   1.74552   1.78134   1.82703
 Alpha virt. eigenvalues --    1.83844   1.85273   1.85481   1.86533   1.87566
 Alpha virt. eigenvalues --    1.88927   1.89273   1.92526   2.01648   2.04829
 Alpha virt. eigenvalues --    2.09663   2.19754   2.20001   2.53834   2.68530
 Alpha virt. eigenvalues --    3.03366   3.39982   3.82441   3.90603   3.95368
 Alpha virt. eigenvalues --    4.00186   4.07315
          Condensed to atoms (all electrons):
              1          2          3          4          5          6
     1  O    8.896590   0.000081   0.059923  -0.177762  -0.072070   0.004126
     2  O    0.000081   8.822662   0.244835  -0.003166   0.001187   0.009476
     3  Ca   0.059923   0.244835  18.281480  -0.047216   0.006355   0.007279
     4  P   -0.177762  -0.003166  -0.047216  14.789205  -0.205911  -0.052474
     5  O   -0.072070   0.001187   0.006355  -0.205911   8.912440   0.066528
     6  Ca   0.004126   0.009476   0.007279  -0.052474   0.066528  18.254703
     7  O    0.000110  -0.000327   0.002480  -0.001290  -0.000200   0.117625
     8  O    0.000110  -0.000327   0.002475  -0.001278  -0.000188   0.117571
     9  Ca  -0.007321   0.172541  -0.016424   0.045712  -0.006335  -0.022731
              7          8          9
     1  O    0.000110   0.000110  -0.007321
     2  O   -0.000327  -0.000327   0.172541
     3  Ca   0.002480   0.002475  -0.016424
     4  P   -0.001290  -0.001278   0.045712
     5  O   -0.000200  -0.000188  -0.006335
     6  Ca   0.117625   0.117571  -0.022731
     7  O    8.562957  -0.085202   0.080107
     8  O   -0.085202   8.562975   0.080120
     9  Ca   0.080107   0.080120  18.280144
 Mulliken atomic charges:
              1
     1  O   -0.703788
     2  O   -1.246963
     3  Ca   1.458813
     4  P    0.654179
     5  O   -0.701807
     6  Ca   1.497897
     7  O   -0.676260
     8  O   -0.676257
     9  Ca   1.394187
 Sum of Mulliken charges=   1.00000
 Atomic charges with hydrogens summed into heavy atoms:
              1
     1  O   -0.703788
     2  O   -1.246963
     3  Ca   1.458813
     4  P    0.654179
     5  O   -0.701807
     6  Ca   1.497897
     7  O   -0.676260
     8  O   -0.676257
     9  Ca   1.394187
 Sum of Mulliken charges=   1.00000
 Electronic spatial extent (au):  <R**2>=  3042.5069
 Charge=     1.0000 electrons
 Dipole moment (field-independent basis, Debye):
    X=     1.9844    Y=     0.5256    Z=    -0.0017  Tot=     2.0528
 Quadrupole moment (field-independent basis, Debye-Ang):
   XX=   -55.9367   YY=   -34.8328   ZZ=   -77.5237
   XY=    11.2703   XZ=    -0.0023   YZ=     0.0062
 Traceless Quadrupole moment (field-independent basis, Debye-Ang):
   XX=     0.1610   YY=    21.2650   ZZ=   -21.4260
   XY=    11.2703   XZ=    -0.0023   YZ=     0.0062
 Octapole moment (field-independent basis, Debye-Ang**2):
  XXX=   -51.8511  YYY=   -60.0929  ZZZ=    -0.0042  XYY=    25.9951
  XXY=   103.7855  XXZ=     0.0064  XZZ=     7.2499  YZZ=     3.9528
  YYZ=    -0.0153  XYZ=    -0.0098
 Hexadecapole moment (field-independent basis, Debye-Ang**3):
 XXXX= -1813.2440 YYYY= -1165.3775 ZZZZ=  -131.2101 XXXY=  -153.9914
 XXXZ=    -0.0277 YYYX=   339.0016 YYYZ=     0.0369 ZZZX=    -0.0035
 ZZZY=     0.0126 XXYY=  -417.4581 XXZZ=  -348.7449 YYZZ=  -253.2760
 XXYZ=     0.0110 YYXZ=    -0.0117 ZZXY=     4.8725
 N-N= 9.072952765047D+02 E-N=-8.316676427290D+03  KE= 2.742188820919D+03
 Merz-Kollman atomic radii used.
 Read replacement radii for each type of atom:
 Rad(20) =   1.188000000000D+00
 Atom Element Radius
    1     8    1.40
    2     8    1.40
    3    20    1.19
    4    15    1.80
    5     8    1.40
    6    20    1.19
    7     8    1.40
    8     8    1.40
    9    20    1.19

 **********************************************************************

            Electrostatic Properties Using The SCF Density

 **********************************************************************

       Atomic Center    1 is at   2.602280  0.378779 -0.000041
       Atomic Center    2 is at  -0.657087  2.448748 -0.000071
       Atomic Center    3 is at   1.442553  2.350325 -0.000121
       Atomic Center    4 is at   2.842294 -1.143730  0.000139
       Atomic Center    5 is at   1.510577 -1.923205  0.000209
       Atomic Center    6 is at  -0.730452 -2.318012 -0.000231
       Atomic Center    7 is at  -2.262776 -0.926447 -0.786451
       Atomic Center    8 is at  -2.262466 -0.926447  0.786619
       Atomic Center    9 is at  -2.416033  1.204913  0.000139
     910 points will be used for fitting atomic charges
 Fitting point charges to eletrostatic potential
 Charges from ESP fit, RMS=   0.00593 RRMS=   0.04207:
 Charge=   1.00000 Dipole=     2.3263     0.6203    -0.0018 Tot=     2.4076
              1
     1  O   -0.798350
     2  O   -1.661085
     3  Ca   1.741318
     4  P    0.672712
     5  O   -0.791395
     6  Ca   1.742592
     7  O   -0.839797
     8  O   -0.839733
     9  Ca   1.773739
 -----------------------------------------------------------------

              Electrostatic Properties (Atomic Units)

 -----------------------------------------------------------------
    Center     Electric         -------- Electric Field --------
               Potential          X             Y             Z
 -----------------------------------------------------------------
    1 Atom    -22.183760
    2 Atom    -22.338868
    3 Atom    -80.045671
    4 Atom    -53.918418
    5 Atom    -22.185556
    6 Atom    -80.037999
    7 Atom    -22.247311
    8 Atom    -22.247312
    9 Atom    -80.100685
 -----------------------------------------------------------------
 1\1\GINC-N026\SP\RB3LYP\6-31+G(d,p)\Ca3O5P1(1+)\TIMN\12-Jun-2015\0\\# 
 b3lyp/6-31+G(d,p) int=ultrafine pop=(ReadRadii,MK)\\mol_17.27.18.pdbcc
 _plusQ.z58485.zip.xyz\\1,1\O,0,2.60228,0.37877,-0.00004\O,0,-0.65708,2
 .44875,-0.00007\Ca,0,1.44256,2.35032,-0.00012\P,0,2.84229,-1.14374,0.0
 0014\O,0,1.51057,-1.92321,0.00021\Ca,0,-0.73046,-2.31801,-0.00023\O,0,
 -2.26278,-0.92644,-0.78645\O,0,-2.26247,-0.92644,0.78662\Ca,0,-2.41603
 ,1.20492,0.00014\\Version=EM64T-G03RevE.01\State=1-A\HF=-2750.1971029\
 RMSD=5.206e-05\Thermal=0.\Dipole=0.7807114,0.2067741,-0.000658\PG=C01 
 [X(Ca3O5P1)]\\@


 A SCIENTIST IS SOMEONE WHOSE CURIOSITY SURVIVES
 EDUCATION'S ASSAULTS ON IT.
                          - SIR HERMANN BONDI
 Job cpu time:  0 days  0 hours  1 minutes 53.2 seconds.
 File lengths (MBytes):  RWF=     36 Int=      0 D2E=      0 Chk=     11 Scr=      1
 Normal termination of Gaussian 03 at Fri Jun 12 18:03:17 2015.
