 Entering Gaussian System, Link 0=/home/timn/tmp/g03.e01/g03
 Input=mol_17.26.43.pdbccc_plusQ.z58454.zip.xyz.gjf
 Output=mol_17.26.43.pdbccc_plusQ.z58454.zip.xyz.out
 Initial command:
 /home/timn/tmp/g03.e01/l1.exe /home/timn/tmp/g03.e01/Gau-13290.inp -scrdir=/home/timn/tmp/g03.e01/
 Default is to use a total of   2 processors:
                                2 via shared-memory
                                1 via Linda
 Entering Link 1 = /home/timn/tmp/g03.e01/l1.exe PID=     13293.
  
 Copyright (c) 1988,1990,1992,1993,1995,1998,2003,2004,2007, Gaussian, Inc.
                  All Rights Reserved.
  
 This is the Gaussian(R) 03 program.  It is based on the
 the Gaussian(R) 98 system (copyright 1998, Gaussian, Inc.),
 the Gaussian(R) 94 system (copyright 1995, Gaussian, Inc.),
 the Gaussian 92(TM) system (copyright 1992, Gaussian, Inc.),
 the Gaussian 90(TM) system (copyright 1990, Gaussian, Inc.),
 the Gaussian 88(TM) system (copyright 1988, Gaussian, Inc.),
 the Gaussian 86(TM) system (copyright 1986, Carnegie Mellon
 University), and the Gaussian 82(TM) system (copyright 1983,
 Carnegie Mellon University). Gaussian is a federally registered
 trademark of Gaussian, Inc.
  
 This software contains proprietary and confidential information,
 including trade secrets, belonging to Gaussian, Inc.
  
 This software is provided under written license and may be
 used, copied, transmitted, or stored only in accord with that
 written license.
  
 The following legend is applicable only to US Government
 contracts under FAR:
  
                    RESTRICTED RIGHTS LEGEND
  
 Use, reproduction and disclosure by the US Government is
 subject to restrictions as set forth in subparagraphs (a)
 and (c) of the Commercial Computer Software - Restricted
 Rights clause in FAR 52.227-19.
  
 Gaussian, Inc.
 340 Quinnipiac St., Bldg. 40, Wallingford CT 06492
  
  
 ---------------------------------------------------------------
 Warning -- This program may not be used in any manner that
 competes with the business of Gaussian, Inc. or will provide
 assistance to any competitor of Gaussian, Inc.  The licensee
 of this program is prohibited from giving any competitor of
 Gaussian, Inc. access to this program.  By using this program,
 the user acknowledges that Gaussian, Inc. is engaged in the
 business of creating and licensing software in the field of
 computational chemistry and represents and warrants to the
 licensee that it is not a competitor of Gaussian, Inc. and that
 it will not use this program in any manner prohibited above.
 ---------------------------------------------------------------
  

 Cite this work as:
 Gaussian 03, Revision E.01,
 M. J. Frisch, G. W. Trucks, H. B. Schlegel, G. E. Scuseria, 
 M. A. Robb, J. R. Cheeseman, J. A. Montgomery, Jr., T. Vreven, 
 K. N. Kudin, J. C. Burant, J. M. Millam, S. S. Iyengar, J. Tomasi, 
 V. Barone, B. Mennucci, M. Cossi, G. Scalmani, N. Rega, 
 G. A. Petersson, H. Nakatsuji, M. Hada, M. Ehara, K. Toyota, 
 R. Fukuda, J. Hasegawa, M. Ishida, T. Nakajima, Y. Honda, O. Kitao, 
 H. Nakai, M. Klene, X. Li, J. E. Knox, H. P. Hratchian, J. B. Cross, 
 V. Bakken, C. Adamo, J. Jaramillo, R. Gomperts, R. E. Stratmann, 
 O. Yazyev, A. J. Austin, R. Cammi, C. Pomelli, J. W. Ochterski, 
 P. Y. Ayala, K. Morokuma, G. A. Voth, P. Salvador, J. J. Dannenberg, 
 V. G. Zakrzewski, S. Dapprich, A. D. Daniels, M. C. Strain, 
 O. Farkas, D. K. Malick, A. D. Rabuck, K. Raghavachari, 
 J. B. Foresman, J. V. Ortiz, Q. Cui, A. G. Baboul, S. Clifford, 
 J. Cioslowski, B. B. Stefanov, G. Liu, A. Liashenko, P. Piskorz, 
 I. Komaromi, R. L. Martin, D. J. Fox, T. Keith, M. A. Al-Laham, 
 C. Y. Peng, A. Nanayakkara, M. Challacombe, P. M. W. Gill, 
 B. Johnson, W. Chen, M. W. Wong, C. Gonzalez, and J. A. Pople, 
 Gaussian, Inc., Wallingford CT, 2004.
 
 ******************************************
 Gaussian 03:  EM64T-G03RevE.01 11-Sep-2007
                12-Jun-2015 
 ******************************************
 %nproc=2
 Will use up to    2 processors via shared memory.
 Default route:  MP2=Direct MaxDisk=2000MB
 ----------------------------------------------------
 # b3lyp/6-31+G(d,p) int=ultrafine pop=(ReadRadii,MK)
 ----------------------------------------------------

 Warning!  SCF SP cutoffs with diffuse functions may be unreliable.
 Consider SCF=Tight

 1/38=1/1;
 2/17=6,18=5,40=1/2;
 3/5=1,6=6,7=111,11=2,16=1,25=1,30=1,74=-5,75=5/1,2,3;
 4//1;
 5/5=2,32=1,38=5/2;
 6/7=2,8=2,9=2,10=2,15=8,20=101,28=1/1,2;
 99/5=1,9=1/99;
 ----------------------------------------
 mol_17.26.43.pdbccc_plusQ.z58454.zip.xyz
 ----------------------------------------
 Symbolic Z-matrix:
 Charge =  1 Multiplicity = 1
 O                     1.72211   1.27691   0.00001 
 O                     4.01271  -0.00115   0.00003 
 O                     1.72129  -1.27774   0.00002 
 P                     2.54045  -0.00067   0.00002 
 Ca                   -0.08826   2.67116  -0.00004 
 O                    -2.03957   1.89595   0. 
 Ca                   -3.07719   0.00071   0.00004 
 O                    -2.04126  -1.89543   0. 
 Ca                   -0.09     -2.67078  -0.00004 
 
                          Input orientation:                          
 ---------------------------------------------------------------------
 Center     Atomic     Atomic              Coordinates (Angstroms)
 Number     Number      Type              X           Y           Z
 ---------------------------------------------------------------------
    1          8             0        1.722110    1.276910    0.000010
    2          8             0        4.012710   -0.001150    0.000030
    3          8             0        1.721290   -1.277740    0.000020
    4         15             0        2.540450   -0.000670    0.000020
    5         20             0       -0.088260    2.671160   -0.000040
    6          8             0       -2.039570    1.895950    0.000000
    7         20             0       -3.077190    0.000710    0.000040
    8          8             0       -2.041260   -1.895430    0.000000
    9         20             0       -0.090000   -2.670780   -0.000040
 ---------------------------------------------------------------------
                    Distance matrix (angstroms):
                    1          2          3          4          5
     1  O    0.000000
     2  O    2.623030   0.000000
     3  O    2.554650   2.623030   0.000000
     4  P    1.517198   1.472260   1.517212   0.000000
     5  Ca   2.285032   4.894813   4.343764   3.748172   0.000000
     6  O    3.812276   6.342640   4.921014   4.957192   2.099657
     7  Ca   4.966082   7.089900   4.965868   5.617640   4.008117
     8  O    4.922062   6.343410   3.812915   4.958042   4.966684
     9  Ca   4.343731   4.894809   2.285023   3.748167   5.341940
                    6          7          8          9
     6  O    0.000000
     7  Ca   2.160692   0.000000
     8  O    3.791380   2.160671   0.000000
     9  Ca   4.965465   4.007513   2.099663   0.000000
 Stoichiometry    Ca3O5P(1+)
 Framework group  C1[X(Ca3O5P)]
 Deg. of freedom    21
 Full point group                 C1
 Largest Abelian subgroup         C1      NOp   1
 Largest concise Abelian subgroup C1      NOp   1
                         Standard orientation:                         
 ---------------------------------------------------------------------
 Center     Atomic     Atomic              Coordinates (Angstroms)
 Number     Number      Type              X           Y           Z
 ---------------------------------------------------------------------
    1          8             0        1.722112    1.276907    0.000010
    2          8             0        4.012710   -0.001156    0.000030
    3          8             0        1.721288   -1.277743    0.000020
    4         15             0        2.540450   -0.000674    0.000020
    5         20             0       -0.088256    2.671160   -0.000040
    6          8             0       -2.039567    1.895952    0.000000
    7         20             0       -3.077190    0.000714    0.000040
    8          8             0       -2.041262   -1.895428    0.000000
    9         20             0       -0.090004   -2.670780   -0.000040
 ---------------------------------------------------------------------
 Rotational constants (GHZ):      0.6854028      0.4747690      0.2804826
 Standard basis: 6-31+G(d,p) (6D, 7F)
 There are   199 symmetry adapted basis functions of A   symmetry.
 Integral buffers will be    131072 words long.
 Raffenetti 2 integral format.
 Two-electron integral symmetry is turned on.
   199 basis functions,   456 primitive gaussians,   199 cartesian basis functions
    57 alpha electrons       57 beta electrons
       nuclear repulsion energy       887.7489563229 Hartrees.
 NAtoms=    9 NActive=    9 NUniq=    9 SFac= 7.50D-01 NAtFMM=   80 NAOKFM=F Big=F
 One-electron integrals computed using PRISM.
 NBasis=   199 RedAO= T  NBF=   199
 NBsUse=   199 1.00D-06 NBFU=   199
 Harris functional with IExCor=  402 diagonalized for initial guess.
 ExpMin= 7.10D-03 ExpMax= 3.53D+04 ExpMxC= 5.30D+03 IAcc=3 IRadAn=         5 AccDes= 0.00D+00
 HarFok:  IExCor= 402 AccDes= 0.00D+00 IRadAn=         5 IDoV=1
 ScaDFX=  1.000000  1.000000  1.000000  1.000000
 Initial guess orbital symmetries:
       Occupied  (A) (A) (A) (A) (A) (A) (A) (A) (A) (A) (A) (A)
                 (A) (A) (A) (A) (A) (A) (A) (A) (A) (A) (A) (A)
                 (A) (A) (A) (A) (A) (A) (A) (A) (A) (A) (A) (A)
                 (A) (A) (A) (A) (A) (A) (A) (A) (A) (A) (A) (A)
                 (A) (A) (A) (A) (A) (A) (A) (A) (A)
       Virtual   (A) (A) (A) (A) (A) (A) (A) (A) (A) (A) (A) (A)
                 (A) (A) (A) (A) (A) (A) (A) (A) (A) (A) (A) (A)
                 (A) (A) (A) (A) (A) (A) (A) (A) (A) (A) (A) (A)
                 (A) (A) (A) (A) (A) (A) (A) (A) (A) (A) (A) (A)
                 (A) (A) (A) (A) (A) (A) (A) (A) (A) (A) (A) (A)
                 (A) (A) (A) (A) (A) (A) (A) (A) (A) (A) (A) (A)
                 (A) (A) (A) (A) (A) (A) (A) (A) (A) (A) (A) (A)
                 (A) (A) (A) (A) (A) (A) (A) (A) (A) (A) (A) (A)
                 (A) (A) (A) (A) (A) (A) (A) (A) (A) (A) (A) (A)
                 (A) (A) (A) (A) (A) (A) (A) (A) (A) (A) (A) (A)
                 (A) (A) (A) (A) (A) (A) (A) (A) (A) (A) (A) (A)
                 (A) (A) (A) (A) (A) (A) (A) (A) (A) (A)
 The electronic state of the initial guess is 1-A.
 Requested convergence on RMS density matrix=1.00D-04 within 128 cycles.
 Requested convergence on MAX density matrix=1.00D-02.
 Requested convergence on             energy=1.00D-02.
 No special actions if energy rises.
 EnCoef did     5 forward-backward iterations
 EnCoef did   100 forward-backward iterations
 SCF Done:  E(RB+HF-LYP) =  -2750.22997812     A.U. after    9 cycles
             Convg  =    0.3699D-04             -V/T =  2.0029
             S**2   =   0.0000

 **********************************************************************

            Population analysis using the SCF density.

 **********************************************************************

 Orbital symmetries:
       Occupied  (A) (A) (A) (A) (A) (A) (A) (A) (A) (A) (A) (A)
                 (A) (A) (A) (A) (A) (A) (A) (A) (A) (A) (A) (A)
                 (A) (A) (A) (A) (A) (A) (A) (A) (A) (A) (A) (A)
                 (A) (A) (A) (A) (A) (A) (A) (A) (A) (A) (A) (A)
                 (A) (A) (A) (A) (A) (A) (A) (A) (A)
       Virtual   (A) (A) (A) (A) (A) (A) (A) (A) (A) (A) (A) (A)
                 (A) (A) (A) (A) (A) (A) (A) (A) (A) (A) (A) (A)
                 (A) (A) (A) (A) (A) (A) (A) (A) (A) (A) (A) (A)
                 (A) (A) (A) (A) (A) (A) (A) (A) (A) (A) (A) (A)
                 (A) (A) (A) (A) (A) (A) (A) (A) (A) (A) (A) (A)
                 (A) (A) (A) (A) (A) (A) (A) (A) (A) (A) (A) (A)
                 (A) (A) (A) (A) (A) (A) (A) (A) (A) (A) (A) (A)
                 (A) (A) (A) (A) (A) (A) (A) (A) (A) (A) (A) (A)
                 (A) (A) (A) (A) (A) (A) (A) (A) (A) (A) (A) (A)
                 (A) (A) (A) (A) (A) (A) (A) (A) (A) (A) (A) (A)
                 (A) (A) (A) (A) (A) (A) (A) (A) (A) (A) (A) (A)
                 (A) (A) (A) (A) (A) (A) (A) (A) (A) (A)
 The electronic state is 1-A.
 Alpha  occ. eigenvalues -- -145.50368-145.50366-145.43697 -77.35678 -19.29667
 Alpha  occ. eigenvalues --  -19.29662 -19.27215 -19.12848 -19.12730 -15.57238
 Alpha  occ. eigenvalues --  -15.57235 -15.50720 -12.70490 -12.70488 -12.70442
 Alpha  occ. eigenvalues --  -12.70440 -12.70285 -12.70283 -12.63978 -12.63926
 Alpha  occ. eigenvalues --  -12.63717  -6.80862  -4.97484  -4.97013  -4.96913
 Alpha  occ. eigenvalues --   -1.94440  -1.94437  -1.88188  -1.22346  -1.22268
 Alpha  occ. eigenvalues --   -1.22265  -1.22161  -1.21409  -1.21336  -1.18018
 Alpha  occ. eigenvalues --   -1.16225  -1.15923  -1.15023  -1.11184  -1.10078
 Alpha  occ. eigenvalues --   -0.87145  -0.86553  -0.67800  -0.59921  -0.56385
 Alpha  occ. eigenvalues --   -0.55707  -0.49480  -0.47921  -0.47911  -0.45162
 Alpha  occ. eigenvalues --   -0.42128  -0.34001  -0.32345  -0.31542  -0.31175
 Alpha  occ. eigenvalues --   -0.31037  -0.30602
 Alpha virt. eigenvalues --   -0.19989  -0.18454  -0.15809  -0.14759  -0.14546
 Alpha virt. eigenvalues --   -0.11766  -0.10810  -0.09986  -0.08490  -0.08320
 Alpha virt. eigenvalues --   -0.07868  -0.07730  -0.06547  -0.06106  -0.05299
 Alpha virt. eigenvalues --   -0.05006  -0.04981  -0.04620  -0.04323  -0.04289
 Alpha virt. eigenvalues --   -0.04267  -0.03804  -0.03479  -0.03167  -0.02958
 Alpha virt. eigenvalues --   -0.02712  -0.02531  -0.00493  -0.00398   0.00209
 Alpha virt. eigenvalues --    0.02308   0.03189   0.03460   0.03666   0.04536
 Alpha virt. eigenvalues --    0.05251   0.05804   0.06097   0.06113   0.06719
 Alpha virt. eigenvalues --    0.08001   0.08111   0.08824   0.09231   0.09893
 Alpha virt. eigenvalues --    0.10190   0.10894   0.11162   0.12020   0.12739
 Alpha virt. eigenvalues --    0.13113   0.13204   0.13756   0.14749   0.15240
 Alpha virt. eigenvalues --    0.15837   0.16031   0.16970   0.17233   0.18626
 Alpha virt. eigenvalues --    0.20932   0.22103   0.22220   0.24121   0.26097
 Alpha virt. eigenvalues --    0.26386   0.27856   0.28466   0.29539   0.31203
 Alpha virt. eigenvalues --    0.32021   0.32622   0.35849   0.37886   0.38087
 Alpha virt. eigenvalues --    0.39806   0.43594   0.49970   0.54470   0.55160
 Alpha virt. eigenvalues --    0.55715   0.60403   0.63666   0.64713   0.75455
 Alpha virt. eigenvalues --    0.85468   0.88328   0.89713   0.91681   0.96237
 Alpha virt. eigenvalues --    1.00770   1.04375   1.06176   1.09939   1.12755
 Alpha virt. eigenvalues --    1.14040   1.14973   1.15649   1.19489   1.20145
 Alpha virt. eigenvalues --    1.20550   1.22986   1.23324   1.25792   1.28731
 Alpha virt. eigenvalues --    1.33058   1.38128   1.44476   1.46478   1.47549
 Alpha virt. eigenvalues --    1.48700   1.63264   1.63731   1.65794   1.66790
 Alpha virt. eigenvalues --    1.66914   1.68809   1.73521   1.80519   1.81808
 Alpha virt. eigenvalues --    1.83193   1.83203   1.83971   1.85796   1.86670
 Alpha virt. eigenvalues --    1.91735   1.93637   1.98713   1.98717   2.02928
 Alpha virt. eigenvalues --    2.04753   2.18144   2.19831   2.57239   2.70170
 Alpha virt. eigenvalues --    2.77979   3.37432   3.81444   3.92385   3.96029
 Alpha virt. eigenvalues --    3.96766   3.97094
          Condensed to atoms (all electrons):
              1          2          3          4          5          6
     1  O    9.306426  -0.163953  -0.495102   0.179683   0.065893   0.001664
     2  O   -0.163953   8.447464  -0.163911   0.491010  -0.003892  -0.000104
     3  O   -0.495102  -0.163911   9.306609   0.179584  -0.020260   0.001977
     4  P    0.179683   0.491010   0.179584  12.597375  -0.017421  -0.001654
     5  Ca   0.065893  -0.003892  -0.020260  -0.017421  18.286503   0.243087
     6  O    0.001664  -0.000104   0.001977  -0.001654   0.243087   8.832150
     7  Ca   0.006999   0.002584   0.006995  -0.001368  -0.010572   0.171972
     8  O    0.001978  -0.000105   0.001642  -0.001653   0.005633  -0.005371
     9  Ca  -0.020250  -0.003897   0.065822  -0.017416   0.003146   0.005628
              7          8          9
     1  O    0.006999   0.001978  -0.020250
     2  O    0.002584  -0.000105  -0.003897
     3  O    0.006995   0.001642   0.065822
     4  P   -0.001368  -0.001653  -0.017416
     5  Ca  -0.010572   0.005633   0.003146
     6  O    0.171972  -0.005371   0.005628
     7  Ca  18.279293   0.172366  -0.010568
     8  O    0.172366   8.829448   0.243604
     9  Ca  -0.010568   0.243604  18.287193
 Mulliken atomic charges:
              1
     1  O   -0.883337
     2  O   -0.605196
     3  O   -0.883357
     4  P    1.591860
     5  Ca   1.447884
     6  O   -1.249350
     7  Ca   1.382299
     8  O   -1.247542
     9  Ca   1.446739
 Sum of Mulliken charges=   1.00000
 Atomic charges with hydrogens summed into heavy atoms:
              1
     1  O   -0.883337
     2  O   -0.605196
     3  O   -0.883357
     4  P    1.591860
     5  Ca   1.447884
     6  O   -1.249350
     7  Ca   1.382299
     8  O   -1.247542
     9  Ca   1.446739
 Sum of Mulliken charges=   1.00000
 Electronic spatial extent (au):  <R**2>=  3338.8523
 Charge=     1.0000 electrons
 Dipole moment (field-independent basis, Debye):
    X=    -3.3595    Y=     0.0058    Z=    -0.0003  Tot=     3.3595
 Quadrupole moment (field-independent basis, Debye-Ang):
   XX=   -79.0974   YY=   -24.1818   ZZ=   -72.7289
   XY=     0.0296   XZ=    -0.0011   YZ=     0.0000
 Traceless Quadrupole moment (field-independent basis, Debye-Ang):
   XX=   -20.4281   YY=    34.4876   ZZ=   -14.0595
   XY=     0.0296   XZ=    -0.0011   YZ=     0.0000
 Octapole moment (field-independent basis, Debye-Ang**2):
  XXX=  -222.8924  YYY=     0.1741  ZZZ=    -0.0005  XYY=    73.8614
  XXY=     0.1255  XXZ=     0.0025  XZZ=     1.4495  YZZ=     0.0389
  YYZ=    -0.0049  XYZ=     0.0001
 Hexadecapole moment (field-independent basis, Debye-Ang**3):
 XXXX= -2114.2003 YYYY=  -719.2661 ZZZZ=   -83.2094 XXXY=    -0.3357
 XXXZ=    -0.0144 YYYX=     0.2966 YYYZ=     0.0003 ZZZX=    -0.0017
 ZZZY=     0.0002 XXYY=  -859.6410 XXZZ=  -374.6402 YYZZ=  -239.5816
 XXYZ=     0.0002 YYXZ=    -0.0003 ZZXY=    -0.0436
 N-N= 8.877489563229D+02 E-N=-8.276511283032D+03  KE= 2.742169556943D+03
 Merz-Kollman atomic radii used.
 Read replacement radii for each type of atom:
 Rad(20) =   1.188000000000D+00
 Atom Element Radius
    1     8    1.40
    2     8    1.40
    3     8    1.40
    4    15    1.80
    5    20    1.19
    6     8    1.40
    7    20    1.19
    8     8    1.40
    9    20    1.19

 **********************************************************************

            Electrostatic Properties Using The SCF Density

 **********************************************************************

       Atomic Center    1 is at   1.722112  1.276907  0.000010
       Atomic Center    2 is at   4.012710 -0.001156  0.000030
       Atomic Center    3 is at   1.721288 -1.277743  0.000020
       Atomic Center    4 is at   2.540450 -0.000674  0.000020
       Atomic Center    5 is at  -0.088256  2.671160 -0.000040
       Atomic Center    6 is at  -2.039567  1.895952  0.000000
       Atomic Center    7 is at  -3.077190  0.000714  0.000040
       Atomic Center    8 is at  -2.041262 -1.895428  0.000000
       Atomic Center    9 is at  -0.090004 -2.670780 -0.000040
     894 points will be used for fitting atomic charges
 Fitting point charges to eletrostatic potential
 Charges from ESP fit, RMS=   0.00501 RRMS=   0.03422:
 Charge=   1.00000 Dipole=    -3.5204     0.0047    -0.0004 Tot=     3.5204
              1
     1  O   -1.060105
     2  O   -0.611222
     3  O   -1.060178
     4  P    1.721869
     5  Ca   1.784125
     6  O   -1.678935
     7  Ca   1.798608
     8  O   -1.677501
     9  Ca   1.783339
 -----------------------------------------------------------------

              Electrostatic Properties (Atomic Units)

 -----------------------------------------------------------------
    Center     Electric         -------- Electric Field --------
               Potential          X             Y             Z
 -----------------------------------------------------------------
    1 Atom    -22.164984
    2 Atom    -22.195193
    3 Atom    -22.165127
    4 Atom    -53.850014
    5 Atom    -80.037039
    6 Atom    -22.342367
    7 Atom    -80.106470
    8 Atom    -22.338745
    9 Atom    -80.037079
 -----------------------------------------------------------------
 1\1\GINC-N034\SP\RB3LYP\6-31+G(d,p)\Ca3O5P1(1+)\TIMN\12-Jun-2015\0\\# 
 b3lyp/6-31+G(d,p) int=ultrafine pop=(ReadRadii,MK)\\mol_17.26.43.pdbcc
 c_plusQ.z58454.zip.xyz\\1,1\O,0,1.72211,1.27691,0.00001\O,0,4.01271,-0
 .00115,0.00003\O,0,1.72129,-1.27774,0.00002\P,0,2.54045,-0.00067,0.000
 02\Ca,0,-0.08826,2.67116,-0.00004\O,0,-2.03957,1.89595,0.\Ca,0,-3.0771
 9,0.00071,0.00004\O,0,-2.04126,-1.89543,0.\Ca,0,-0.09,-2.67078,-0.0000
 4\\Version=EM64T-G03RevE.01\State=1-A\HF=-2750.2299781\RMSD=3.699e-05\
 Thermal=0.\Dipole=-1.3217329,0.0022975,-0.0001278\PG=C01 [X(Ca3O5P1)]\
 \@


    WHAT WE HAVE LEARNED
 IS LIKE A HANDFUL OF EARTH;
  WHAT WE HAVE YET TO LEARN
   IS LIKE THE WHOLE WORLD.

         -- AVVAYIAR
 Job cpu time:  0 days  0 hours  2 minutes  0.4 seconds.
 File lengths (MBytes):  RWF=     36 Int=      0 D2E=      0 Chk=     11 Scr=      1
 Normal termination of Gaussian 03 at Fri Jun 12 18:00:59 2015.
