 Entering Gaussian System, Link 0=/home/timn/tmp/g03.e01/g03
 Input=mol_17.27.0.pdbccc_plusQ.z58476.zip.xyz.gjf
 Output=mol_17.27.0.pdbccc_plusQ.z58476.zip.xyz.out
 Initial command:
 /home/timn/tmp/g03.e01/l1.exe /home/timn/tmp/g03.e01/Gau-17535.inp -scrdir=/home/timn/tmp/g03.e01/
 Default is to use a total of   2 processors:
                                2 via shared-memory
                                1 via Linda
 Entering Link 1 = /home/timn/tmp/g03.e01/l1.exe PID=     17536.
  
 Copyright (c) 1988,1990,1992,1993,1995,1998,2003,2004,2007, Gaussian, Inc.
                  All Rights Reserved.
  
 This is the Gaussian(R) 03 program.  It is based on the
 the Gaussian(R) 98 system (copyright 1998, Gaussian, Inc.),
 the Gaussian(R) 94 system (copyright 1995, Gaussian, Inc.),
 the Gaussian 92(TM) system (copyright 1992, Gaussian, Inc.),
 the Gaussian 90(TM) system (copyright 1990, Gaussian, Inc.),
 the Gaussian 88(TM) system (copyright 1988, Gaussian, Inc.),
 the Gaussian 86(TM) system (copyright 1986, Carnegie Mellon
 University), and the Gaussian 82(TM) system (copyright 1983,
 Carnegie Mellon University). Gaussian is a federally registered
 trademark of Gaussian, Inc.
  
 This software contains proprietary and confidential information,
 including trade secrets, belonging to Gaussian, Inc.
  
 This software is provided under written license and may be
 used, copied, transmitted, or stored only in accord with that
 written license.
  
 The following legend is applicable only to US Government
 contracts under FAR:
  
                    RESTRICTED RIGHTS LEGEND
  
 Use, reproduction and disclosure by the US Government is
 subject to restrictions as set forth in subparagraphs (a)
 and (c) of the Commercial Computer Software - Restricted
 Rights clause in FAR 52.227-19.
  
 Gaussian, Inc.
 340 Quinnipiac St., Bldg. 40, Wallingford CT 06492
  
  
 ---------------------------------------------------------------
 Warning -- This program may not be used in any manner that
 competes with the business of Gaussian, Inc. or will provide
 assistance to any competitor of Gaussian, Inc.  The licensee
 of this program is prohibited from giving any competitor of
 Gaussian, Inc. access to this program.  By using this program,
 the user acknowledges that Gaussian, Inc. is engaged in the
 business of creating and licensing software in the field of
 computational chemistry and represents and warrants to the
 licensee that it is not a competitor of Gaussian, Inc. and that
 it will not use this program in any manner prohibited above.
 ---------------------------------------------------------------
  

 Cite this work as:
 Gaussian 03, Revision E.01,
 M. J. Frisch, G. W. Trucks, H. B. Schlegel, G. E. Scuseria, 
 M. A. Robb, J. R. Cheeseman, J. A. Montgomery, Jr., T. Vreven, 
 K. N. Kudin, J. C. Burant, J. M. Millam, S. S. Iyengar, J. Tomasi, 
 V. Barone, B. Mennucci, M. Cossi, G. Scalmani, N. Rega, 
 G. A. Petersson, H. Nakatsuji, M. Hada, M. Ehara, K. Toyota, 
 R. Fukuda, J. Hasegawa, M. Ishida, T. Nakajima, Y. Honda, O. Kitao, 
 H. Nakai, M. Klene, X. Li, J. E. Knox, H. P. Hratchian, J. B. Cross, 
 V. Bakken, C. Adamo, J. Jaramillo, R. Gomperts, R. E. Stratmann, 
 O. Yazyev, A. J. Austin, R. Cammi, C. Pomelli, J. W. Ochterski, 
 P. Y. Ayala, K. Morokuma, G. A. Voth, P. Salvador, J. J. Dannenberg, 
 V. G. Zakrzewski, S. Dapprich, A. D. Daniels, M. C. Strain, 
 O. Farkas, D. K. Malick, A. D. Rabuck, K. Raghavachari, 
 J. B. Foresman, J. V. Ortiz, Q. Cui, A. G. Baboul, S. Clifford, 
 J. Cioslowski, B. B. Stefanov, G. Liu, A. Liashenko, P. Piskorz, 
 I. Komaromi, R. L. Martin, D. J. Fox, T. Keith, M. A. Al-Laham, 
 C. Y. Peng, A. Nanayakkara, M. Challacombe, P. M. W. Gill, 
 B. Johnson, W. Chen, M. W. Wong, C. Gonzalez, and J. A. Pople, 
 Gaussian, Inc., Wallingford CT, 2004.
 
 ******************************************
 Gaussian 03:  EM64T-G03RevE.01 11-Sep-2007
                12-Jun-2015 
 ******************************************
 %nproc=2
 Will use up to    2 processors via shared memory.
 Default route:  MP2=Direct MaxDisk=2000MB
 ----------------------------------------------------
 # b3lyp/6-31+G(d,p) int=ultrafine pop=(ReadRadii,MK)
 ----------------------------------------------------

 Warning!  SCF SP cutoffs with diffuse functions may be unreliable.
 Consider SCF=Tight

 1/38=1/1;
 2/17=6,18=5,40=1/2;
 3/5=1,6=6,7=111,11=2,16=1,25=1,30=1,74=-5,75=5/1,2,3;
 4//1;
 5/5=2,32=1,38=5/2;
 6/7=2,8=2,9=2,10=2,15=8,20=101,28=1/1,2;
 99/5=1,9=1/99;
 ---------------------------------------
 mol_17.27.0.pdbccc_plusQ.z58476.zip.xyz
 ---------------------------------------
 Symbolic Z-matrix:
 Charge =  1 Multiplicity = 1
 O                    -2.56119   0.08407   0.38999 
 O                    -1.26017   0.75828   0.70042 
 P                    -0.04631  -0.05244   1.76339 
 O                     1.15956   0.88024   1.11594 
 O                     0.49838  -0.01658  -1.70122 
 Ca                    0.08366   1.94558  -0.70327 
 Ca                    2.03402  -0.77923  -0.27115 
 Ca                   -1.28467  -1.23053  -0.92126 
 O                     0.16771  -1.44725   0.92773 
 
                          Input orientation:                          
 ---------------------------------------------------------------------
 Center     Atomic     Atomic              Coordinates (Angstroms)
 Number     Number      Type              X           Y           Z
 ---------------------------------------------------------------------
    1          8             0       -2.561190    0.084070    0.389990
    2          8             0       -1.260170    0.758280    0.700420
    3         15             0       -0.046310   -0.052440    1.763390
    4          8             0        1.159560    0.880240    1.115940
    5          8             0        0.498380   -0.016580   -1.701220
    6         20             0        0.083660    1.945580   -0.703270
    7         20             0        2.034020   -0.779230   -0.271150
    8         20             0       -1.284670   -1.230530   -0.921260
    9          8             0        0.167710   -1.447250    0.927730
 ---------------------------------------------------------------------
                    Distance matrix (angstroms):
                    1          2          3          4          5
     1  O    0.000000
     2  O    1.497858   0.000000
     3  P    2.868708   1.805721   0.000000
     4  O    3.873612   2.458175   1.656263   0.000000
     5  O    3.707325   3.075838   3.507349   3.029494   0.000000
     6  Ca   3.414040   2.277258   3.177009   2.366862   2.240082
     7  Ca   4.722113   3.762921   2.999225   2.332925   2.232695
     8  Ca   2.253232   2.566284   3.182574   3.818350   2.293748
     9  O    3.175059   2.637209   1.640008   2.537006   3.011235
                    6          7          8          9
     6  Ca   0.000000
     7  Ca   3.378642   0.000000
     8  Ca   3.465187   3.411747   0.000000
     9  O    3.765438   2.316609   2.361173   0.000000
 Stoichiometry    Ca3O5P(1+)
 Framework group  C1[X(Ca3O5P)]
 Deg. of freedom    21
 Full point group                 C1
 Largest Abelian subgroup         C1      NOp   1
 Largest concise Abelian subgroup C1      NOp   1
                         Standard orientation:                         
 ---------------------------------------------------------------------
 Center     Atomic     Atomic              Coordinates (Angstroms)
 Number     Number      Type              X           Y           Z
 ---------------------------------------------------------------------
    1          8             0       -2.561190    0.084045    0.389989
    2          8             0       -1.260177    0.758268    0.700419
    3         15             0       -0.046308   -0.052439    1.763389
    4          8             0        1.159552    0.880253    1.115939
    5          8             0        0.498381   -0.016574   -1.701221
    6         20             0        0.083642    1.945582   -0.703271
    7         20             0        2.034029   -0.779208   -0.271151
    8         20             0       -1.284656   -1.230542   -0.921261
    9          8             0        0.167726   -1.447247    0.927729
 ---------------------------------------------------------------------
 Rotational constants (GHZ):      0.9454847      0.8008380      0.7440505
 Standard basis: 6-31+G(d,p) (6D, 7F)
 There are   199 symmetry adapted basis functions of A   symmetry.
 Integral buffers will be    131072 words long.
 Raffenetti 2 integral format.
 Two-electron integral symmetry is turned on.
   199 basis functions,   456 primitive gaussians,   199 cartesian basis functions
    57 alpha electrons       57 beta electrons
       nuclear repulsion energy      1090.3320613473 Hartrees.
 NAtoms=    9 NActive=    9 NUniq=    9 SFac= 7.50D-01 NAtFMM=   80 NAOKFM=F Big=F
 One-electron integrals computed using PRISM.
 NBasis=   199 RedAO= T  NBF=   199
 NBsUse=   199 1.00D-06 NBFU=   199
 Harris functional with IExCor=  402 diagonalized for initial guess.
 ExpMin= 7.10D-03 ExpMax= 3.53D+04 ExpMxC= 5.30D+03 IAcc=3 IRadAn=         5 AccDes= 0.00D+00
 HarFok:  IExCor= 402 AccDes= 0.00D+00 IRadAn=         5 IDoV=1
 ScaDFX=  1.000000  1.000000  1.000000  1.000000
 Initial guess orbital symmetries:
       Occupied  (A) (A) (A) (A) (A) (A) (A) (A) (A) (A) (A) (A)
                 (A) (A) (A) (A) (A) (A) (A) (A) (A) (A) (A) (A)
                 (A) (A) (A) (A) (A) (A) (A) (A) (A) (A) (A) (A)
                 (A) (A) (A) (A) (A) (A) (A) (A) (A) (A) (A) (A)
                 (A) (A) (A) (A) (A) (A) (A) (A) (A)
       Virtual   (A) (A) (A) (A) (A) (A) (A) (A) (A) (A) (A) (A)
                 (A) (A) (A) (A) (A) (A) (A) (A) (A) (A) (A) (A)
                 (A) (A) (A) (A) (A) (A) (A) (A) (A) (A) (A) (A)
                 (A) (A) (A) (A) (A) (A) (A) (A) (A) (A) (A) (A)
                 (A) (A) (A) (A) (A) (A) (A) (A) (A) (A) (A) (A)
                 (A) (A) (A) (A) (A) (A) (A) (A) (A) (A) (A) (A)
                 (A) (A) (A) (A) (A) (A) (A) (A) (A) (A) (A) (A)
                 (A) (A) (A) (A) (A) (A) (A) (A) (A) (A) (A) (A)
                 (A) (A) (A) (A) (A) (A) (A) (A) (A) (A) (A) (A)
                 (A) (A) (A) (A) (A) (A) (A) (A) (A) (A) (A) (A)
                 (A) (A) (A) (A) (A) (A) (A) (A) (A) (A) (A) (A)
                 (A) (A) (A) (A) (A) (A) (A) (A) (A) (A)
 The electronic state of the initial guess is 1-A.
 Requested convergence on RMS density matrix=1.00D-04 within 128 cycles.
 Requested convergence on MAX density matrix=1.00D-02.
 Requested convergence on             energy=1.00D-02.
 No special actions if energy rises.
 EnCoef did     3 forward-backward iterations
 SCF Done:  E(RB+HF-LYP) =  -2750.19417678     A.U. after    9 cycles
             Convg  =    0.4252D-04             -V/T =  2.0029
             S**2   =   0.0000

 **********************************************************************

            Population analysis using the SCF density.

 **********************************************************************

 Orbital symmetries:
       Occupied  (A) (A) (A) (A) (A) (A) (A) (A) (A) (A) (A) (A)
                 (A) (A) (A) (A) (A) (A) (A) (A) (A) (A) (A) (A)
                 (A) (A) (A) (A) (A) (A) (A) (A) (A) (A) (A) (A)
                 (A) (A) (A) (A) (A) (A) (A) (A) (A) (A) (A) (A)
                 (A) (A) (A) (A) (A) (A) (A) (A) (A)
       Virtual   (A) (A) (A) (A) (A) (A) (A) (A) (A) (A) (A) (A)
                 (A) (A) (A) (A) (A) (A) (A) (A) (A) (A) (A) (A)
                 (A) (A) (A) (A) (A) (A) (A) (A) (A) (A) (A) (A)
                 (A) (A) (A) (A) (A) (A) (A) (A) (A) (A) (A) (A)
                 (A) (A) (A) (A) (A) (A) (A) (A) (A) (A) (A) (A)
                 (A) (A) (A) (A) (A) (A) (A) (A) (A) (A) (A) (A)
                 (A) (A) (A) (A) (A) (A) (A) (A) (A) (A) (A) (A)
                 (A) (A) (A) (A) (A) (A) (A) (A) (A) (A) (A) (A)
                 (A) (A) (A) (A) (A) (A) (A) (A) (A) (A) (A) (A)
                 (A) (A) (A) (A) (A) (A) (A) (A) (A) (A) (A) (A)
                 (A) (A) (A) (A) (A) (A) (A) (A) (A) (A) (A) (A)
                 (A) (A) (A) (A) (A) (A) (A) (A) (A) (A)
 The electronic state is 1-A.
 Alpha  occ. eigenvalues -- -145.51666-145.51596-145.48706 -77.27301 -19.29094
 Alpha  occ. eigenvalues --  -19.23570 -19.23488 -19.23304 -19.17353 -15.58478
 Alpha  occ. eigenvalues --  -15.58422 -15.55554 -12.71692 -12.71654 -12.71629
 Alpha  occ. eigenvalues --  -12.71606 -12.71595 -12.71550 -12.68782 -12.68748
 Alpha  occ. eigenvalues --  -12.68648  -6.72398  -4.88803  -4.88690  -4.88156
 Alpha  occ. eigenvalues --   -1.95723  -1.95668  -1.92864  -1.23976  -1.23550
 Alpha  occ. eigenvalues --   -1.23413  -1.23062  -1.23028  -1.22527  -1.21067
 Alpha  occ. eigenvalues --   -1.20539  -1.19968  -1.13363  -1.07571  -1.03113
 Alpha  occ. eigenvalues --   -0.92324  -0.90593  -0.65536  -0.55301  -0.53390
 Alpha  occ. eigenvalues --   -0.51713  -0.49581  -0.46916  -0.44126  -0.42331
 Alpha  occ. eigenvalues --   -0.40300  -0.37801  -0.37636  -0.36830  -0.35226
 Alpha  occ. eigenvalues --   -0.33503  -0.32026
 Alpha virt. eigenvalues --   -0.20904  -0.19066  -0.17416  -0.13458  -0.12276
 Alpha virt. eigenvalues --   -0.11628  -0.10498  -0.10037  -0.08918  -0.08220
 Alpha virt. eigenvalues --   -0.07984  -0.06859  -0.06591  -0.06167  -0.05828
 Alpha virt. eigenvalues --   -0.05026  -0.04875  -0.04697  -0.04538  -0.04330
 Alpha virt. eigenvalues --   -0.04009  -0.03631  -0.03309  -0.03184  -0.02970
 Alpha virt. eigenvalues --   -0.02965  -0.02003  -0.00870   0.00733   0.01603
 Alpha virt. eigenvalues --    0.01799   0.02563   0.03298   0.04144   0.04756
 Alpha virt. eigenvalues --    0.04941   0.05317   0.05711   0.05830   0.06041
 Alpha virt. eigenvalues --    0.06392   0.06752   0.07238   0.07598   0.08124
 Alpha virt. eigenvalues --    0.08943   0.09519   0.09872   0.10453   0.11389
 Alpha virt. eigenvalues --    0.13095   0.14205   0.14819   0.17087   0.17799
 Alpha virt. eigenvalues --    0.18450   0.19741   0.20385   0.21061   0.22363
 Alpha virt. eigenvalues --    0.22976   0.24030   0.24365   0.26028   0.26750
 Alpha virt. eigenvalues --    0.28256   0.29333   0.31424   0.33103   0.33389
 Alpha virt. eigenvalues --    0.34385   0.35332   0.35629   0.37005   0.38652
 Alpha virt. eigenvalues --    0.40216   0.42021   0.43851   0.49193   0.51867
 Alpha virt. eigenvalues --    0.52348   0.57977   0.61338   0.64221   0.65859
 Alpha virt. eigenvalues --    0.78183   0.83733   0.86154   0.90814   0.94378
 Alpha virt. eigenvalues --    1.09171   1.11335   1.13658   1.15708   1.15906
 Alpha virt. eigenvalues --    1.17805   1.19014   1.19237   1.21817   1.21927
 Alpha virt. eigenvalues --    1.23174   1.24332   1.28698   1.31217   1.33707
 Alpha virt. eigenvalues --    1.36889   1.51240   1.53377   1.54906   1.57597
 Alpha virt. eigenvalues --    1.60299   1.63694   1.67893   1.70941   1.73717
 Alpha virt. eigenvalues --    1.75140   1.80600   1.82488   1.84095   1.84832
 Alpha virt. eigenvalues --    1.85771   1.86559   1.88282   1.90439   1.91827
 Alpha virt. eigenvalues --    1.92717   1.97220   1.98872   2.01435   2.10381
 Alpha virt. eigenvalues --    2.15528   2.24695   2.32336   2.48572   2.57909
 Alpha virt. eigenvalues --    3.09309   3.50959   3.99648   4.07022   4.15190
 Alpha virt. eigenvalues --    4.23981   4.36704
          Condensed to atoms (all electrons):
              1          2          3          4          5          6
     1  O    8.558382  -0.112352  -0.066172   0.009986  -0.010425  -0.022540
     2  O   -0.112352   8.597191  -0.061206   0.085924   0.019146   0.064215
     3  P   -0.066172  -0.061206  14.408269  -0.144467  -0.042564  -0.011050
     4  O    0.009986   0.085924  -0.144467   8.848408   0.028189   0.053949
     5  O   -0.010425   0.019146  -0.042564   0.028189   8.860724   0.134286
     6  Ca  -0.022540   0.064215  -0.011050   0.053949   0.134286  18.353223
     7  Ca   0.006803   0.012716   0.019762   0.067710   0.133758  -0.071241
     8  Ca   0.174269  -0.022243  -0.051044   0.013771   0.108703  -0.010323
     9  O    0.031069   0.007105  -0.153104   0.037823   0.029793   0.016044
              7          8          9
     1  O    0.006803   0.174269   0.031069
     2  O    0.012716  -0.022243   0.007105
     3  P    0.019762  -0.051044  -0.153104
     4  O    0.067710   0.013771   0.037823
     5  O    0.133758   0.108703   0.029793
     6  Ca  -0.071241  -0.010323   0.016044
     7  Ca  18.391301  -0.054263   0.064478
     8  Ca  -0.054263  18.368802   0.054885
     9  O    0.064478   0.054885   8.930927
 Mulliken atomic charges:
              1
     1  O   -0.569020
     2  O   -0.590495
     3  P    1.101576
     4  O   -1.001292
     5  O   -1.261608
     6  Ca   1.493436
     7  Ca   1.428978
     8  Ca   1.417445
     9  O   -1.019019
 Sum of Mulliken charges=   1.00000
 Atomic charges with hydrogens summed into heavy atoms:
              1
     1  O   -0.569020
     2  O   -0.590495
     3  P    1.101576
     4  O   -1.001292
     5  O   -1.261608
     6  Ca   1.493436
     7  Ca   1.428978
     8  Ca   1.417445
     9  O   -1.019019
 Sum of Mulliken charges=   1.00000
 Electronic spatial extent (au):  <R**2>=  1782.0960
 Charge=     1.0000 electrons
 Dipole moment (field-independent basis, Debye):
    X=     6.9409    Y=    -0.1200    Z=    -8.5339  Tot=    11.0008
 Quadrupole moment (field-independent basis, Debye-Ang):
   XX=   -58.4055   YY=   -40.8348   ZZ=   -88.3337
   XY=     0.3328   XZ=     9.1261   YZ=    -0.2724
 Traceless Quadrupole moment (field-independent basis, Debye-Ang):
   XX=     4.1192   YY=    21.6899   ZZ=   -25.8090
   XY=     0.3328   XZ=     9.1261   YZ=    -0.2724
 Octapole moment (field-independent basis, Debye-Ang**2):
  XXX=   106.8552  YYY=    51.3251  ZZZ=    -6.0898  XYY=    -4.2136
  XXY=   -53.6481  XXZ=   -40.8111  XZZ=   -18.1779  YZZ=    -1.4548
  YYZ=   -56.5367  XYZ=   -12.5787
 Hexadecapole moment (field-independent basis, Debye-Ang**3):
 XXXX=  -740.8930 YYYY=  -407.4866 ZZZZ=  -730.3642 XXXY=   -30.5760
 XXXZ=    27.4722 YYYX=    19.2050 YYYZ=   -19.5950 ZZZX=    44.1724
 ZZZY=     2.2141 XXYY=  -182.5120 XXZZ=  -239.9330 YYZZ=  -179.9242
 XXYZ=    16.7150 YYXZ=    12.9313 ZZXY=     7.6464
 N-N= 1.090332061347D+03 E-N=-8.681176818443D+03  KE= 2.742202860552D+03
 Merz-Kollman atomic radii used.
 Read replacement radii for each type of atom:
 Rad(20) =   1.188000000000D+00
 Atom Element Radius
    1     8    1.40
    2     8    1.40
    3    15    1.80
    4     8    1.40
    5     8    1.40
    6    20    1.19
    7    20    1.19
    8    20    1.19
    9     8    1.40

 **********************************************************************

            Electrostatic Properties Using The SCF Density

 **********************************************************************

       Atomic Center    1 is at  -2.561190  0.084045  0.389989
       Atomic Center    2 is at  -1.260177  0.758268  0.700419
       Atomic Center    3 is at  -0.046308 -0.052439  1.763389
       Atomic Center    4 is at   1.159552  0.880253  1.115939
       Atomic Center    5 is at   0.498381 -0.016574 -1.701221
       Atomic Center    6 is at   0.083642  1.945582 -0.703271
       Atomic Center    7 is at   2.034029 -0.779208 -0.271151
       Atomic Center    8 is at  -1.284656 -1.230542 -0.921261
       Atomic Center    9 is at   0.167726 -1.447247  0.927729
     730 points will be used for fitting atomic charges
 Fitting point charges to eletrostatic potential
 Charges from ESP fit, RMS=   0.00539 RRMS=   0.03347:
 Charge=   1.00000 Dipole=     7.1168    -0.0501    -8.6939 Tot=    11.2355
              1
     1  O   -0.634183
     2  O   -0.411579
     3  P    0.550035
     4  O   -0.932452
     5  O   -1.618630
     6  Ca   1.641008
     7  Ca   1.661880
     8  Ca   1.645706
     9  O   -0.901784
 -----------------------------------------------------------------

              Electrostatic Properties (Atomic Units)

 -----------------------------------------------------------------
    Center     Electric         -------- Electric Field --------
               Potential          X             Y             Z
 -----------------------------------------------------------------
    1 Atom    -22.239590
    2 Atom    -22.175723
    3 Atom    -53.943305
    4 Atom    -22.225716
    5 Atom    -22.289749
    6 Atom    -80.024259
    7 Atom    -80.025016
    8 Atom    -80.054013
    9 Atom    -22.231389
 -----------------------------------------------------------------
 1\1\GINC-N028\SP\RB3LYP\6-31+G(d,p)\Ca3O5P1(1+)\TIMN\12-Jun-2015\0\\# 
 b3lyp/6-31+G(d,p) int=ultrafine pop=(ReadRadii,MK)\\mol_17.27.0.pdbccc
 _plusQ.z58476.zip.xyz\\1,1\O,0,-2.56119,0.08407,0.38999\O,0,-1.26017,0
 .75828,0.70042\P,0,-0.04631,-0.05244,1.76339\O,0,1.15956,0.88024,1.115
 94\O,0,0.49838,-0.01658,-1.70122\Ca,0,0.08366,1.94558,-0.70327\Ca,0,2.
 03402,-0.77923,-0.27115\Ca,0,-1.28467,-1.23053,-0.92126\O,0,0.16771,-1
 .44725,0.92773\\Version=EM64T-G03RevE.01\State=1-A\HF=-2750.1941768\RM
 SD=4.252e-05\Thermal=0.\Dipole=2.7307598,-0.047243,-3.3575101\PG=C01 [
 X(Ca3O5P1)]\\@


 One man practicing sportsmanship is far better than 50 preaching it.
 -- Knute K. Rockne
 Job cpu time:  0 days  0 hours  2 minutes 27.1 seconds.
 File lengths (MBytes):  RWF=     36 Int=      0 D2E=      0 Chk=     11 Scr=      1
 Normal termination of Gaussian 03 at Fri Jun 12 18:02:51 2015.
