 Entering Gaussian System, Link 0=/home/timn/tmp/g03.e01/g03
 Input=mol_17.23.7.pdbc_plusQ.z58262.zip.xyz.gjf
 Output=mol_17.23.7.pdbc_plusQ.z58262.zip.xyz.out
 Initial command:
 /home/timn/tmp/g03.e01/l1.exe /home/timn/tmp/g03.e01/Gau-19632.inp -scrdir=/home/timn/tmp/g03.e01/
 Default is to use a total of   2 processors:
                                2 via shared-memory
                                1 via Linda
 Entering Link 1 = /home/timn/tmp/g03.e01/l1.exe PID=     19633.
  
 Copyright (c) 1988,1990,1992,1993,1995,1998,2003,2004,2007, Gaussian, Inc.
                  All Rights Reserved.
  
 This is the Gaussian(R) 03 program.  It is based on the
 the Gaussian(R) 98 system (copyright 1998, Gaussian, Inc.),
 the Gaussian(R) 94 system (copyright 1995, Gaussian, Inc.),
 the Gaussian 92(TM) system (copyright 1992, Gaussian, Inc.),
 the Gaussian 90(TM) system (copyright 1990, Gaussian, Inc.),
 the Gaussian 88(TM) system (copyright 1988, Gaussian, Inc.),
 the Gaussian 86(TM) system (copyright 1986, Carnegie Mellon
 University), and the Gaussian 82(TM) system (copyright 1983,
 Carnegie Mellon University). Gaussian is a federally registered
 trademark of Gaussian, Inc.
  
 This software contains proprietary and confidential information,
 including trade secrets, belonging to Gaussian, Inc.
  
 This software is provided under written license and may be
 used, copied, transmitted, or stored only in accord with that
 written license.
  
 The following legend is applicable only to US Government
 contracts under FAR:
  
                    RESTRICTED RIGHTS LEGEND
  
 Use, reproduction and disclosure by the US Government is
 subject to restrictions as set forth in subparagraphs (a)
 and (c) of the Commercial Computer Software - Restricted
 Rights clause in FAR 52.227-19.
  
 Gaussian, Inc.
 340 Quinnipiac St., Bldg. 40, Wallingford CT 06492
  
  
 ---------------------------------------------------------------
 Warning -- This program may not be used in any manner that
 competes with the business of Gaussian, Inc. or will provide
 assistance to any competitor of Gaussian, Inc.  The licensee
 of this program is prohibited from giving any competitor of
 Gaussian, Inc. access to this program.  By using this program,
 the user acknowledges that Gaussian, Inc. is engaged in the
 business of creating and licensing software in the field of
 computational chemistry and represents and warrants to the
 licensee that it is not a competitor of Gaussian, Inc. and that
 it will not use this program in any manner prohibited above.
 ---------------------------------------------------------------
  

 Cite this work as:
 Gaussian 03, Revision E.01,
 M. J. Frisch, G. W. Trucks, H. B. Schlegel, G. E. Scuseria, 
 M. A. Robb, J. R. Cheeseman, J. A. Montgomery, Jr., T. Vreven, 
 K. N. Kudin, J. C. Burant, J. M. Millam, S. S. Iyengar, J. Tomasi, 
 V. Barone, B. Mennucci, M. Cossi, G. Scalmani, N. Rega, 
 G. A. Petersson, H. Nakatsuji, M. Hada, M. Ehara, K. Toyota, 
 R. Fukuda, J. Hasegawa, M. Ishida, T. Nakajima, Y. Honda, O. Kitao, 
 H. Nakai, M. Klene, X. Li, J. E. Knox, H. P. Hratchian, J. B. Cross, 
 V. Bakken, C. Adamo, J. Jaramillo, R. Gomperts, R. E. Stratmann, 
 O. Yazyev, A. J. Austin, R. Cammi, C. Pomelli, J. W. Ochterski, 
 P. Y. Ayala, K. Morokuma, G. A. Voth, P. Salvador, J. J. Dannenberg, 
 V. G. Zakrzewski, S. Dapprich, A. D. Daniels, M. C. Strain, 
 O. Farkas, D. K. Malick, A. D. Rabuck, K. Raghavachari, 
 J. B. Foresman, J. V. Ortiz, Q. Cui, A. G. Baboul, S. Clifford, 
 J. Cioslowski, B. B. Stefanov, G. Liu, A. Liashenko, P. Piskorz, 
 I. Komaromi, R. L. Martin, D. J. Fox, T. Keith, M. A. Al-Laham, 
 C. Y. Peng, A. Nanayakkara, M. Challacombe, P. M. W. Gill, 
 B. Johnson, W. Chen, M. W. Wong, C. Gonzalez, and J. A. Pople, 
 Gaussian, Inc., Wallingford CT, 2004.
 
 ******************************************
 Gaussian 03:  EM64T-G03RevE.01 11-Sep-2007
                12-Jun-2015 
 ******************************************
 %nproc=2
 Will use up to    2 processors via shared memory.
 Default route:  MP2=Direct MaxDisk=2000MB
 ----------------------------------------------------
 # b3lyp/6-31+G(d,p) int=ultrafine pop=(ReadRadii,MK)
 ----------------------------------------------------

 Warning!  SCF SP cutoffs with diffuse functions may be unreliable.
 Consider SCF=Tight

 1/38=1/1;
 2/17=6,18=5,40=1/2;
 3/5=1,6=6,7=111,11=2,16=1,25=1,30=1,74=-5,75=5/1,2,3;
 4//1;
 5/5=2,32=1,38=5/2;
 6/7=2,8=2,9=2,10=2,15=8,20=101,28=1/1,2;
 99/5=1,9=1/99;
 -------------------------------------
 mol_17.23.7.pdbc_plusQ.z58262.zip.xyz
 -------------------------------------
 Symbolic Z-matrix:
 Charge =  1 Multiplicity = 1
 O                     1.46809  -3.1276    0. 
 P                     0.40073  -1.95667   0. 
 Ca                    3.34143  -1.9449    0. 
 O                     1.46871  -0.66094   0. 
 O                    -0.99414   3.19904   0. 
 Ca                    0.        1.25209   0. 
 Ca                   -3.01153   2.49986   0. 
 O                    -2.20463   0.4517    0. 
 O                    -1.31414  -0.71109   0. 
 
                          Input orientation:                          
 ---------------------------------------------------------------------
 Center     Atomic     Atomic              Coordinates (Angstroms)
 Number     Number      Type              X           Y           Z
 ---------------------------------------------------------------------
    1          8             0        1.468090   -3.127600    0.000000
    2         15             0        0.400730   -1.956670    0.000000
    3         20             0        3.341430   -1.944900    0.000000
    4          8             0        1.468710   -0.660940    0.000000
    5          8             0       -0.994140    3.199040    0.000000
    6         20             0        0.000000    1.252090    0.000000
    7         20             0       -3.011530    2.499860    0.000000
    8          8             0       -2.204630    0.451700    0.000000
    9          8             0       -1.314140   -0.711090    0.000000
 ---------------------------------------------------------------------
                    Distance matrix (angstroms):
                    1          2          3          4          5
     1  O    0.000000
     2  P    1.584403   0.000000
     3  Ca   2.215442   2.940724   0.000000
     4  O    2.466660   1.679136   2.270602   0.000000
     5  O    6.788884   5.341068   6.727354   4.578764   0.000000
     6  Ca   4.619196   3.233686   4.624489   2.411803   2.186076
     7  Ca   7.192726   5.612858   7.753450   5.482993   2.135115
     8  O    5.128378   3.547978   6.041728   3.838150   3.002193
     9  O    3.685149   2.119493   4.816287   2.783302   3.923202
                    6          7          8          9
     6  Ca   0.000000
     7  Ca   3.259792   0.000000
     8  O    2.345425   2.201374   0.000000
     9  O    2.362422   3.631987   1.464600   0.000000
 Stoichiometry    Ca3O5P(1+)
 Framework group  CS[SG(Ca3O5P)]
 Deg. of freedom    15
 Full point group                 CS
 Largest Abelian subgroup         CS      NOp   2
 Largest concise Abelian subgroup C1      NOp   1
                         Standard orientation:                         
 ---------------------------------------------------------------------
 Center     Atomic     Atomic              Coordinates (Angstroms)
 Number     Number      Type              X           Y           Z
 ---------------------------------------------------------------------
    1          8             0        1.468088   -3.127599    0.000000
    2         15             0        0.400728   -1.956669    0.000000
    3         20             0        3.341428   -1.944900    0.000000
    4          8             0        1.468709   -0.660939    0.000000
    5          8             0       -0.994139    3.199042    0.000000
    6         20             0        0.000000    1.252091    0.000000
    7         20             0       -3.011529    2.499863    0.000000
    8          8             0       -2.204630    0.451703    0.000000
    9          8             0       -1.314141   -0.711088    0.000000
 ---------------------------------------------------------------------
 Rotational constants (GHZ):      2.1475916      0.2992127      0.2626228
 Standard basis: 6-31+G(d,p) (6D, 7F)
 There are   147 symmetry adapted basis functions of A'  symmetry.
 There are    52 symmetry adapted basis functions of A"  symmetry.
 Integral buffers will be    131072 words long.
 Raffenetti 2 integral format.
 Two-electron integral symmetry is turned on.
   199 basis functions,   456 primitive gaussians,   199 cartesian basis functions
    57 alpha electrons       57 beta electrons
       nuclear repulsion energy       925.3836413798 Hartrees.
 NAtoms=    9 NActive=    9 NUniq=    9 SFac= 7.50D-01 NAtFMM=   80 NAOKFM=F Big=F
 One-electron integrals computed using PRISM.
 NBasis=   199 RedAO= T  NBF=   147    52
 NBsUse=   199 1.00D-06 NBFU=   147    52
 Harris functional with IExCor=  402 diagonalized for initial guess.
 ExpMin= 7.10D-03 ExpMax= 3.53D+04 ExpMxC= 5.30D+03 IAcc=3 IRadAn=         5 AccDes= 0.00D+00
 HarFok:  IExCor= 402 AccDes= 0.00D+00 IRadAn=         5 IDoV=1
 ScaDFX=  1.000000  1.000000  1.000000  1.000000
 Initial guess orbital symmetries:
       Occupied  (A') (A') (A') (A') (A') (A') (A') (A') (A') (A')
                 (A') (A') (A') (A') (A") (A') (A') (A") (A') (A')
                 (A") (A') (A') (A') (A") (A') (A') (A') (A') (A')
                 (A') (A') (A') (A') (A") (A") (A") (A') (A') (A')
                 (A') (A') (A') (A') (A') (A') (A") (A') (A") (A')
                 (A') (A") (A') (A") (A') (A") (A')
       Virtual   (A") (A') (A') (A') (A') (A") (A') (A") (A') (A')
                 (A') (A") (A') (A') (A') (A') (A") (A') (A") (A')
                 (A') (A') (A") (A') (A') (A') (A') (A") (A') (A')
                 (A") (A') (A') (A") (A') (A') (A") (A') (A") (A')
                 (A") (A') (A") (A') (A') (A') (A") (A') (A") (A')
                 (A') (A') (A') (A") (A') (A') (A") (A') (A") (A")
                 (A') (A') (A') (A') (A') (A") (A') (A") (A') (A')
                 (A') (A') (A') (A') (A') (A") (A') (A') (A') (A')
                 (A') (A") (A") (A') (A') (A') (A') (A') (A') (A")
                 (A") (A') (A") (A') (A") (A') (A") (A') (A') (A')
                 (A') (A') (A') (A') (A') (A') (A') (A") (A') (A')
                 (A') (A") (A') (A") (A') (A") (A") (A") (A') (A')
                 (A") (A') (A") (A') (A') (A") (A') (A') (A') (A')
                 (A') (A") (A') (A') (A') (A') (A') (A') (A') (A')
                 (A') (A')
 The electronic state of the initial guess is 1-A'.
 Requested convergence on RMS density matrix=1.00D-04 within 128 cycles.
 Requested convergence on MAX density matrix=1.00D-02.
 Requested convergence on             energy=1.00D-02.
 No special actions if energy rises.
 EnCoef did     3 forward-backward iterations
 EnCoef did     2 forward-backward iterations
 EnCoef did     2 forward-backward iterations
 EnCoef did     2 forward-backward iterations
 SCF Done:  E(RB+HF-LYP) =  -2750.05251751     A.U. after   12 cycles
             Convg  =    0.1920D-04             -V/T =  2.0029
             S**2   =   0.0000

 **********************************************************************

            Population analysis using the SCF density.

 **********************************************************************

 Orbital symmetries:
       Occupied  (A') (A') (A') (A') (A') (A') (A') (A') (A') (A')
                 (A') (A') (A") (A') (A') (A") (A') (A') (A") (A')
                 (A') (A') (A") (A') (A') (A') (A') (A') (A") (A')
                 (A') (A') (A") (A') (A') (A") (A') (A') (A') (A')
                 (A') (A') (A') (A') (A') (A") (A') (A') (A") (A")
                 (A') (A') (A') (A") (A') (A") (A')
       Virtual   (A') (A") (A') (A') (A") (A') (A') (A") (A') (A")
                 (A') (A') (A') (A') (A") (A') (A') (A') (A") (A')
                 (A') (A") (A') (A') (A') (A") (A') (A') (A') (A')
                 (A") (A') (A") (A') (A') (A") (A') (A') (A') (A")
                 (A') (A") (A') (A") (A') (A') (A") (A') (A') (A")
                 (A') (A') (A') (A") (A') (A") (A') (A') (A") (A')
                 (A') (A") (A') (A') (A") (A') (A') (A") (A') (A')
                 (A') (A') (A") (A') (A') (A') (A') (A') (A') (A')
                 (A") (A') (A") (A') (A') (A') (A') (A') (A') (A')
                 (A") (A") (A") (A') (A') (A") (A') (A") (A') (A')
                 (A') (A') (A') (A') (A') (A') (A') (A') (A") (A')
                 (A') (A") (A') (A') (A") (A") (A') (A") (A') (A")
                 (A') (A") (A") (A') (A") (A') (A') (A') (A') (A')
                 (A') (A") (A') (A') (A') (A') (A') (A') (A') (A')
                 (A') (A')
 The electronic state is 1-A'.
 Alpha  occ. eigenvalues -- -145.58534-145.47465-145.42800 -77.28575 -19.26821
 Alpha  occ. eigenvalues --  -19.25403 -19.24181 -19.21420 -19.10036 -15.65353
 Alpha  occ. eigenvalues --  -15.54274 -15.49764 -12.78592 -12.78504 -12.78479
 Alpha  occ. eigenvalues --  -12.67511 -12.67442 -12.67373 -12.63047 -12.62948
 Alpha  occ. eigenvalues --  -12.62791  -6.73714  -4.89967  -4.89965  -4.89657
 Alpha  occ. eigenvalues --   -2.02325  -1.91448  -1.87284  -1.29961  -1.29781
 Alpha  occ. eigenvalues --   -1.29475  -1.19284  -1.19188  -1.18353  -1.15754
 Alpha  occ. eigenvalues --   -1.15422  -1.14625  -1.10524  -1.07785  -1.05054
 Alpha  occ. eigenvalues --   -0.85521  -0.83863  -0.65944  -0.54343  -0.53389
 Alpha  occ. eigenvalues --   -0.50465  -0.48516  -0.43892  -0.43546  -0.43031
 Alpha  occ. eigenvalues --   -0.42301  -0.36542  -0.30721  -0.29638  -0.29406
 Alpha  occ. eigenvalues --   -0.27726  -0.27149
 Alpha virt. eigenvalues --   -0.24783  -0.18170  -0.17234  -0.15637  -0.15608
 Alpha virt. eigenvalues --   -0.13506  -0.11443  -0.09246  -0.08111  -0.07864
 Alpha virt. eigenvalues --   -0.07859  -0.07325  -0.06574  -0.05591  -0.05475
 Alpha virt. eigenvalues --   -0.05414  -0.04956  -0.04351  -0.03738  -0.03531
 Alpha virt. eigenvalues --   -0.03467  -0.03184  -0.02959  -0.02870  -0.02578
 Alpha virt. eigenvalues --   -0.02293  -0.02097  -0.00901  -0.00546   0.00457
 Alpha virt. eigenvalues --    0.00545   0.01034   0.01979   0.02573   0.03095
 Alpha virt. eigenvalues --    0.03667   0.03768   0.04350   0.05246   0.06436
 Alpha virt. eigenvalues --    0.06939   0.07429   0.08330   0.08428   0.09065
 Alpha virt. eigenvalues --    0.10656   0.10730   0.11554   0.11759   0.12276
 Alpha virt. eigenvalues --    0.13554   0.15653   0.16354   0.16792   0.17235
 Alpha virt. eigenvalues --    0.17352   0.19053   0.20657   0.21285   0.21721
 Alpha virt. eigenvalues --    0.23002   0.23547   0.24514   0.25806   0.26670
 Alpha virt. eigenvalues --    0.26951   0.28238   0.29062   0.29607   0.32788
 Alpha virt. eigenvalues --    0.34341   0.35468   0.37850   0.38834   0.39054
 Alpha virt. eigenvalues --    0.40183   0.42535   0.46074   0.47224   0.53575
 Alpha virt. eigenvalues --    0.56268   0.56966   0.58195   0.63573   0.65776
 Alpha virt. eigenvalues --    0.67987   0.77693   0.86028   0.87464   1.05437
 Alpha virt. eigenvalues --    1.06099   1.08106   1.11232   1.14111   1.15106
 Alpha virt. eigenvalues --    1.16528   1.17983   1.19823   1.19880   1.20751
 Alpha virt. eigenvalues --    1.23635   1.27823   1.32115   1.33202   1.41716
 Alpha virt. eigenvalues --    1.42831   1.45411   1.48266   1.51224   1.54555
 Alpha virt. eigenvalues --    1.57035   1.67761   1.68024   1.69258   1.69599
 Alpha virt. eigenvalues --    1.71316   1.78679   1.79123   1.82553   1.84581
 Alpha virt. eigenvalues --    1.85131   1.87025   1.87650   1.88516   1.89615
 Alpha virt. eigenvalues --    1.94786   1.95927   1.96982   1.99613   2.01712
 Alpha virt. eigenvalues --    2.23246   2.31192   2.34798   2.37780   2.62174
 Alpha virt. eigenvalues --    3.19468   3.45991   3.88215   3.94095   4.02629
 Alpha virt. eigenvalues --    4.06990   4.23294
          Condensed to atoms (all electrons):
              1          2          3          4          5          6
     1  O    9.300885  -0.570232   0.081586   0.031266  -0.000028   0.015488
     2  P   -0.570232  14.911229   0.023269  -0.203996   0.003408  -0.083582
     3  Ca   0.081586   0.023269  18.359892   0.043130  -0.004977   0.049737
     4  O    0.031266  -0.203996   0.043130   9.039943  -0.001990   0.038739
     5  O   -0.000028   0.003408  -0.004977  -0.001990   8.701752   0.204636
     6  Ca   0.015488  -0.083582   0.049737   0.038739   0.204636  18.649384
     7  Ca   0.005986   0.058739  -0.080168  -0.003583   0.229120  -0.307442
     8  O   -0.018005  -0.006869   0.003970  -0.042438  -0.050478  -0.037976
     9  O   -0.070958   0.087252   0.008349  -0.007930   0.038805   0.125174
              7          8          9
     1  O    0.005986  -0.018005  -0.070958
     2  P    0.058739  -0.006869   0.087252
     3  Ca  -0.080168   0.003970   0.008349
     4  O   -0.003583  -0.042438  -0.007930
     5  O    0.229120  -0.050478   0.038805
     6  Ca  -0.307442  -0.037976   0.125174
     7  Ca  18.663855   0.112604  -0.019580
     8  O    0.112604   9.623727  -0.968664
     9  O   -0.019580  -0.968664   9.384606
 Mulliken atomic charges:
              1
     1  O   -0.775987
     2  P    0.780781
     3  Ca   1.515212
     4  O   -0.893142
     5  O   -1.120248
     6  Ca   1.345841
     7  Ca   1.340468
     8  O   -0.615872
     9  O   -0.577054
 Sum of Mulliken charges=   1.00000
 Atomic charges with hydrogens summed into heavy atoms:
              1
     1  O   -0.775987
     2  P    0.780781
     3  Ca   1.515212
     4  O   -0.893142
     5  O   -1.120248
     6  Ca   1.345841
     7  Ca   1.340468
     8  O   -0.615872
     9  O   -0.577054
 Sum of Mulliken charges=   1.00000
 Electronic spatial extent (au):  <R**2>=  3527.1971
 Charge=     1.0000 electrons
 Dipole moment (field-independent basis, Debye):
    X=     9.7187    Y=    -0.7270    Z=     0.0000  Tot=     9.7459
 Quadrupole moment (field-independent basis, Debye-Ang):
   XX=    28.9699   YY=   -82.5262   ZZ=   -75.1375
   XY=   -62.8595   XZ=     0.0000   YZ=     0.0000
 Traceless Quadrupole moment (field-independent basis, Debye-Ang):
   XX=    71.8678   YY=   -39.6283   ZZ=   -32.2396
   XY=   -62.8595   XZ=     0.0000   YZ=     0.0000
 Octapole moment (field-independent basis, Debye-Ang**2):
  XXX=   107.1857  YYY=   -42.4917  ZZZ=     0.0000  XYY=   -20.2496
  XXY=    15.1540  XXZ=     0.0000  XZZ=     6.2115  YZZ=     1.1382
  YYZ=     0.0000  XYZ=     0.0000
 Hexadecapole moment (field-independent basis, Debye-Ang**3):
 XXXX=  -356.6246 YYYY= -2519.7768 ZZZZ=   -91.0873 XXXY=  -361.7445
 XXXZ=     0.0000 YYYX=   451.2882 YYYZ=     0.0000 ZZZX=     0.0000
 ZZZY=     0.0000 XXYY=   -21.8897 XXZZ=  -301.2330 YYZZ=  -347.3122
 XXYZ=     0.0000 YYXZ=     0.0000 ZZXY=   203.7312
 N-N= 9.253836413798D+02 E-N=-8.352434538633D+03  KE= 2.742065602274D+03
 Symmetry A'   KE= 2.475854560003D+03
 Symmetry A"   KE= 2.662110422710D+02
 Merz-Kollman atomic radii used.
 Read replacement radii for each type of atom:
 Rad(20) =   1.188000000000D+00
 Atom Element Radius
    1     8    1.40
    2    15    1.80
    3    20    1.19
    4     8    1.40
    5     8    1.40
    6    20    1.19
    7    20    1.19
    8     8    1.40
    9     8    1.40

 **********************************************************************

            Electrostatic Properties Using The SCF Density

 **********************************************************************

       Atomic Center    1 is at   1.468088 -3.127599  0.000000
       Atomic Center    2 is at   0.400728 -1.956669  0.000000
       Atomic Center    3 is at   3.341428 -1.944900  0.000000
       Atomic Center    4 is at   1.468709 -0.660939  0.000000
       Atomic Center    5 is at  -0.994139  3.199042  0.000000
       Atomic Center    6 is at   0.000000  1.252091  0.000000
       Atomic Center    7 is at  -3.011529  2.499863  0.000000
       Atomic Center    8 is at  -2.204630  0.451703  0.000000
       Atomic Center    9 is at  -1.314141 -0.711088  0.000000
     824 points will be used for fitting atomic charges
 Fitting point charges to eletrostatic potential
 Charges from ESP fit, RMS=   0.00616 RRMS=   0.04095:
 Charge=   1.00000 Dipole=    10.0523    -0.6138     0.0000 Tot=    10.0710
              1
     1  O   -0.748084
     2  P    0.658690
     3  Ca   1.589445
     4  O   -1.031162
     5  O   -1.480144
     6  Ca   1.683518
     7  Ca   1.605783
     8  O   -0.915726
     9  O   -0.362320
 -----------------------------------------------------------------

              Electrostatic Properties (Atomic Units)

 -----------------------------------------------------------------
    Center     Electric         -------- Electric Field --------
               Potential          X             Y             Z
 -----------------------------------------------------------------
    1 Atom    -22.214357
    2 Atom    -53.935464
    3 Atom    -79.958833
    4 Atom    -22.196950
    5 Atom    -22.354437
    6 Atom    -80.111321
    7 Atom    -80.063656
    8 Atom    -22.248593
    9 Atom    -22.230549
 -----------------------------------------------------------------
 1\1\GINC-N026\SP\RB3LYP\6-31+G(d,p)\Ca3O5P1(1+)\TIMN\12-Jun-2015\0\\# 
 b3lyp/6-31+G(d,p) int=ultrafine pop=(ReadRadii,MK)\\mol_17.23.7.pdbc_p
 lusQ.z58262.zip.xyz\\1,1\O,0,1.46809,-3.1276,0.\P,0,0.40073,-1.95667,0
 .\Ca,0,3.34143,-1.9449,0.\O,0,1.46871,-0.66094,0.\O,0,-0.99414,3.19904
 ,0.\Ca,0,0.,1.25209,0.\Ca,0,-3.01153,2.49986,0.\O,0,-2.20463,0.4517,0.
 \O,0,-1.31414,-0.71109,0.\\Version=EM64T-G03RevE.01\State=1-A'\HF=-275
 0.0525175\RMSD=1.920e-05\Thermal=0.\Dipole=3.8236329,-0.2860411,0.\PG=
 CS [SG(Ca3O5P1)]\\@


 IF IT'S NOT TRUE, IT'S WELL INVENTED -- DANTE
 Job cpu time:  0 days  0 hours  2 minutes  6.2 seconds.
 File lengths (MBytes):  RWF=     36 Int=      0 D2E=      0 Chk=     11 Scr=      1
 Normal termination of Gaussian 03 at Fri Jun 12 17:54:29 2015.
