 Entering Gaussian System, Link 0=/home/timn/tmp/g03.e01/g03
 Input=mol_17.23.25.pdb_plusQ.z58226.zip.xyz.gjf
 Output=mol_17.23.25.pdb_plusQ.z58226.zip.xyz.out
 Initial command:
 /home/timn/tmp/g03.e01/l1.exe /home/timn/tmp/g03.e01/Gau-14689.inp -scrdir=/home/timn/tmp/g03.e01/
 Default is to use a total of   2 processors:
                                2 via shared-memory
                                1 via Linda
 Entering Link 1 = /home/timn/tmp/g03.e01/l1.exe PID=     14690.
  
 Copyright (c) 1988,1990,1992,1993,1995,1998,2003,2004,2007, Gaussian, Inc.
                  All Rights Reserved.
  
 This is the Gaussian(R) 03 program.  It is based on the
 the Gaussian(R) 98 system (copyright 1998, Gaussian, Inc.),
 the Gaussian(R) 94 system (copyright 1995, Gaussian, Inc.),
 the Gaussian 92(TM) system (copyright 1992, Gaussian, Inc.),
 the Gaussian 90(TM) system (copyright 1990, Gaussian, Inc.),
 the Gaussian 88(TM) system (copyright 1988, Gaussian, Inc.),
 the Gaussian 86(TM) system (copyright 1986, Carnegie Mellon
 University), and the Gaussian 82(TM) system (copyright 1983,
 Carnegie Mellon University). Gaussian is a federally registered
 trademark of Gaussian, Inc.
  
 This software contains proprietary and confidential information,
 including trade secrets, belonging to Gaussian, Inc.
  
 This software is provided under written license and may be
 used, copied, transmitted, or stored only in accord with that
 written license.
  
 The following legend is applicable only to US Government
 contracts under FAR:
  
                    RESTRICTED RIGHTS LEGEND
  
 Use, reproduction and disclosure by the US Government is
 subject to restrictions as set forth in subparagraphs (a)
 and (c) of the Commercial Computer Software - Restricted
 Rights clause in FAR 52.227-19.
  
 Gaussian, Inc.
 340 Quinnipiac St., Bldg. 40, Wallingford CT 06492
  
  
 ---------------------------------------------------------------
 Warning -- This program may not be used in any manner that
 competes with the business of Gaussian, Inc. or will provide
 assistance to any competitor of Gaussian, Inc.  The licensee
 of this program is prohibited from giving any competitor of
 Gaussian, Inc. access to this program.  By using this program,
 the user acknowledges that Gaussian, Inc. is engaged in the
 business of creating and licensing software in the field of
 computational chemistry and represents and warrants to the
 licensee that it is not a competitor of Gaussian, Inc. and that
 it will not use this program in any manner prohibited above.
 ---------------------------------------------------------------
  

 Cite this work as:
 Gaussian 03, Revision E.01,
 M. J. Frisch, G. W. Trucks, H. B. Schlegel, G. E. Scuseria, 
 M. A. Robb, J. R. Cheeseman, J. A. Montgomery, Jr., T. Vreven, 
 K. N. Kudin, J. C. Burant, J. M. Millam, S. S. Iyengar, J. Tomasi, 
 V. Barone, B. Mennucci, M. Cossi, G. Scalmani, N. Rega, 
 G. A. Petersson, H. Nakatsuji, M. Hada, M. Ehara, K. Toyota, 
 R. Fukuda, J. Hasegawa, M. Ishida, T. Nakajima, Y. Honda, O. Kitao, 
 H. Nakai, M. Klene, X. Li, J. E. Knox, H. P. Hratchian, J. B. Cross, 
 V. Bakken, C. Adamo, J. Jaramillo, R. Gomperts, R. E. Stratmann, 
 O. Yazyev, A. J. Austin, R. Cammi, C. Pomelli, J. W. Ochterski, 
 P. Y. Ayala, K. Morokuma, G. A. Voth, P. Salvador, J. J. Dannenberg, 
 V. G. Zakrzewski, S. Dapprich, A. D. Daniels, M. C. Strain, 
 O. Farkas, D. K. Malick, A. D. Rabuck, K. Raghavachari, 
 J. B. Foresman, J. V. Ortiz, Q. Cui, A. G. Baboul, S. Clifford, 
 J. Cioslowski, B. B. Stefanov, G. Liu, A. Liashenko, P. Piskorz, 
 I. Komaromi, R. L. Martin, D. J. Fox, T. Keith, M. A. Al-Laham, 
 C. Y. Peng, A. Nanayakkara, M. Challacombe, P. M. W. Gill, 
 B. Johnson, W. Chen, M. W. Wong, C. Gonzalez, and J. A. Pople, 
 Gaussian, Inc., Wallingford CT, 2004.
 
 ******************************************
 Gaussian 03:  EM64T-G03RevE.01 11-Sep-2007
                12-Jun-2015 
 ******************************************
 %nproc=2
 Will use up to    2 processors via shared memory.
 Default route:  MP2=Direct MaxDisk=2000MB
 ----------------------------------------------------
 # b3lyp/6-31+G(d,p) int=ultrafine pop=(ReadRadii,MK)
 ----------------------------------------------------

 Warning!  SCF SP cutoffs with diffuse functions may be unreliable.
 Consider SCF=Tight

 1/38=1/1;
 2/17=6,18=5,40=1/2;
 3/5=1,6=6,7=111,11=2,16=1,25=1,30=1,74=-5,75=5/1,2,3;
 4//1;
 5/5=2,32=1,38=5/2;
 6/7=2,8=2,9=2,10=2,15=8,20=101,28=1/1,2;
 99/5=1,9=1/99;
 -------------------------------------
 mol_17.23.25.pdb_plusQ.z58226.zip.xyz
 -------------------------------------
 Symbolic Z-matrix:
 Charge =  1 Multiplicity = 1
 Ca                   -4.6827    0.15629  -0.00061 
 O                    -2.72445  -0.76128  -0.00478 
 O                    -2.60986   0.81089   0.0041 
 Ca                   -0.49144  -0.15753   0.00167 
 P                     2.13696  -1.17153   0.00044 
 O                     3.67981  -0.8357   -0.00061 
 O                     1.52021  -0.14706  -1.2087 
 Ca                    3.01652   1.31225  -0.0014 
 O                     1.52155  -0.14774   1.21002 
 
                          Input orientation:                          
 ---------------------------------------------------------------------
 Center     Atomic     Atomic              Coordinates (Angstroms)
 Number     Number      Type              X           Y           Z
 ---------------------------------------------------------------------
    1         20             0       -4.682700    0.156290   -0.000610
    2          8             0       -2.724450   -0.761280   -0.004780
    3          8             0       -2.609860    0.810890    0.004100
    4         20             0       -0.491440   -0.157530    0.001670
    5         15             0        2.136960   -1.171530    0.000440
    6          8             0        3.679810   -0.835700   -0.000610
    7          8             0        1.520210   -0.147060   -1.208700
    8         20             0        3.016520    1.312250   -0.001400
    9          8             0        1.521550   -0.147740    1.210020
 ---------------------------------------------------------------------
                    Distance matrix (angstroms):
                    1          2          3          4          5
     1  Ca   0.000000
     2  O    2.162567   0.000000
     3  O    2.173750   1.576366   0.000000
     4  Ca   4.202993   2.313199   2.329280   0.000000
     5  P    6.947724   4.878692   5.144152   2.817212   0.000000
     6  O    8.421141   6.404694   6.501633   4.226020   1.578977
     7  O    6.326737   4.454641   4.409765   2.347731   1.700570
     8  Ca   7.785514   6.103956   5.648676   3.803426   2.634918
     9  O    6.328568   4.458776   4.409281   2.347836   1.699988
                    6          7          8          9
     6  O    0.000000
     7  O    2.568575   0.000000
     8  Ca   2.248031   2.413732   0.000000
     9  O    2.568463   2.418720   2.415377   0.000000
 Stoichiometry    Ca3O5P(1+)
 Framework group  C1[X(Ca3O5P)]
 Deg. of freedom    21
 Full point group                 C1
 Largest Abelian subgroup         C1      NOp   1
 Largest concise Abelian subgroup C1      NOp   1
                         Standard orientation:                         
 ---------------------------------------------------------------------
 Center     Atomic     Atomic              Coordinates (Angstroms)
 Number     Number      Type              X           Y           Z
 ---------------------------------------------------------------------
    1         20             0       -4.682701    0.156292   -0.000610
    2          8             0       -2.724451   -0.761280   -0.004780
    3          8             0       -2.609860    0.810890    0.004100
    4         20             0       -0.491441   -0.157531    0.001670
    5         15             0        2.136959   -1.171532    0.000440
    6          8             0        3.679809   -0.835703   -0.000610
    7          8             0        1.520209   -0.147062   -1.208700
    8         20             0        3.016520    1.312247   -0.001400
    9          8             0        1.521549   -0.147742    1.210020
 ---------------------------------------------------------------------
 Rotational constants (GHZ):      2.6359542      0.2583680      0.2460231
 Standard basis: 6-31+G(d,p) (6D, 7F)
 There are   199 symmetry adapted basis functions of A   symmetry.
 Integral buffers will be    131072 words long.
 Raffenetti 2 integral format.
 Two-electron integral symmetry is turned on.
   199 basis functions,   456 primitive gaussians,   199 cartesian basis functions
    57 alpha electrons       57 beta electrons
       nuclear repulsion energy       932.5252454647 Hartrees.
 NAtoms=    9 NActive=    9 NUniq=    9 SFac= 7.50D-01 NAtFMM=   80 NAOKFM=F Big=F
 One-electron integrals computed using PRISM.
 NBasis=   199 RedAO= T  NBF=   199
 NBsUse=   199 1.00D-06 NBFU=   199
 Harris functional with IExCor=  402 diagonalized for initial guess.
 ExpMin= 7.10D-03 ExpMax= 3.53D+04 ExpMxC= 5.30D+03 IAcc=3 IRadAn=         5 AccDes= 0.00D+00
 HarFok:  IExCor= 402 AccDes= 0.00D+00 IRadAn=         5 IDoV=1
 ScaDFX=  1.000000  1.000000  1.000000  1.000000
 Initial guess orbital symmetries:
       Occupied  (A) (A) (A) (A) (A) (A) (A) (A) (A) (A) (A) (A)
                 (A) (A) (A) (A) (A) (A) (A) (A) (A) (A) (A) (A)
                 (A) (A) (A) (A) (A) (A) (A) (A) (A) (A) (A) (A)
                 (A) (A) (A) (A) (A) (A) (A) (A) (A) (A) (A) (A)
                 (A) (A) (A) (A) (A) (A) (A) (A) (A)
       Virtual   (A) (A) (A) (A) (A) (A) (A) (A) (A) (A) (A) (A)
                 (A) (A) (A) (A) (A) (A) (A) (A) (A) (A) (A) (A)
                 (A) (A) (A) (A) (A) (A) (A) (A) (A) (A) (A) (A)
                 (A) (A) (A) (A) (A) (A) (A) (A) (A) (A) (A) (A)
                 (A) (A) (A) (A) (A) (A) (A) (A) (A) (A) (A) (A)
                 (A) (A) (A) (A) (A) (A) (A) (A) (A) (A) (A) (A)
                 (A) (A) (A) (A) (A) (A) (A) (A) (A) (A) (A) (A)
                 (A) (A) (A) (A) (A) (A) (A) (A) (A) (A) (A) (A)
                 (A) (A) (A) (A) (A) (A) (A) (A) (A) (A) (A) (A)
                 (A) (A) (A) (A) (A) (A) (A) (A) (A) (A) (A) (A)
                 (A) (A) (A) (A) (A) (A) (A) (A) (A) (A) (A) (A)
                 (A) (A) (A) (A) (A) (A) (A) (A) (A) (A)
 The electronic state of the initial guess is 1-A.
 Requested convergence on RMS density matrix=1.00D-04 within 128 cycles.
 Requested convergence on MAX density matrix=1.00D-02.
 Requested convergence on             energy=1.00D-02.
 No special actions if energy rises.
 EnCoef did     2 forward-backward iterations
 EnCoef did     2 forward-backward iterations
 SCF Done:  E(RB+HF-LYP) =  -2750.14409852     A.U. after   12 cycles
             Convg  =    0.5114D-04             -V/T =  2.0029
             S**2   =   0.0000

 **********************************************************************

            Population analysis using the SCF density.

 **********************************************************************

 Orbital symmetries:
       Occupied  (A) (A) (A) (A) (A) (A) (A) (A) (A) (A) (A) (A)
                 (A) (A) (A) (A) (A) (A) (A) (A) (A) (A) (A) (A)
                 (A) (A) (A) (A) (A) (A) (A) (A) (A) (A) (A) (A)
                 (A) (A) (A) (A) (A) (A) (A) (A) (A) (A) (A) (A)
                 (A) (A) (A) (A) (A) (A) (A) (A) (A)
       Virtual   (A) (A) (A) (A) (A) (A) (A) (A) (A) (A) (A) (A)
                 (A) (A) (A) (A) (A) (A) (A) (A) (A) (A) (A) (A)
                 (A) (A) (A) (A) (A) (A) (A) (A) (A) (A) (A) (A)
                 (A) (A) (A) (A) (A) (A) (A) (A) (A) (A) (A) (A)
                 (A) (A) (A) (A) (A) (A) (A) (A) (A) (A) (A) (A)
                 (A) (A) (A) (A) (A) (A) (A) (A) (A) (A) (A) (A)
                 (A) (A) (A) (A) (A) (A) (A) (A) (A) (A) (A) (A)
                 (A) (A) (A) (A) (A) (A) (A) (A) (A) (A) (A) (A)
                 (A) (A) (A) (A) (A) (A) (A) (A) (A) (A) (A) (A)
                 (A) (A) (A) (A) (A) (A) (A) (A) (A) (A) (A) (A)
                 (A) (A) (A) (A) (A) (A) (A) (A) (A) (A) (A) (A)
                 (A) (A) (A) (A) (A) (A) (A) (A) (A) (A)
 The electronic state is 1-A.
 Alpha  occ. eigenvalues -- -145.59652-145.48628-145.43899 -77.20062 -19.26472
 Alpha  occ. eigenvalues --  -19.26346 -19.16479 -19.16476 -19.15792 -15.66413
 Alpha  occ. eigenvalues --  -15.55466 -15.50804 -12.79662 -12.79598 -12.79527
 Alpha  occ. eigenvalues --  -12.68643 -12.68640 -12.68623 -12.64060 -12.64016
 Alpha  occ. eigenvalues --  -12.63853  -6.65412  -4.81753  -4.81718  -4.81319
 Alpha  occ. eigenvalues --   -2.03278  -1.92583  -1.88209  -1.30836  -1.30754
 Alpha  occ. eigenvalues --   -1.30505  -1.20587  -1.19856  -1.19841  -1.16641
 Alpha  occ. eigenvalues --   -1.16118  -1.15837  -1.08584  -1.02430  -0.96158
 Alpha  occ. eigenvalues --   -0.94385  -0.90274  -0.57043  -0.49718  -0.48931
 Alpha  occ. eigenvalues --   -0.46809  -0.44549  -0.44260  -0.43973  -0.38610
 Alpha  occ. eigenvalues --   -0.38230  -0.37059  -0.34419  -0.33782  -0.32311
 Alpha  occ. eigenvalues --   -0.30258  -0.27549
 Alpha virt. eigenvalues --   -0.25825  -0.17523  -0.16503  -0.15806  -0.13521
 Alpha virt. eigenvalues --   -0.12018  -0.11001  -0.09021  -0.08623  -0.08131
 Alpha virt. eigenvalues --   -0.06570  -0.06280  -0.06032  -0.05658  -0.05416
 Alpha virt. eigenvalues --   -0.05066  -0.03965  -0.03731  -0.03268  -0.03003
 Alpha virt. eigenvalues --   -0.02747  -0.02555  -0.02046  -0.01601  -0.01425
 Alpha virt. eigenvalues --   -0.01004  -0.00768  -0.00122  -0.00076   0.01471
 Alpha virt. eigenvalues --    0.01548   0.01871   0.02549   0.03290   0.03842
 Alpha virt. eigenvalues --    0.04187   0.04292   0.05550   0.06534   0.07057
 Alpha virt. eigenvalues --    0.07273   0.08125   0.08656   0.08714   0.09431
 Alpha virt. eigenvalues --    0.09714   0.10047   0.10686   0.11813   0.13618
 Alpha virt. eigenvalues --    0.13830   0.14533   0.15666   0.15880   0.17507
 Alpha virt. eigenvalues --    0.18349   0.18635   0.19916   0.20678   0.23502
 Alpha virt. eigenvalues --    0.23636   0.24482   0.25576   0.27162   0.27635
 Alpha virt. eigenvalues --    0.28482   0.29412   0.30399   0.30527   0.31097
 Alpha virt. eigenvalues --    0.31436   0.36534   0.37717   0.38586   0.40198
 Alpha virt. eigenvalues --    0.43574   0.44730   0.45175   0.49157   0.49702
 Alpha virt. eigenvalues --    0.53664   0.56595   0.62343   0.65565   0.65839
 Alpha virt. eigenvalues --    0.76778   0.81829   0.89163   0.93966   1.00314
 Alpha virt. eigenvalues --    1.04088   1.07165   1.08229   1.09519   1.16460
 Alpha virt. eigenvalues --    1.17237   1.17782   1.20294   1.21033   1.25460
 Alpha virt. eigenvalues --    1.26783   1.28349   1.31073   1.31087   1.36931
 Alpha virt. eigenvalues --    1.42061   1.48350   1.48850   1.49669   1.54388
 Alpha virt. eigenvalues --    1.55481   1.61883   1.69841   1.72937   1.75041
 Alpha virt. eigenvalues --    1.77152   1.77934   1.81189   1.81940   1.83561
 Alpha virt. eigenvalues --    1.85065   1.87798   1.88561   1.88709   1.90440
 Alpha virt. eigenvalues --    1.98468   2.02686   2.04836   2.04850   2.15030
 Alpha virt. eigenvalues --    2.17049   2.17408   2.44472   2.55086   2.73486
 Alpha virt. eigenvalues --    2.99814   3.56196   3.88134   4.05824   4.07367
 Alpha virt. eigenvalues --    4.09445   4.25637
          Condensed to atoms (all electrons):
              1          2          3          4          5          6
     1  Ca  18.248911   0.135728   0.133956  -0.004059  -0.042005   0.002234
     2  O    0.135728   8.474932  -0.042146   0.073924   0.005669   0.000058
     3  O    0.133956  -0.042146   8.495643   0.061791   0.002661  -0.000151
     4  Ca  -0.004059   0.073924   0.061791  18.511363  -0.309668   0.047225
     5  P   -0.042005   0.005669   0.002661  -0.309668  14.682265   0.034869
     6  O    0.002234   0.000058  -0.000151   0.047225   0.034869   8.699785
     7  O    0.012872  -0.000987   0.000744   0.185170  -0.274128   0.015424
     8  Ca  -0.057625  -0.006160   0.000702  -0.184586   0.341277   0.066538
     9  O    0.012789  -0.001001   0.000768   0.185187  -0.274437   0.015382
              7          8          9
     1  Ca   0.012872  -0.057625   0.012789
     2  O   -0.000987  -0.006160  -0.001001
     3  O    0.000744   0.000702   0.000768
     4  Ca   0.185170  -0.184586   0.185187
     5  P   -0.274128   0.341277  -0.274437
     6  O    0.015424   0.066538   0.015382
     7  O    8.934704   0.014605   0.026185
     8  Ca   0.014605  18.630975   0.014607
     9  O    0.026185   0.014607   8.934599
 Mulliken atomic charges:
              1
     1  Ca   1.557200
     2  O   -0.640018
     3  O   -0.653967
     4  Ca   1.433653
     5  P    0.833497
     6  O   -0.881363
     7  O   -0.914589
     8  Ca   1.179667
     9  O   -0.914079
 Sum of Mulliken charges=   1.00000
 Atomic charges with hydrogens summed into heavy atoms:
              1
     1  Ca   1.557200
     2  O   -0.640018
     3  O   -0.653967
     4  Ca   1.433653
     5  P    0.833497
     6  O   -0.881363
     7  O   -0.914589
     8  Ca   1.179667
     9  O   -0.914079
 Sum of Mulliken charges=   1.00000
 Electronic spatial extent (au):  <R**2>=  3814.4197
 Charge=     1.0000 electrons
 Dipole moment (field-independent basis, Debye):
    X=   -21.2085    Y=    10.1190    Z=    -0.0013  Tot=    23.4988
 Quadrupole moment (field-independent basis, Debye-Ang):
   XX=    62.4299   YY=   -69.5465   ZZ=   -88.0904
   XY=    28.2212   XZ=    -0.0207   YZ=    -0.0389
 Traceless Quadrupole moment (field-independent basis, Debye-Ang):
   XX=    94.1656   YY=   -37.8108   ZZ=   -56.3548
   XY=    28.2212   XZ=    -0.0207   YZ=    -0.0389
 Octapole moment (field-independent basis, Debye-Ang**2):
  XXX=  -737.5648  YYY=    43.1909  ZZZ=    -0.0261  XYY=    22.6791
  XXY=   145.2471  XXZ=    -0.1798  XZZ=   -39.6268  YZZ=     7.8650
  YYZ=    -0.0190  XYZ=     0.0238
 Hexadecapole moment (field-independent basis, Debye-Ang**3):
 XXXX=   138.0722 YYYY=  -383.0879 ZZZZ=  -237.3499 XXXY=   292.3583
 XXXZ=     0.2074 YYYX=   111.6400 YYYZ=    -0.0365 ZZZX=    -0.0752
 ZZZY=    -0.0663 XXYY=  -558.2715 XXZZ=  -626.3460 YYZZ=  -100.5763
 XXYZ=    -0.3964 YYXZ=    -0.0520 ZZXY=    17.5971
 N-N= 9.325252454647D+02 E-N=-8.367787003476D+03  KE= 2.742187772247D+03
 Merz-Kollman atomic radii used.
 Read replacement radii for each type of atom:
 Rad(20) =   1.188000000000D+00
 Atom Element Radius
    1    20    1.19
    2     8    1.40
    3     8    1.40
    4    20    1.19
    5    15    1.80
    6     8    1.40
    7     8    1.40
    8    20    1.19
    9     8    1.40

 **********************************************************************

            Electrostatic Properties Using The SCF Density

 **********************************************************************

       Atomic Center    1 is at  -4.682701  0.156292 -0.000610
       Atomic Center    2 is at  -2.724451 -0.761280 -0.004780
       Atomic Center    3 is at  -2.609860  0.810890  0.004100
       Atomic Center    4 is at  -0.491441 -0.157531  0.001670
       Atomic Center    5 is at   2.136959 -1.171532  0.000440
       Atomic Center    6 is at   3.679809 -0.835703 -0.000610
       Atomic Center    7 is at   1.520209 -0.147062 -1.208700
       Atomic Center    8 is at   3.016520  1.312247 -0.001400
       Atomic Center    9 is at   1.521549 -0.147742  1.210020
     837 points will be used for fitting atomic charges
 Fitting point charges to eletrostatic potential
 Charges from ESP fit, RMS=   0.00700 RRMS=   0.04661:
 Charge=   1.00000 Dipole=   -21.0174    10.4323    -0.0014 Tot=    23.4641
              1
     1  Ca   1.715200
     2  O   -0.792703
     3  O   -0.861765
     4  Ca   1.645808
     5  P    0.394202
     6  O   -0.605154
     7  O   -0.981593
     8  Ca   1.467134
     9  O   -0.981129
 -----------------------------------------------------------------

              Electrostatic Properties (Atomic Units)

 -----------------------------------------------------------------
    Center     Electric         -------- Electric Field --------
               Potential          X             Y             Z
 -----------------------------------------------------------------
    1 Atom    -79.945460
    2 Atom    -22.206862
    3 Atom    -22.205494
    4 Atom    -80.100923
    5 Atom    -54.011384
    6 Atom    -22.306294
    7 Atom    -22.299296
    8 Atom    -80.055004
    9 Atom    -22.299302
 -----------------------------------------------------------------
 1\1\GINC-N035\SP\RB3LYP\6-31+G(d,p)\Ca3O5P1(1+)\TIMN\12-Jun-2015\0\\# 
 b3lyp/6-31+G(d,p) int=ultrafine pop=(ReadRadii,MK)\\mol_17.23.25.pdb_p
 lusQ.z58226.zip.xyz\\1,1\Ca,0,-4.6827,0.15629,-0.00061\O,0,-2.72445,-0
 .76128,-0.00478\O,0,-2.60986,0.81089,0.0041\Ca,0,-0.49144,-0.15753,0.0
 0167\P,0,2.13696,-1.17153,0.00044\O,0,3.67981,-0.8357,-0.00061\O,0,1.5
 2021,-0.14706,-1.2087\Ca,0,3.01652,1.31225,-0.0014\O,0,1.52155,-0.1477
 4,1.21002\\Version=EM64T-G03RevE.01\State=1-A\HF=-2750.1440985\RMSD=5.
 114e-05\Thermal=0.\Dipole=-8.344079,3.9811146,-0.0005247\PG=C01 [X(Ca3
 O5P1)]\\@


 GOD GAVE US TWO ENDS... ONE TO SIT ON...    
 AND THE OTHER TO THINK WITH...              
 YOUR SUCCESS DEPENDS UPON WHICH END YOU     
 USE THE MOST...                             
                                             
 IT'S A CASE OF HEADS YOU WIN TAILS YOU LOSE.
          SOURCE UNKNOWN(IT'S JUST AS WELL.) 
 Job cpu time:  0 days  0 hours  2 minutes 33.2 seconds.
 File lengths (MBytes):  RWF=     36 Int=      0 D2E=      0 Chk=     11 Scr=      1
 Normal termination of Gaussian 03 at Fri Jun 12 17:53:02 2015.
