 Entering Gaussian System, Link 0=/home/timn/tmp/g03.e01/g03
 Input=mol_17.22.48.pdbccc_plusQ.z58198.zip.xyz.gjf
 Output=mol_17.22.48.pdbccc_plusQ.z58198.zip.xyz.out
 Initial command:
 /home/timn/tmp/g03.e01/l1.exe /home/timn/tmp/g03.e01/Gau-17879.inp -scrdir=/home/timn/tmp/g03.e01/
 Default is to use a total of   2 processors:
                                2 via shared-memory
                                1 via Linda
 Entering Link 1 = /home/timn/tmp/g03.e01/l1.exe PID=     17880.
  
 Copyright (c) 1988,1990,1992,1993,1995,1998,2003,2004,2007, Gaussian, Inc.
                  All Rights Reserved.
  
 This is the Gaussian(R) 03 program.  It is based on the
 the Gaussian(R) 98 system (copyright 1998, Gaussian, Inc.),
 the Gaussian(R) 94 system (copyright 1995, Gaussian, Inc.),
 the Gaussian 92(TM) system (copyright 1992, Gaussian, Inc.),
 the Gaussian 90(TM) system (copyright 1990, Gaussian, Inc.),
 the Gaussian 88(TM) system (copyright 1988, Gaussian, Inc.),
 the Gaussian 86(TM) system (copyright 1986, Carnegie Mellon
 University), and the Gaussian 82(TM) system (copyright 1983,
 Carnegie Mellon University). Gaussian is a federally registered
 trademark of Gaussian, Inc.
  
 This software contains proprietary and confidential information,
 including trade secrets, belonging to Gaussian, Inc.
  
 This software is provided under written license and may be
 used, copied, transmitted, or stored only in accord with that
 written license.
  
 The following legend is applicable only to US Government
 contracts under FAR:
  
                    RESTRICTED RIGHTS LEGEND
  
 Use, reproduction and disclosure by the US Government is
 subject to restrictions as set forth in subparagraphs (a)
 and (c) of the Commercial Computer Software - Restricted
 Rights clause in FAR 52.227-19.
  
 Gaussian, Inc.
 340 Quinnipiac St., Bldg. 40, Wallingford CT 06492
  
  
 ---------------------------------------------------------------
 Warning -- This program may not be used in any manner that
 competes with the business of Gaussian, Inc. or will provide
 assistance to any competitor of Gaussian, Inc.  The licensee
 of this program is prohibited from giving any competitor of
 Gaussian, Inc. access to this program.  By using this program,
 the user acknowledges that Gaussian, Inc. is engaged in the
 business of creating and licensing software in the field of
 computational chemistry and represents and warrants to the
 licensee that it is not a competitor of Gaussian, Inc. and that
 it will not use this program in any manner prohibited above.
 ---------------------------------------------------------------
  

 Cite this work as:
 Gaussian 03, Revision E.01,
 M. J. Frisch, G. W. Trucks, H. B. Schlegel, G. E. Scuseria, 
 M. A. Robb, J. R. Cheeseman, J. A. Montgomery, Jr., T. Vreven, 
 K. N. Kudin, J. C. Burant, J. M. Millam, S. S. Iyengar, J. Tomasi, 
 V. Barone, B. Mennucci, M. Cossi, G. Scalmani, N. Rega, 
 G. A. Petersson, H. Nakatsuji, M. Hada, M. Ehara, K. Toyota, 
 R. Fukuda, J. Hasegawa, M. Ishida, T. Nakajima, Y. Honda, O. Kitao, 
 H. Nakai, M. Klene, X. Li, J. E. Knox, H. P. Hratchian, J. B. Cross, 
 V. Bakken, C. Adamo, J. Jaramillo, R. Gomperts, R. E. Stratmann, 
 O. Yazyev, A. J. Austin, R. Cammi, C. Pomelli, J. W. Ochterski, 
 P. Y. Ayala, K. Morokuma, G. A. Voth, P. Salvador, J. J. Dannenberg, 
 V. G. Zakrzewski, S. Dapprich, A. D. Daniels, M. C. Strain, 
 O. Farkas, D. K. Malick, A. D. Rabuck, K. Raghavachari, 
 J. B. Foresman, J. V. Ortiz, Q. Cui, A. G. Baboul, S. Clifford, 
 J. Cioslowski, B. B. Stefanov, G. Liu, A. Liashenko, P. Piskorz, 
 I. Komaromi, R. L. Martin, D. J. Fox, T. Keith, M. A. Al-Laham, 
 C. Y. Peng, A. Nanayakkara, M. Challacombe, P. M. W. Gill, 
 B. Johnson, W. Chen, M. W. Wong, C. Gonzalez, and J. A. Pople, 
 Gaussian, Inc., Wallingford CT, 2004.
 
 ******************************************
 Gaussian 03:  EM64T-G03RevE.01 11-Sep-2007
                12-Jun-2015 
 ******************************************
 %nproc=2
 Will use up to    2 processors via shared memory.
 Default route:  MP2=Direct MaxDisk=2000MB
 ----------------------------------------------------
 # b3lyp/6-31+G(d,p) int=ultrafine pop=(ReadRadii,MK)
 ----------------------------------------------------

 Warning!  SCF SP cutoffs with diffuse functions may be unreliable.
 Consider SCF=Tight

 1/38=1/1;
 2/17=6,18=5,40=1/2;
 3/5=1,6=6,7=111,11=2,16=1,25=1,30=1,74=-5,75=5/1,2,3;
 4//1;
 5/5=2,32=1,38=5/2;
 6/7=2,8=2,9=2,10=2,15=8,20=101,28=1/1,2;
 99/5=1,9=1/99;
 ----------------------------------------
 mol_17.22.48.pdbccc_plusQ.z58198.zip.xyz
 ----------------------------------------
 Symbolic Z-matrix:
 Charge =  1 Multiplicity = 1
 O                     0.5697   -1.34115  -1.20145 
 O                     0.32686  -2.20128  -0.00068 
 O                     0.57133  -1.34425   1.20182 
 Ca                    2.51595  -1.1471   -0.00101 
 P                     1.87303   2.3142   -0.00104 
 O                     2.83902   1.10292  -0.00228 
 O                     0.4032    1.84989   0.00426 
 Ca                   -0.9499   -0.02995   0.00271 
 Ca                   -4.85487   0.21495  -0.00159 
 
                          Input orientation:                          
 ---------------------------------------------------------------------
 Center     Atomic     Atomic              Coordinates (Angstroms)
 Number     Number      Type              X           Y           Z
 ---------------------------------------------------------------------
    1          8             0        0.569700   -1.341150   -1.201450
    2          8             0        0.326860   -2.201280   -0.000680
    3          8             0        0.571330   -1.344250    1.201820
    4         20             0        2.515950   -1.147100   -0.001010
    5         15             0        1.873030    2.314200   -0.001040
    6          8             0        2.839020    1.102920   -0.002280
    7          8             0        0.403200    1.849890    0.004260
    8         20             0       -0.949900   -0.029950    0.002710
    9         20             0       -4.854870    0.214950   -0.001590
 ---------------------------------------------------------------------
                    Distance matrix (angstroms):
                    1          2          3          4          5
     1  O    0.000000
     2  O    1.496878   0.000000
     3  O    2.403273   1.496754   0.000000
     4  Ca   2.294908   2.429694   2.295041   0.000000
     5  P    4.062171   4.772861   4.065163   3.520503   0.000000
     6  O    3.544192   4.150745   3.546959   2.273096   1.549302
     7  O    3.415288   4.051892   3.415399   3.666836   1.541432
     8  Ca   2.340605   2.518889   2.340810   3.641449   3.669331
     9  Ca   5.769495   5.717385   5.772603   7.495610   7.047800
                    6          7          8          9
     6  O    0.000000
     7  O    2.547788   0.000000
     8  Ca   3.954660   2.316178   0.000000
     9  Ca   7.744962   5.506393   3.912644   0.000000
 Stoichiometry    Ca3O5P(1+)
 Framework group  C1[X(Ca3O5P)]
 Deg. of freedom    21
 Full point group                 C1
 Largest Abelian subgroup         C1      NOp   1
 Largest concise Abelian subgroup C1      NOp   1
                         Standard orientation:                         
 ---------------------------------------------------------------------
 Center     Atomic     Atomic              Coordinates (Angstroms)
 Number     Number      Type              X           Y           Z
 ---------------------------------------------------------------------
    1          8             0        0.569702   -1.341150   -1.201450
    2          8             0        0.326862   -2.201280   -0.000680
    3          8             0        0.571332   -1.344250    1.201820
    4         20             0        2.515952   -1.147098   -0.001010
    5         15             0        1.873029    2.314201   -0.001040
    6          8             0        2.839020    1.102922   -0.002280
    7          8             0        0.403199    1.849890    0.004260
    8         20             0       -0.949899   -0.029951    0.002710
    9         20             0       -4.854870    0.214946   -0.001590
 ---------------------------------------------------------------------
 Rotational constants (GHZ):      1.0620122      0.3304364      0.2641932
 Standard basis: 6-31+G(d,p) (6D, 7F)
 There are   199 symmetry adapted basis functions of A   symmetry.
 Integral buffers will be    131072 words long.
 Raffenetti 2 integral format.
 Two-electron integral symmetry is turned on.
   199 basis functions,   456 primitive gaussians,   199 cartesian basis functions
    57 alpha electrons       57 beta electrons
       nuclear repulsion energy       909.5374935721 Hartrees.
 NAtoms=    9 NActive=    9 NUniq=    9 SFac= 7.50D-01 NAtFMM=   80 NAOKFM=F Big=F
 One-electron integrals computed using PRISM.
 NBasis=   199 RedAO= T  NBF=   199
 NBsUse=   199 1.00D-06 NBFU=   199
 Harris functional with IExCor=  402 diagonalized for initial guess.
 ExpMin= 7.10D-03 ExpMax= 3.53D+04 ExpMxC= 5.30D+03 IAcc=3 IRadAn=         5 AccDes= 0.00D+00
 HarFok:  IExCor= 402 AccDes= 0.00D+00 IRadAn=         5 IDoV=1
 ScaDFX=  1.000000  1.000000  1.000000  1.000000
 Initial guess orbital symmetries:
       Occupied  (A) (A) (A) (A) (A) (A) (A) (A) (A) (A) (A) (A)
                 (A) (A) (A) (A) (A) (A) (A) (A) (A) (A) (A) (A)
                 (A) (A) (A) (A) (A) (A) (A) (A) (A) (A) (A) (A)
                 (A) (A) (A) (A) (A) (A) (A) (A) (A) (A) (A) (A)
                 (A) (A) (A) (A) (A) (A) (A) (A) (A)
       Virtual   (A) (A) (A) (A) (A) (A) (A) (A) (A) (A) (A) (A)
                 (A) (A) (A) (A) (A) (A) (A) (A) (A) (A) (A) (A)
                 (A) (A) (A) (A) (A) (A) (A) (A) (A) (A) (A) (A)
                 (A) (A) (A) (A) (A) (A) (A) (A) (A) (A) (A) (A)
                 (A) (A) (A) (A) (A) (A) (A) (A) (A) (A) (A) (A)
                 (A) (A) (A) (A) (A) (A) (A) (A) (A) (A) (A) (A)
                 (A) (A) (A) (A) (A) (A) (A) (A) (A) (A) (A) (A)
                 (A) (A) (A) (A) (A) (A) (A) (A) (A) (A) (A) (A)
                 (A) (A) (A) (A) (A) (A) (A) (A) (A) (A) (A) (A)
                 (A) (A) (A) (A) (A) (A) (A) (A) (A) (A) (A) (A)
                 (A) (A) (A) (A) (A) (A) (A) (A) (A) (A) (A) (A)
                 (A) (A) (A) (A) (A) (A) (A) (A) (A) (A)
 The electronic state of the initial guess is 1-A.
 Requested convergence on RMS density matrix=1.00D-04 within 128 cycles.
 Requested convergence on MAX density matrix=1.00D-02.
 Requested convergence on             energy=1.00D-02.
 No special actions if energy rises.
 EnCoef did     8 forward-backward iterations
 EnCoef did     9 forward-backward iterations
 EnCoef did    11 forward-backward iterations
 EnCoef did     6 forward-backward iterations
 SCF Done:  E(RB+HF-LYP) =  -2750.06823408     A.U. after   10 cycles
             Convg  =    0.7791D-04             -V/T =  2.0029
             S**2   =   0.0000

 **********************************************************************

            Population analysis using the SCF density.

 **********************************************************************

 Orbital symmetries:
       Occupied  (A) (A) (A) (A) (A) (A) (A) (A) (A) (A) (A) (A)
                 (A) (A) (A) (A) (A) (A) (A) (A) (A) (A) (A) (A)
                 (A) (A) (A) (A) (A) (A) (A) (A) (A) (A) (A) (A)
                 (A) (A) (A) (A) (A) (A) (A) (A) (A) (A) (A) (A)
                 (A) (A) (A) (A) (A) (A) (A) (A) (A)
       Virtual   (A) (A) (A) (A) (A) (A) (A) (A) (A) (A) (A) (A)
                 (A) (A) (A) (A) (A) (A) (A) (A) (A) (A) (A) (A)
                 (A) (A) (A) (A) (A) (A) (A) (A) (A) (A) (A) (A)
                 (A) (A) (A) (A) (A) (A) (A) (A) (A) (A) (A) (A)
                 (A) (A) (A) (A) (A) (A) (A) (A) (A) (A) (A) (A)
                 (A) (A) (A) (A) (A) (A) (A) (A) (A) (A) (A) (A)
                 (A) (A) (A) (A) (A) (A) (A) (A) (A) (A) (A) (A)
                 (A) (A) (A) (A) (A) (A) (A) (A) (A) (A) (A) (A)
                 (A) (A) (A) (A) (A) (A) (A) (A) (A) (A) (A) (A)
                 (A) (A) (A) (A) (A) (A) (A) (A) (A) (A) (A) (A)
                 (A) (A) (A) (A) (A) (A) (A) (A) (A) (A) (A) (A)
                 (A) (A) (A) (A) (A) (A) (A) (A) (A) (A)
 The electronic state is 1-A.
 Alpha  occ. eigenvalues -- -145.53958-145.51614-145.49133 -77.27723 -19.35538
 Alpha  occ. eigenvalues --  -19.26511 -19.26498 -19.25733 -19.25542 -15.61012
 Alpha  occ. eigenvalues --  -15.58412 -15.55975 -12.74149 -12.74148 -12.74136
 Alpha  occ. eigenvalues --  -12.71622 -12.71610 -12.71542 -12.69189 -12.69145
 Alpha  occ. eigenvalues --  -12.69122  -6.73264  -4.89703  -4.89482  -4.89043
 Alpha  occ. eigenvalues --   -1.98073  -1.95538  -1.93150  -1.25549  -1.25331
 Alpha  occ. eigenvalues --   -1.25328  -1.25178  -1.23115  -1.22995  -1.21446
 Alpha  occ. eigenvalues --   -1.20737  -1.20708  -1.17602  -1.11681  -1.06310
 Alpha  occ. eigenvalues --   -1.02360  -0.87014  -0.65349  -0.56300  -0.55171
 Alpha  occ. eigenvalues --   -0.54157  -0.54038  -0.50626  -0.50342  -0.43462
 Alpha  occ. eigenvalues --   -0.42612  -0.41692  -0.40603  -0.38298  -0.38219
 Alpha  occ. eigenvalues --   -0.34752  -0.29833
 Alpha virt. eigenvalues --   -0.19055  -0.17956  -0.17689  -0.15636  -0.15436
 Alpha virt. eigenvalues --   -0.12830  -0.10938  -0.09830  -0.09070  -0.08890
 Alpha virt. eigenvalues --   -0.08517  -0.08088  -0.06566  -0.06262  -0.05874
 Alpha virt. eigenvalues --   -0.05701  -0.05386  -0.05261  -0.04511  -0.04016
 Alpha virt. eigenvalues --   -0.03968  -0.03602  -0.03493  -0.03143  -0.02572
 Alpha virt. eigenvalues --   -0.02383  -0.02314  -0.02035  -0.01734  -0.00598
 Alpha virt. eigenvalues --    0.00049   0.02087   0.02717   0.03299   0.03770
 Alpha virt. eigenvalues --    0.04586   0.04811   0.04920   0.04956   0.05145
 Alpha virt. eigenvalues --    0.05327   0.05755   0.05939   0.06313   0.06772
 Alpha virt. eigenvalues --    0.06971   0.07412   0.07683   0.08337   0.08935
 Alpha virt. eigenvalues --    0.09219   0.09912   0.10236   0.10950   0.14276
 Alpha virt. eigenvalues --    0.15042   0.16090   0.17013   0.17475   0.17648
 Alpha virt. eigenvalues --    0.17676   0.18707   0.19819   0.20404   0.22751
 Alpha virt. eigenvalues --    0.23363   0.25364   0.25613   0.26328   0.29122
 Alpha virt. eigenvalues --    0.30226   0.31278   0.33499   0.33888   0.34608
 Alpha virt. eigenvalues --    0.36343   0.36660   0.39201   0.43096   0.47585
 Alpha virt. eigenvalues --    0.48920   0.50518   0.56211   0.58856   0.59965
 Alpha virt. eigenvalues --    0.60397   0.71906   0.81904   0.91059   0.96883
 Alpha virt. eigenvalues --    1.02196   1.04757   1.07348   1.08146   1.09437
 Alpha virt. eigenvalues --    1.12097   1.12344   1.12485   1.14778   1.18316
 Alpha virt. eigenvalues --    1.20066   1.20851   1.22157   1.24330   1.26167
 Alpha virt. eigenvalues --    1.35729   1.38819   1.40186   1.42195   1.50316
 Alpha virt. eigenvalues --    1.51889   1.58296   1.60648   1.68617   1.70106
 Alpha virt. eigenvalues --    1.71426   1.72867   1.74032   1.74861   1.78547
 Alpha virt. eigenvalues --    1.83856   1.84132   1.84462   1.88078   1.88272
 Alpha virt. eigenvalues --    1.88649   1.90684   1.97378   2.12269   2.22028
 Alpha virt. eigenvalues --    2.22925   2.44869   2.56463   2.70354   3.04006
 Alpha virt. eigenvalues --    3.07013   3.41108   3.86992   3.94871   4.01658
 Alpha virt. eigenvalues --    4.06103   4.30303
          Condensed to atoms (all electrons):
              1          2          3          4          5          6
     1  O    8.393505   0.055715   0.007809   0.096699  -0.003897   0.007530
     2  O    0.055715   7.909443   0.055774   0.037181  -0.000518  -0.004235
     3  O    0.007809   0.055774   8.393114   0.096732  -0.003964   0.007474
     4  Ca   0.096699   0.037181   0.096732  18.538385   0.119384   0.045702
     5  P   -0.003897  -0.000518  -0.003964   0.119384  14.604658  -0.082944
     6  O    0.007530  -0.004235   0.007474   0.045702  -0.082944   8.792946
     7  O    0.002947  -0.001959   0.002952  -0.019254  -0.105043  -0.085850
     8  Ca   0.064284   0.040454   0.064317  -0.236152  -0.115268   0.017078
     9  Ca  -0.004758   0.001030  -0.004747  -0.193225  -0.052576   0.010070
              7          8          9
     1  O    0.002947   0.064284  -0.004758
     2  O   -0.001959   0.040454   0.001030
     3  O    0.002952   0.064317  -0.004747
     4  Ca  -0.019254  -0.236152  -0.193225
     5  P   -0.105043  -0.115268  -0.052576
     6  O   -0.085850   0.017078   0.010070
     7  O    8.832656   0.048846   0.002667
     8  Ca   0.048846  18.692981   0.311908
     9  Ca   0.002667   0.311908  19.477987
 Mulliken atomic charges:
              1
     1  O   -0.619834
     2  O   -0.092884
     3  O   -0.619459
     4  Ca   1.514548
     5  P    0.640168
     6  O   -0.707772
     7  O   -0.677962
     8  Ca   1.111553
     9  Ca   0.451643
 Sum of Mulliken charges=   1.00000
 Atomic charges with hydrogens summed into heavy atoms:
              1
     1  O   -0.619834
     2  O   -0.092884
     3  O   -0.619459
     4  Ca   1.514548
     5  P    0.640168
     6  O   -0.707772
     7  O   -0.677962
     8  Ca   1.111553
     9  Ca   0.451643
 Sum of Mulliken charges=   1.00000
 Electronic spatial extent (au):  <R**2>=  3603.0073
 Charge=     1.0000 electrons
 Dipole moment (field-independent basis, Debye):
    X=    -5.3236    Y=    -2.1247    Z=    -0.0028  Tot=     5.7320
 Quadrupole moment (field-independent basis, Debye-Ang):
   XX=    17.3494   YY=   -87.1114   ZZ=   -88.8524
   XY=   -21.7026   XZ=     0.0159   YZ=     0.0040
 Traceless Quadrupole moment (field-independent basis, Debye-Ang):
   XX=    70.2209   YY=   -34.2400   ZZ=   -35.9809
   XY=   -21.7026   XZ=     0.0159   YZ=     0.0040
 Octapole moment (field-independent basis, Debye-Ang**2):
  XXX=  -238.9963  YYY=   -20.2174  ZZZ=     0.0176  XYY=    49.3488
  XXY=   -60.1604  XXZ=    -0.1604  XZZ=    21.2957  YZZ=     6.5611
  YYZ=    -0.0566  XYZ=     0.0792
 Hexadecapole moment (field-independent basis, Debye-Ang**3):
 XXXX= -1312.3112 YYYY= -1084.9352 ZZZZ=  -243.9676 XXXY=  -352.5739
 XXXZ=     0.9385 YYYX=   -64.0100 YYYZ=     0.1110 ZZZX=    -0.0527
 ZZZY=     0.0534 XXYY=  -683.9223 XXZZ=  -624.4278 YYZZ=  -226.1705
 XXYZ=     0.1599 YYXZ=    -0.0192 ZZXY=    -6.1017
 N-N= 9.095374935721D+02 E-N=-8.317158775929D+03  KE= 2.742140470060D+03
 Merz-Kollman atomic radii used.
 Read replacement radii for each type of atom:
 Rad(20) =   1.188000000000D+00
 Atom Element Radius
    1     8    1.40
    2     8    1.40
    3     8    1.40
    4    20    1.19
    5    15    1.80
    6     8    1.40
    7     8    1.40
    8    20    1.19
    9    20    1.19

 **********************************************************************

            Electrostatic Properties Using The SCF Density

 **********************************************************************

       Atomic Center    1 is at   0.569702 -1.341150 -1.201450
       Atomic Center    2 is at   0.326862 -2.201280 -0.000680
       Atomic Center    3 is at   0.571332 -1.344250  1.201820
       Atomic Center    4 is at   2.515952 -1.147098 -0.001010
       Atomic Center    5 is at   1.873029  2.314201 -0.001040
       Atomic Center    6 is at   2.839020  1.102922 -0.002280
       Atomic Center    7 is at   0.403199  1.849890  0.004260
       Atomic Center    8 is at  -0.949899 -0.029951  0.002710
       Atomic Center    9 is at  -4.854870  0.214946 -0.001590
     910 points will be used for fitting atomic charges
 Fitting point charges to eletrostatic potential
 Charges from ESP fit, RMS=   0.01852 RRMS=   0.12787:
 Charge=   1.00000 Dipole=    -7.2917    -2.1245    -0.0023 Tot=     7.5949
              1
     1  O   -0.507254
     2  O   -0.297534
     3  O   -0.506566
     4  Ca   1.598035
     5  P    0.382498
     6  O   -0.614350
     7  O   -0.503348
     8  Ca   0.870693
     9  Ca   0.577826
 -----------------------------------------------------------------

              Electrostatic Properties (Atomic Units)

 -----------------------------------------------------------------
    Center     Electric         -------- Electric Field --------
               Potential          X             Y             Z
 -----------------------------------------------------------------
    1 Atom    -22.201124
    2 Atom    -22.106611
    3 Atom    -22.200739
    4 Atom    -80.022054
    5 Atom    -53.936666
    6 Atom    -22.205361
    7 Atom    -22.207602
    8 Atom    -80.050604
    9 Atom    -80.010453
 -----------------------------------------------------------------
 1\1\GINC-N025\SP\RB3LYP\6-31+G(d,p)\Ca3O5P1(1+)\TIMN\12-Jun-2015\0\\# 
 b3lyp/6-31+G(d,p) int=ultrafine pop=(ReadRadii,MK)\\mol_17.22.48.pdbcc
 c_plusQ.z58198.zip.xyz\\1,1\O,0,0.5697,-1.34115,-1.20145\O,0,0.32686,-
 2.20128,-0.00068\O,0,0.57133,-1.34425,1.20182\Ca,0,2.51595,-1.1471,-0.
 00101\P,0,1.87303,2.3142,-0.00104\O,0,2.83902,1.10292,-0.00228\O,0,0.4
 032,1.84989,0.00426\Ca,0,-0.9499,-0.02995,0.00271\Ca,0,-4.85487,0.2149
 5,-0.00159\\Version=EM64T-G03RevE.01\State=1-A\HF=-2750.0682341\RMSD=7
 .791e-05\Thermal=0.\Dipole=-2.0944773,-0.8359363,-0.0010853\PG=C01 [X(
 Ca3O5P1)]\\@


 WE THE UNWILLING
 LED BY THE UNQUALIFIED
 HAVE BEEN DOING THE UNBELIEVABLE SO LONG WITH SO LITTLE
 THAT WE NOW ATTEMPT THE IMPOSSIBLE WITH NOTHING.

                                    -- ANONYMOUS
 Job cpu time:  0 days  0 hours  2 minutes 20.2 seconds.
 File lengths (MBytes):  RWF=     36 Int=      0 D2E=      0 Chk=     11 Scr=      1
 Normal termination of Gaussian 03 at Fri Jun 12 17:51:12 2015.
