 Entering Gaussian System, Link 0=/home/timn/tmp/g03.e01/g03
 Input=mol_17.26.19.pdbc_plusQ.z58378.zip.xyz.gjf
 Output=mol_17.26.19.pdbc_plusQ.z58378.zip.xyz.out
 Initial command:
 /home/timn/tmp/g03.e01/l1.exe /home/timn/tmp/g03.e01/Gau-18441.inp -scrdir=/home/timn/tmp/g03.e01/
 Default is to use a total of   2 processors:
                                2 via shared-memory
                                1 via Linda
 Entering Link 1 = /home/timn/tmp/g03.e01/l1.exe PID=     18442.
  
 Copyright (c) 1988,1990,1992,1993,1995,1998,2003,2004,2007, Gaussian, Inc.
                  All Rights Reserved.
  
 This is the Gaussian(R) 03 program.  It is based on the
 the Gaussian(R) 98 system (copyright 1998, Gaussian, Inc.),
 the Gaussian(R) 94 system (copyright 1995, Gaussian, Inc.),
 the Gaussian 92(TM) system (copyright 1992, Gaussian, Inc.),
 the Gaussian 90(TM) system (copyright 1990, Gaussian, Inc.),
 the Gaussian 88(TM) system (copyright 1988, Gaussian, Inc.),
 the Gaussian 86(TM) system (copyright 1986, Carnegie Mellon
 University), and the Gaussian 82(TM) system (copyright 1983,
 Carnegie Mellon University). Gaussian is a federally registered
 trademark of Gaussian, Inc.
  
 This software contains proprietary and confidential information,
 including trade secrets, belonging to Gaussian, Inc.
  
 This software is provided under written license and may be
 used, copied, transmitted, or stored only in accord with that
 written license.
  
 The following legend is applicable only to US Government
 contracts under FAR:
  
                    RESTRICTED RIGHTS LEGEND
  
 Use, reproduction and disclosure by the US Government is
 subject to restrictions as set forth in subparagraphs (a)
 and (c) of the Commercial Computer Software - Restricted
 Rights clause in FAR 52.227-19.
  
 Gaussian, Inc.
 340 Quinnipiac St., Bldg. 40, Wallingford CT 06492
  
  
 ---------------------------------------------------------------
 Warning -- This program may not be used in any manner that
 competes with the business of Gaussian, Inc. or will provide
 assistance to any competitor of Gaussian, Inc.  The licensee
 of this program is prohibited from giving any competitor of
 Gaussian, Inc. access to this program.  By using this program,
 the user acknowledges that Gaussian, Inc. is engaged in the
 business of creating and licensing software in the field of
 computational chemistry and represents and warrants to the
 licensee that it is not a competitor of Gaussian, Inc. and that
 it will not use this program in any manner prohibited above.
 ---------------------------------------------------------------
  

 Cite this work as:
 Gaussian 03, Revision E.01,
 M. J. Frisch, G. W. Trucks, H. B. Schlegel, G. E. Scuseria, 
 M. A. Robb, J. R. Cheeseman, J. A. Montgomery, Jr., T. Vreven, 
 K. N. Kudin, J. C. Burant, J. M. Millam, S. S. Iyengar, J. Tomasi, 
 V. Barone, B. Mennucci, M. Cossi, G. Scalmani, N. Rega, 
 G. A. Petersson, H. Nakatsuji, M. Hada, M. Ehara, K. Toyota, 
 R. Fukuda, J. Hasegawa, M. Ishida, T. Nakajima, Y. Honda, O. Kitao, 
 H. Nakai, M. Klene, X. Li, J. E. Knox, H. P. Hratchian, J. B. Cross, 
 V. Bakken, C. Adamo, J. Jaramillo, R. Gomperts, R. E. Stratmann, 
 O. Yazyev, A. J. Austin, R. Cammi, C. Pomelli, J. W. Ochterski, 
 P. Y. Ayala, K. Morokuma, G. A. Voth, P. Salvador, J. J. Dannenberg, 
 V. G. Zakrzewski, S. Dapprich, A. D. Daniels, M. C. Strain, 
 O. Farkas, D. K. Malick, A. D. Rabuck, K. Raghavachari, 
 J. B. Foresman, J. V. Ortiz, Q. Cui, A. G. Baboul, S. Clifford, 
 J. Cioslowski, B. B. Stefanov, G. Liu, A. Liashenko, P. Piskorz, 
 I. Komaromi, R. L. Martin, D. J. Fox, T. Keith, M. A. Al-Laham, 
 C. Y. Peng, A. Nanayakkara, M. Challacombe, P. M. W. Gill, 
 B. Johnson, W. Chen, M. W. Wong, C. Gonzalez, and J. A. Pople, 
 Gaussian, Inc., Wallingford CT, 2004.
 
 ******************************************
 Gaussian 03:  EM64T-G03RevE.01 11-Sep-2007
                12-Jun-2015 
 ******************************************
 %nproc=2
 Will use up to    2 processors via shared memory.
 Default route:  MP2=Direct MaxDisk=2000MB
 ----------------------------------------------------
 # b3lyp/6-31+G(d,p) int=ultrafine pop=(ReadRadii,MK)
 ----------------------------------------------------

 Warning!  SCF SP cutoffs with diffuse functions may be unreliable.
 Consider SCF=Tight

 1/38=1/1;
 2/17=6,18=5,40=1/2;
 3/5=1,6=6,7=111,11=2,16=1,25=1,30=1,74=-5,75=5/1,2,3;
 4//1;
 5/5=2,32=1,38=5/2;
 6/7=2,8=2,9=2,10=2,15=8,20=101,28=1/1,2;
 99/5=1,9=1/99;
 --------------------------------------
 mol_17.26.19.pdbc_plusQ.z58378.zip.xyz
 --------------------------------------
 Symbolic Z-matrix:
 Charge =  1 Multiplicity = 1
 O                    -0.66804  -1.25996   0.97474 
 O                    -0.51147   0.00593  -1.75463 
 O                     2.05986   0.00046  -0.10123 
 O                     1.62846  -0.00478   1.36492 
 Ca                    0.72124  -1.68227  -0.85053 
 Ca                    0.72113   1.68809  -0.83928 
 O                    -0.66794   1.2533    0.98324 
 P                    -0.01889  -0.00627   1.84227 
 Ca                   -2.16455   0.00091  -0.27871 
 
                          Input orientation:                          
 ---------------------------------------------------------------------
 Center     Atomic     Atomic              Coordinates (Angstroms)
 Number     Number      Type              X           Y           Z
 ---------------------------------------------------------------------
    1          8             0       -0.668040   -1.259960    0.974740
    2          8             0       -0.511470    0.005930   -1.754630
    3          8             0        2.059860    0.000460   -0.101230
    4          8             0        1.628460   -0.004780    1.364920
    5         20             0        0.721240   -1.682270   -0.850530
    6         20             0        0.721130    1.688090   -0.839280
    7          8             0       -0.667940    1.253300    0.983240
    8         15             0       -0.018890   -0.006270    1.842270
    9         20             0       -2.164550    0.000910   -0.278710
 ---------------------------------------------------------------------
                    Distance matrix (angstroms):
                    1          2          3          4          5
     1  O    0.000000
     2  O    3.012715   0.000000
     3  O    3.191835   3.057041   0.000000
     4  O    2.646059   3.782989   1.528309   0.000000
     5  Ca   2.332393   2.277496   2.277045   2.923224   0.000000
     6  Ca   3.729807   2.277461   2.277062   2.923620   3.370379
     7  O    2.513274   3.012698   3.191642   2.646110   3.729625
     8  P    1.657028   3.630492   2.845776   1.715117   3.256983
     9  Ca   2.323892   2.216086   4.228137   4.133821   3.389374
                    6          7          8          9
     6  Ca   0.000000
     7  O    2.332410   0.000000
     8  P    3.257176   1.657020   0.000000
     9  Ca   3.389390   2.323971   3.017029   0.000000
 Stoichiometry    Ca3O5P(1+)
 Framework group  C1[X(Ca3O5P)]
 Deg. of freedom    21
 Full point group                 C1
 Largest Abelian subgroup         C1      NOp   1
 Largest concise Abelian subgroup C1      NOp   1
                         Standard orientation:                         
 ---------------------------------------------------------------------
 Center     Atomic     Atomic              Coordinates (Angstroms)
 Number     Number      Type              X           Y           Z
 ---------------------------------------------------------------------
    1          8             0       -0.668048   -1.259957    0.974740
    2          8             0       -0.511470    0.005932   -1.754630
    3          8             0        2.059860    0.000445   -0.101230
    4          8             0        1.628460   -0.004792    1.364920
    5         20             0        0.721229   -1.682276   -0.850530
    6         20             0        0.721141    1.688084   -0.839280
    7          8             0       -0.667932    1.253303    0.983240
    8         15             0       -0.018890   -0.006271    1.842270
    9         20             0       -2.164550    0.000923   -0.278710
 ---------------------------------------------------------------------
 Rotational constants (GHZ):      0.9144962      0.7987701      0.7958078
 Standard basis: 6-31+G(d,p) (6D, 7F)
 There are   199 symmetry adapted basis functions of A   symmetry.
 Integral buffers will be    131072 words long.
 Raffenetti 2 integral format.
 Two-electron integral symmetry is turned on.
   199 basis functions,   456 primitive gaussians,   199 cartesian basis functions
    57 alpha electrons       57 beta electrons
       nuclear repulsion energy      1092.4775634667 Hartrees.
 NAtoms=    9 NActive=    9 NUniq=    9 SFac= 7.50D-01 NAtFMM=   80 NAOKFM=F Big=F
 One-electron integrals computed using PRISM.
 NBasis=   199 RedAO= T  NBF=   199
 NBsUse=   199 1.00D-06 NBFU=   199
 Harris functional with IExCor=  402 diagonalized for initial guess.
 ExpMin= 7.10D-03 ExpMax= 3.53D+04 ExpMxC= 5.30D+03 IAcc=3 IRadAn=         5 AccDes= 0.00D+00
 HarFok:  IExCor= 402 AccDes= 0.00D+00 IRadAn=         5 IDoV=1
 ScaDFX=  1.000000  1.000000  1.000000  1.000000
 Initial guess orbital symmetries:
       Occupied  (A) (A) (A) (A) (A) (A) (A) (A) (A) (A) (A) (A)
                 (A) (A) (A) (A) (A) (A) (A) (A) (A) (A) (A) (A)
                 (A) (A) (A) (A) (A) (A) (A) (A) (A) (A) (A) (A)
                 (A) (A) (A) (A) (A) (A) (A) (A) (A) (A) (A) (A)
                 (A) (A) (A) (A) (A) (A) (A) (A) (A)
       Virtual   (A) (A) (A) (A) (A) (A) (A) (A) (A) (A) (A) (A)
                 (A) (A) (A) (A) (A) (A) (A) (A) (A) (A) (A) (A)
                 (A) (A) (A) (A) (A) (A) (A) (A) (A) (A) (A) (A)
                 (A) (A) (A) (A) (A) (A) (A) (A) (A) (A) (A) (A)
                 (A) (A) (A) (A) (A) (A) (A) (A) (A) (A) (A) (A)
                 (A) (A) (A) (A) (A) (A) (A) (A) (A) (A) (A) (A)
                 (A) (A) (A) (A) (A) (A) (A) (A) (A) (A) (A) (A)
                 (A) (A) (A) (A) (A) (A) (A) (A) (A) (A) (A) (A)
                 (A) (A) (A) (A) (A) (A) (A) (A) (A) (A) (A) (A)
                 (A) (A) (A) (A) (A) (A) (A) (A) (A) (A) (A) (A)
                 (A) (A) (A) (A) (A) (A) (A) (A) (A) (A) (A) (A)
                 (A) (A) (A) (A) (A) (A) (A) (A) (A) (A)
 The electronic state of the initial guess is 1-A.
 Requested convergence on RMS density matrix=1.00D-04 within 128 cycles.
 Requested convergence on MAX density matrix=1.00D-02.
 Requested convergence on             energy=1.00D-02.
 No special actions if energy rises.
 SCF Done:  E(RB+HF-LYP) =  -2750.21012888     A.U. after    8 cycles
             Convg  =    0.8004D-04             -V/T =  2.0029
             S**2   =   0.0000

 **********************************************************************

            Population analysis using the SCF density.

 **********************************************************************

 Orbital symmetries:
       Occupied  (A) (A) (A) (A) (A) (A) (A) (A) (A) (A) (A) (A)
                 (A) (A) (A) (A) (A) (A) (A) (A) (A) (A) (A) (A)
                 (A) (A) (A) (A) (A) (A) (A) (A) (A) (A) (A) (A)
                 (A) (A) (A) (A) (A) (A) (A) (A) (A) (A) (A) (A)
                 (A) (A) (A) (A) (A) (A) (A) (A) (A)
       Virtual   (A) (A) (A) (A) (A) (A) (A) (A) (A) (A) (A) (A)
                 (A) (A) (A) (A) (A) (A) (A) (A) (A) (A) (A) (A)
                 (A) (A) (A) (A) (A) (A) (A) (A) (A) (A) (A) (A)
                 (A) (A) (A) (A) (A) (A) (A) (A) (A) (A) (A) (A)
                 (A) (A) (A) (A) (A) (A) (A) (A) (A) (A) (A) (A)
                 (A) (A) (A) (A) (A) (A) (A) (A) (A) (A) (A) (A)
                 (A) (A) (A) (A) (A) (A) (A) (A) (A) (A) (A) (A)
                 (A) (A) (A) (A) (A) (A) (A) (A) (A) (A) (A) (A)
                 (A) (A) (A) (A) (A) (A) (A) (A) (A) (A) (A) (A)
                 (A) (A) (A) (A) (A) (A) (A) (A) (A) (A) (A) (A)
                 (A) (A) (A) (A) (A) (A) (A) (A) (A) (A) (A) (A)
                 (A) (A) (A) (A) (A) (A) (A) (A) (A) (A)
 The electronic state is 1-A.
 Alpha  occ. eigenvalues -- -145.50879-145.49977-145.49974 -77.26614 -19.28663
 Alpha  occ. eigenvalues --  -19.25248 -19.22898 -19.22897 -19.16862 -15.57716
 Alpha  occ. eigenvalues --  -15.56795 -15.56793 -12.70923 -12.70888 -12.70842
 Alpha  occ. eigenvalues --  -12.69994 -12.69993 -12.69966 -12.69966 -12.69941
 Alpha  occ. eigenvalues --  -12.69940  -6.71711  -4.88131  -4.88008  -4.87484
 Alpha  occ. eigenvalues --   -1.95025  -1.94085  -1.94030  -1.23111  -1.22775
 Alpha  occ. eigenvalues --   -1.22389  -1.22273  -1.21604  -1.21582  -1.21355
 Alpha  occ. eigenvalues --   -1.21290  -1.20982  -1.13422  -1.06844  -1.02227
 Alpha  occ. eigenvalues --   -0.93398  -0.91717  -0.65001  -0.55628  -0.52562
 Alpha  occ. eigenvalues --   -0.51437  -0.48108  -0.46967  -0.44012  -0.42103
 Alpha  occ. eigenvalues --   -0.39431  -0.38482  -0.37011  -0.36054  -0.35623
 Alpha  occ. eigenvalues --   -0.35474  -0.32661
 Alpha virt. eigenvalues --   -0.20695  -0.18355  -0.17807  -0.13788  -0.12910
 Alpha virt. eigenvalues --   -0.11310  -0.10839  -0.09447  -0.09264  -0.08194
 Alpha virt. eigenvalues --   -0.07389  -0.06437  -0.06182  -0.05880  -0.04928
 Alpha virt. eigenvalues --   -0.04872  -0.04853  -0.04719  -0.04374  -0.04014
 Alpha virt. eigenvalues --   -0.03938  -0.03679  -0.03235  -0.03052  -0.02635
 Alpha virt. eigenvalues --   -0.01959  -0.01941  -0.00642   0.01045   0.01709
 Alpha virt. eigenvalues --    0.01807   0.02570   0.03690   0.03999   0.04403
 Alpha virt. eigenvalues --    0.05329   0.05875   0.06017   0.06112   0.06217
 Alpha virt. eigenvalues --    0.06916   0.07103   0.07178   0.07464   0.07988
 Alpha virt. eigenvalues --    0.09564   0.09837   0.10624   0.10640   0.11490
 Alpha virt. eigenvalues --    0.12558   0.14084   0.14996   0.15601   0.16926
 Alpha virt. eigenvalues --    0.19367   0.20481   0.20809   0.21231   0.22493
 Alpha virt. eigenvalues --    0.23379   0.23816   0.24449   0.25307   0.26122
 Alpha virt. eigenvalues --    0.27601   0.30179   0.32491   0.32745   0.34303
 Alpha virt. eigenvalues --    0.34548   0.35387   0.36503   0.38355   0.38827
 Alpha virt. eigenvalues --    0.38842   0.42801   0.43593   0.46631   0.51109
 Alpha virt. eigenvalues --    0.53773   0.60045   0.61912   0.62217   0.65528
 Alpha virt. eigenvalues --    0.79104   0.86464   0.87045   0.92129   0.95118
 Alpha virt. eigenvalues --    1.10618   1.12080   1.13863   1.14930   1.16137
 Alpha virt. eigenvalues --    1.18849   1.18957   1.20637   1.21329   1.22926
 Alpha virt. eigenvalues --    1.23569   1.24911   1.26486   1.32068   1.32184
 Alpha virt. eigenvalues --    1.38027   1.49637   1.51845   1.55790   1.57810
 Alpha virt. eigenvalues --    1.61548   1.67711   1.69645   1.70080   1.71656
 Alpha virt. eigenvalues --    1.76316   1.78384   1.79829   1.84531   1.85770
 Alpha virt. eigenvalues --    1.87736   1.88694   1.90845   1.92756   1.93597
 Alpha virt. eigenvalues --    1.95981   1.96558   1.99110   2.01832   2.09527
 Alpha virt. eigenvalues --    2.17203   2.20404   2.36251   2.52192   2.57190
 Alpha virt. eigenvalues --    3.06323   3.51490   4.01901   4.10218   4.14154
 Alpha virt. eigenvalues --    4.21343   4.38542
          Condensed to atoms (all electrons):
              1          2          3          4          5          6
     1  O    8.964672   0.020324   0.009240   0.025340   0.037832   0.005382
     2  O    0.020324   8.854627   0.023422  -0.011779   0.116719   0.116732
     3  O    0.009240   0.023422   8.470476  -0.088100   0.104480   0.104488
     4  O    0.025340  -0.011779  -0.088100   8.634673  -0.026036  -0.026054
     5  Ca   0.037832   0.116719   0.104480  -0.026036  18.350498  -0.038571
     6  Ca   0.005382   0.116732   0.104488  -0.026054  -0.038571  18.350494
     7  O    0.031492   0.020315   0.009222   0.025345   0.005381   0.037816
     8  P   -0.138675  -0.024204   0.040777  -0.152089   0.019714   0.019682
     9  Ca   0.093177   0.142467  -0.023515   0.062839  -0.059953  -0.059941
              7          8          9
     1  O    0.031492  -0.138675   0.093177
     2  O    0.020315  -0.024204   0.142467
     3  O    0.009222   0.040777  -0.023515
     4  O    0.025345  -0.152089   0.062839
     5  Ca   0.005381   0.019714  -0.059953
     6  Ca   0.037816   0.019682  -0.059941
     7  O    8.964667  -0.138632   0.093172
     8  P   -0.138632  14.389006  -0.065896
     9  Ca   0.093172  -0.065896  18.397062
 Mulliken atomic charges:
              1
     1  O   -1.048783
     2  O   -1.258622
     3  O   -0.650491
     4  O   -0.444138
     5  Ca   1.489935
     6  Ca   1.489972
     7  O   -1.048779
     8  P    1.050317
     9  Ca   1.420588
 Sum of Mulliken charges=   1.00000
 Atomic charges with hydrogens summed into heavy atoms:
              1
     1  O   -1.048783
     2  O   -1.258622
     3  O   -0.650491
     4  O   -0.444138
     5  Ca   1.489935
     6  Ca   1.489972
     7  O   -1.048779
     8  P    1.050317
     9  Ca   1.420588
 Sum of Mulliken charges=   1.00000
 Electronic spatial extent (au):  <R**2>=  1758.1824
 Charge=     1.0000 electrons
 Dipole moment (field-independent basis, Debye):
    X=    -5.1132    Y=     0.0287    Z=    -8.2836  Tot=     9.7346
 Quadrupole moment (field-independent basis, Debye-Ang):
   XX=   -52.5688   YY=   -42.2564   ZZ=   -90.5984
   XY=     0.0287   XZ=    -8.8497   YZ=     0.1618
 Traceless Quadrupole moment (field-independent basis, Debye-Ang):
   XX=     9.2391   YY=    19.5514   ZZ=   -28.7905
   XY=     0.0287   XZ=    -8.8497   YZ=     0.1618
 Octapole moment (field-independent basis, Debye-Ang**2):
  XXX=  -118.9640  YYY=     0.6373  ZZZ=    -9.5742  XYY=    43.0124
  XXY=     0.1011  XXZ=   -30.2902  XZZ=    17.2698  YZZ=    -0.3817
  YYZ=   -62.0151  XYZ=     0.0862
 Hexadecapole moment (field-independent basis, Debye-Ang**3):
 XXXX=  -580.1983 YYYY=  -389.6620 ZZZZ=  -821.9641 XXXY=     0.0053
 XXXZ=    -2.8360 YYYX=     0.2551 YYYZ=     0.5320 ZZZX=   -49.2786
 ZZZY=     0.9501 XXYY=  -182.6542 XXZZ=  -244.1816 YYZZ=  -181.6886
 XXYZ=     0.2168 YYXZ=   -25.4528 ZZXY=    -0.0025
 N-N= 1.092477563467D+03 E-N=-8.685953046047D+03  KE= 2.742245770475D+03
 Merz-Kollman atomic radii used.
 Read replacement radii for each type of atom:
 Rad(20) =   1.188000000000D+00
 Atom Element Radius
    1     8    1.40
    2     8    1.40
    3     8    1.40
    4     8    1.40
    5    20    1.19
    6    20    1.19
    7     8    1.40
    8    15    1.80
    9    20    1.19

 **********************************************************************

            Electrostatic Properties Using The SCF Density

 **********************************************************************

       Atomic Center    1 is at  -0.668048 -1.259957  0.974740
       Atomic Center    2 is at  -0.511470  0.005932 -1.754630
       Atomic Center    3 is at   2.059860  0.000445 -0.101230
       Atomic Center    4 is at   1.628460 -0.004792  1.364920
       Atomic Center    5 is at   0.721229 -1.682276 -0.850530
       Atomic Center    6 is at   0.721141  1.688084 -0.839280
       Atomic Center    7 is at  -0.667932  1.253303  0.983240
       Atomic Center    8 is at  -0.018890 -0.006271  1.842270
       Atomic Center    9 is at  -2.164550  0.000923 -0.278710
     733 points will be used for fitting atomic charges
 Fitting point charges to eletrostatic potential
 Charges from ESP fit, RMS=   0.00503 RRMS=   0.03144:
 Charge=   1.00000 Dipole=    -5.1471     0.0271    -8.3784 Tot=     9.8332
              1
     1  O   -0.910093
     2  O   -1.636283
     3  O   -0.768375
     4  O   -0.227602
     5  Ca   1.694774
     6  Ca   1.695369
     7  O   -0.911177
     8  P    0.395998
     9  Ca   1.667390
 -----------------------------------------------------------------

              Electrostatic Properties (Atomic Units)

 -----------------------------------------------------------------
    Center     Electric         -------- Electric Field --------
               Potential          X             Y             Z
 -----------------------------------------------------------------
    1 Atom    -22.238479
    2 Atom    -22.309294
    3 Atom    -22.209758
    4 Atom    -22.182529
    5 Atom    -80.040649
    6 Atom    -80.040645
    7 Atom    -22.238471
    8 Atom    -53.952875
    9 Atom    -80.032534
 -----------------------------------------------------------------
 1\1\GINC-N025\SP\RB3LYP\6-31+G(d,p)\Ca3O5P1(1+)\TIMN\12-Jun-2015\0\\# 
 b3lyp/6-31+G(d,p) int=ultrafine pop=(ReadRadii,MK)\\mol_17.26.19.pdbc_
 plusQ.z58378.zip.xyz\\1,1\O,0,-0.66804,-1.25996,0.97474\O,0,-0.51147,0
 .00593,-1.75463\O,0,2.05986,0.00046,-0.10123\O,0,1.62846,-0.00478,1.36
 492\Ca,0,0.72124,-1.68227,-0.85053\Ca,0,0.72113,1.68809,-0.83928\O,0,-
 0.66794,1.2533,0.98324\P,0,-0.01889,-0.00627,1.84227\Ca,0,-2.16455,0.0
 0091,-0.27871\\Version=EM64T-G03RevE.01\State=1-A\HF=-2750.2101289\RMS
 D=8.004e-05\Thermal=0.\Dipole=-2.0117016,0.0112859,-3.2589998\PG=C01 [
 X(Ca3O5P1)]\\@


 SUCCESS IS NEVER CERTAIN,
 FAILURE IS NEVER FINAL.
 Job cpu time:  0 days  0 hours  2 minutes 14.9 seconds.
 File lengths (MBytes):  RWF=     36 Int=      0 D2E=      0 Chk=     11 Scr=      1
 Normal termination of Gaussian 03 at Fri Jun 12 18:00:11 2015.
