 Entering Gaussian System, Link 0=/home/timn/tmp/g03.e01/g03
 Input=mol_17.25.5.pdbccc_plusQ.z58364.zip.xyz.gjf
 Output=mol_17.25.5.pdbccc_plusQ.z58364.zip.xyz.out
 Initial command:
 /home/timn/tmp/g03.e01/l1.exe /home/timn/tmp/g03.e01/Gau-17319.inp -scrdir=/home/timn/tmp/g03.e01/
 Default is to use a total of   2 processors:
                                2 via shared-memory
                                1 via Linda
 Entering Link 1 = /home/timn/tmp/g03.e01/l1.exe PID=     17320.
  
 Copyright (c) 1988,1990,1992,1993,1995,1998,2003,2004,2007, Gaussian, Inc.
                  All Rights Reserved.
  
 This is the Gaussian(R) 03 program.  It is based on the
 the Gaussian(R) 98 system (copyright 1998, Gaussian, Inc.),
 the Gaussian(R) 94 system (copyright 1995, Gaussian, Inc.),
 the Gaussian 92(TM) system (copyright 1992, Gaussian, Inc.),
 the Gaussian 90(TM) system (copyright 1990, Gaussian, Inc.),
 the Gaussian 88(TM) system (copyright 1988, Gaussian, Inc.),
 the Gaussian 86(TM) system (copyright 1986, Carnegie Mellon
 University), and the Gaussian 82(TM) system (copyright 1983,
 Carnegie Mellon University). Gaussian is a federally registered
 trademark of Gaussian, Inc.
  
 This software contains proprietary and confidential information,
 including trade secrets, belonging to Gaussian, Inc.
  
 This software is provided under written license and may be
 used, copied, transmitted, or stored only in accord with that
 written license.
  
 The following legend is applicable only to US Government
 contracts under FAR:
  
                    RESTRICTED RIGHTS LEGEND
  
 Use, reproduction and disclosure by the US Government is
 subject to restrictions as set forth in subparagraphs (a)
 and (c) of the Commercial Computer Software - Restricted
 Rights clause in FAR 52.227-19.
  
 Gaussian, Inc.
 340 Quinnipiac St., Bldg. 40, Wallingford CT 06492
  
  
 ---------------------------------------------------------------
 Warning -- This program may not be used in any manner that
 competes with the business of Gaussian, Inc. or will provide
 assistance to any competitor of Gaussian, Inc.  The licensee
 of this program is prohibited from giving any competitor of
 Gaussian, Inc. access to this program.  By using this program,
 the user acknowledges that Gaussian, Inc. is engaged in the
 business of creating and licensing software in the field of
 computational chemistry and represents and warrants to the
 licensee that it is not a competitor of Gaussian, Inc. and that
 it will not use this program in any manner prohibited above.
 ---------------------------------------------------------------
  

 Cite this work as:
 Gaussian 03, Revision E.01,
 M. J. Frisch, G. W. Trucks, H. B. Schlegel, G. E. Scuseria, 
 M. A. Robb, J. R. Cheeseman, J. A. Montgomery, Jr., T. Vreven, 
 K. N. Kudin, J. C. Burant, J. M. Millam, S. S. Iyengar, J. Tomasi, 
 V. Barone, B. Mennucci, M. Cossi, G. Scalmani, N. Rega, 
 G. A. Petersson, H. Nakatsuji, M. Hada, M. Ehara, K. Toyota, 
 R. Fukuda, J. Hasegawa, M. Ishida, T. Nakajima, Y. Honda, O. Kitao, 
 H. Nakai, M. Klene, X. Li, J. E. Knox, H. P. Hratchian, J. B. Cross, 
 V. Bakken, C. Adamo, J. Jaramillo, R. Gomperts, R. E. Stratmann, 
 O. Yazyev, A. J. Austin, R. Cammi, C. Pomelli, J. W. Ochterski, 
 P. Y. Ayala, K. Morokuma, G. A. Voth, P. Salvador, J. J. Dannenberg, 
 V. G. Zakrzewski, S. Dapprich, A. D. Daniels, M. C. Strain, 
 O. Farkas, D. K. Malick, A. D. Rabuck, K. Raghavachari, 
 J. B. Foresman, J. V. Ortiz, Q. Cui, A. G. Baboul, S. Clifford, 
 J. Cioslowski, B. B. Stefanov, G. Liu, A. Liashenko, P. Piskorz, 
 I. Komaromi, R. L. Martin, D. J. Fox, T. Keith, M. A. Al-Laham, 
 C. Y. Peng, A. Nanayakkara, M. Challacombe, P. M. W. Gill, 
 B. Johnson, W. Chen, M. W. Wong, C. Gonzalez, and J. A. Pople, 
 Gaussian, Inc., Wallingford CT, 2004.
 
 ******************************************
 Gaussian 03:  EM64T-G03RevE.01 11-Sep-2007
                12-Jun-2015 
 ******************************************
 %nproc=2
 Will use up to    2 processors via shared memory.
 Default route:  MP2=Direct MaxDisk=2000MB
 ----------------------------------------------------
 # b3lyp/6-31+G(d,p) int=ultrafine pop=(ReadRadii,MK)
 ----------------------------------------------------

 Warning!  SCF SP cutoffs with diffuse functions may be unreliable.
 Consider SCF=Tight

 1/38=1/1;
 2/17=6,18=5,40=1/2;
 3/5=1,6=6,7=111,11=2,16=1,25=1,30=1,74=-5,75=5/1,2,3;
 4//1;
 5/5=2,32=1,38=5/2;
 6/7=2,8=2,9=2,10=2,15=8,20=101,28=1/1,2;
 99/5=1,9=1/99;
 ---------------------------------------
 mol_17.25.5.pdbccc_plusQ.z58364.zip.xyz
 ---------------------------------------
 Symbolic Z-matrix:
 Charge =  1 Multiplicity = 1
 Ca                    0.90562  -1.94358  -0.00573 
 O                    -2.59505   0.18034   0.00289 
 P                    -2.73793  -1.35331   0.00461 
 Ca                   -1.81253   2.34517  -0.005 
 O                    -1.34927  -2.03402   0.00139 
 O                     1.93772  -0.2653    1.19624 
 O                     2.80985  -0.49321   0.00059 
 O                     1.94033  -0.25892  -1.19621 
 Ca                    1.86293   1.76185   0.00531 
 
                          Input orientation:                          
 ---------------------------------------------------------------------
 Center     Atomic     Atomic              Coordinates (Angstroms)
 Number     Number      Type              X           Y           Z
 ---------------------------------------------------------------------
    1         20             0        0.905620   -1.943580   -0.005730
    2          8             0       -2.595050    0.180340    0.002890
    3         15             0       -2.737930   -1.353310    0.004610
    4         20             0       -1.812530    2.345170   -0.005000
    5          8             0       -1.349270   -2.034020    0.001390
    6          8             0        1.937720   -0.265300    1.196240
    7          8             0        2.809850   -0.493210    0.000590
    8          8             0        1.940330   -0.258920   -1.196210
    9         20             0        1.862930    1.761850    0.005310
 ---------------------------------------------------------------------
                    Distance matrix (angstroms):
                    1          2          3          4          5
     1  Ca   0.000000
     2  O    4.094606   0.000000
     3  P    3.691068   1.540292   0.000000
     4  Ca   5.077570   2.301932   3.812507   0.000000
     5  O    2.256714   2.540740   1.546529   4.403630   0.000000
     6  O    2.307940   4.708363   4.946256   4.724606   3.919227
     7  O    2.393680   5.446707   5.614058   5.424281   4.435355
     8  O    2.307801   4.711737   4.952350   4.720617   3.925136
     9  Ca   3.827111   4.730197   5.556270   3.721475   4.972612
                    6          7          8          9
     6  O    0.000000
     7  O    1.497375   0.000000
     8  O    2.392460   1.497761   0.000000
     9  Ca   2.352285   2.445808   2.352265   0.000000
 Stoichiometry    Ca3O5P(1+)
 Framework group  C1[X(Ca3O5P)]
 Deg. of freedom    21
 Full point group                 C1
 Largest Abelian subgroup         C1      NOp   1
 Largest concise Abelian subgroup C1      NOp   1
                         Standard orientation:                         
 ---------------------------------------------------------------------
 Center     Atomic     Atomic              Coordinates (Angstroms)
 Number     Number      Type              X           Y           Z
 ---------------------------------------------------------------------
    1         20             0        0.905626   -1.943579   -0.005730
    2          8             0       -2.595051    0.180328    0.002890
    3         15             0       -2.737926   -1.353322    0.004610
    4         20             0       -1.812539    2.345161   -0.005000
    5          8             0       -1.349263   -2.034027    0.001390
    6          8             0        1.937720   -0.265295    1.196240
    7          8             0        2.809851   -0.493202    0.000590
    8          8             0        1.940330   -0.258915   -1.196210
    9         20             0        1.862923    1.761855    0.005310
 ---------------------------------------------------------------------
 Rotational constants (GHZ):      0.7542624      0.5241819      0.3276152
 Standard basis: 6-31+G(d,p) (6D, 7F)
 There are   199 symmetry adapted basis functions of A   symmetry.
 Integral buffers will be    131072 words long.
 Raffenetti 2 integral format.
 Two-electron integral symmetry is turned on.
   199 basis functions,   456 primitive gaussians,   199 cartesian basis functions
    57 alpha electrons       57 beta electrons
       nuclear repulsion energy       920.5231663113 Hartrees.
 NAtoms=    9 NActive=    9 NUniq=    9 SFac= 7.50D-01 NAtFMM=   80 NAOKFM=F Big=F
 One-electron integrals computed using PRISM.
 NBasis=   199 RedAO= T  NBF=   199
 NBsUse=   199 1.00D-06 NBFU=   199
 Harris functional with IExCor=  402 diagonalized for initial guess.
 ExpMin= 7.10D-03 ExpMax= 3.53D+04 ExpMxC= 5.30D+03 IAcc=3 IRadAn=         5 AccDes= 0.00D+00
 HarFok:  IExCor= 402 AccDes= 0.00D+00 IRadAn=         5 IDoV=1
 ScaDFX=  1.000000  1.000000  1.000000  1.000000
 Initial guess orbital symmetries:
       Occupied  (A) (A) (A) (A) (A) (A) (A) (A) (A) (A) (A) (A)
                 (A) (A) (A) (A) (A) (A) (A) (A) (A) (A) (A) (A)
                 (A) (A) (A) (A) (A) (A) (A) (A) (A) (A) (A) (A)
                 (A) (A) (A) (A) (A) (A) (A) (A) (A) (A) (A) (A)
                 (A) (A) (A) (A) (A) (A) (A) (A) (A)
       Virtual   (A) (A) (A) (A) (A) (A) (A) (A) (A) (A) (A) (A)
                 (A) (A) (A) (A) (A) (A) (A) (A) (A) (A) (A) (A)
                 (A) (A) (A) (A) (A) (A) (A) (A) (A) (A) (A) (A)
                 (A) (A) (A) (A) (A) (A) (A) (A) (A) (A) (A) (A)
                 (A) (A) (A) (A) (A) (A) (A) (A) (A) (A) (A) (A)
                 (A) (A) (A) (A) (A) (A) (A) (A) (A) (A) (A) (A)
                 (A) (A) (A) (A) (A) (A) (A) (A) (A) (A) (A) (A)
                 (A) (A) (A) (A) (A) (A) (A) (A) (A) (A) (A) (A)
                 (A) (A) (A) (A) (A) (A) (A) (A) (A) (A) (A) (A)
                 (A) (A) (A) (A) (A) (A) (A) (A) (A) (A) (A) (A)
                 (A) (A) (A) (A) (A) (A) (A) (A) (A) (A) (A) (A)
                 (A) (A) (A) (A) (A) (A) (A) (A) (A) (A)
 The electronic state of the initial guess is 1-A.
 Requested convergence on RMS density matrix=1.00D-04 within 128 cycles.
 Requested convergence on MAX density matrix=1.00D-02.
 Requested convergence on             energy=1.00D-02.
 No special actions if energy rises.
 EnCoef did     4 forward-backward iterations
 EnCoef did   100 forward-backward iterations
 SCF Done:  E(RB+HF-LYP) =  -2750.06909896     A.U. after   10 cycles
             Convg  =    0.9946D-04             -V/T =  2.0029
             S**2   =   0.0000

 **********************************************************************

            Population analysis using the SCF density.

 **********************************************************************

 Orbital symmetries:
       Occupied  (A) (A) (A) (A) (A) (A) (A) (A) (A) (A) (A) (A)
                 (A) (A) (A) (A) (A) (A) (A) (A) (A) (A) (A) (A)
                 (A) (A) (A) (A) (A) (A) (A) (A) (A) (A) (A) (A)
                 (A) (A) (A) (A) (A) (A) (A) (A) (A) (A) (A) (A)
                 (A) (A) (A) (A) (A) (A) (A) (A) (A)
       Virtual   (A) (A) (A) (A) (A) (A) (A) (A) (A) (A) (A) (A)
                 (A) (A) (A) (A) (A) (A) (A) (A) (A) (A) (A) (A)
                 (A) (A) (A) (A) (A) (A) (A) (A) (A) (A) (A) (A)
                 (A) (A) (A) (A) (A) (A) (A) (A) (A) (A) (A) (A)
                 (A) (A) (A) (A) (A) (A) (A) (A) (A) (A) (A) (A)
                 (A) (A) (A) (A) (A) (A) (A) (A) (A) (A) (A) (A)
                 (A) (A) (A) (A) (A) (A) (A) (A) (A) (A) (A) (A)
                 (A) (A) (A) (A) (A) (A) (A) (A) (A) (A) (A) (A)
                 (A) (A) (A) (A) (A) (A) (A) (A) (A) (A) (A) (A)
                 (A) (A) (A) (A) (A) (A) (A) (A) (A) (A) (A) (A)
                 (A) (A) (A) (A) (A) (A) (A) (A) (A) (A) (A) (A)
                 (A) (A) (A) (A) (A) (A) (A) (A) (A) (A)
 The electronic state is 1-A.
 Alpha  occ. eigenvalues -- -145.52279-145.51797-145.50941 -77.29705 -19.37668
 Alpha  occ. eigenvalues --  -19.28188 -19.28188 -19.27638 -19.27351 -15.59082
 Alpha  occ. eigenvalues --  -15.58773 -15.57876 -12.72317 -12.72288 -12.72186
 Alpha  occ. eigenvalues --  -12.71970 -12.71953 -12.71846 -12.71088 -12.71051
 Alpha  occ. eigenvalues --  -12.70975  -6.75180  -4.91625  -4.91407  -4.90957
 Alpha  occ. eigenvalues --   -1.96206  -1.95881  -1.95034  -1.27034  -1.23887
 Alpha  occ. eigenvalues --   -1.23720  -1.23384  -1.23307  -1.23028  -1.22828
 Alpha  occ. eigenvalues --   -1.22501  -1.22424  -1.19088  -1.13496  -1.08177
 Alpha  occ. eigenvalues --   -1.03931  -0.88849  -0.67514  -0.57939  -0.57315
 Alpha  occ. eigenvalues --   -0.56325  -0.55923  -0.52317  -0.52176  -0.45421
 Alpha  occ. eigenvalues --   -0.44268  -0.43618  -0.42165  -0.40200  -0.39538
 Alpha  occ. eigenvalues --   -0.36831  -0.27624
 Alpha virt. eigenvalues --   -0.19454  -0.18923  -0.17830  -0.14938  -0.14700
 Alpha virt. eigenvalues --   -0.13320  -0.12240  -0.11269  -0.10016  -0.09136
 Alpha virt. eigenvalues --   -0.07995  -0.07829  -0.07793  -0.06848  -0.06778
 Alpha virt. eigenvalues --   -0.05751  -0.05467  -0.05412  -0.05324  -0.05049
 Alpha virt. eigenvalues --   -0.04548  -0.04451  -0.04274  -0.04174  -0.03376
 Alpha virt. eigenvalues --   -0.03216  -0.03024  -0.02906  -0.02716  -0.01622
 Alpha virt. eigenvalues --   -0.00868  -0.00388   0.01597   0.01994   0.03170
 Alpha virt. eigenvalues --    0.03507   0.03582   0.04069   0.04391   0.05039
 Alpha virt. eigenvalues --    0.05549   0.05772   0.06375   0.06502   0.06901
 Alpha virt. eigenvalues --    0.07839   0.08220   0.08518   0.08550   0.09481
 Alpha virt. eigenvalues --    0.09985   0.10012   0.10543   0.11901   0.13686
 Alpha virt. eigenvalues --    0.13973   0.14501   0.14991   0.16144   0.16803
 Alpha virt. eigenvalues --    0.17521   0.18097   0.19195   0.20318   0.22628
 Alpha virt. eigenvalues --    0.22984   0.23292   0.26336   0.26617   0.27667
 Alpha virt. eigenvalues --    0.29794   0.31345   0.32797   0.34510   0.34858
 Alpha virt. eigenvalues --    0.35671   0.37134   0.40308   0.46138   0.46806
 Alpha virt. eigenvalues --    0.48415   0.48460   0.57664   0.59098   0.60023
 Alpha virt. eigenvalues --    0.61422   0.75918   0.83292   0.90548   0.93967
 Alpha virt. eigenvalues --    0.99591   1.05286   1.05937   1.06125   1.08367
 Alpha virt. eigenvalues --    1.08668   1.10679   1.11294   1.11975   1.14416
 Alpha virt. eigenvalues --    1.15673   1.19921   1.20573   1.23589   1.24682
 Alpha virt. eigenvalues --    1.29348   1.37561   1.39230   1.41311   1.43070
 Alpha virt. eigenvalues --    1.50349   1.57369   1.60325   1.65714   1.66139
 Alpha virt. eigenvalues --    1.66299   1.68395   1.71736   1.72640   1.73185
 Alpha virt. eigenvalues --    1.78800   1.80457   1.82554   1.85327   1.86522
 Alpha virt. eigenvalues --    1.86939   1.88739   1.93504   2.09001   2.20835
 Alpha virt. eigenvalues --    2.21390   2.42265   2.53861   2.68647   3.02988
 Alpha virt. eigenvalues --    3.05128   3.40310   3.81966   3.91930   3.98273
 Alpha virt. eigenvalues --    4.04217   4.23366
          Condensed to atoms (all electrons):
              1          2          3          4          5          6
     1  Ca  18.284753  -0.000016  -0.066734   0.061405   0.080466   0.092550
     2  O   -0.000016   8.930407  -0.163676  -0.042895  -0.067431   0.001826
     3  P   -0.066734  -0.163676  14.741422  -0.094462  -0.161091   0.000700
     4  Ca   0.061405  -0.042895  -0.094462  19.169679   0.009099  -0.019384
     5  O    0.080466  -0.067431  -0.161091   0.009099   8.857503   0.003789
     6  O    0.092550   0.001826   0.000700  -0.019384   0.003789   8.430488
     7  O    0.032134  -0.000246  -0.000759   0.001083  -0.005159   0.038289
     8  O    0.092895   0.001798   0.000625  -0.019322   0.003718   0.011496
     9  Ca   0.002033  -0.032801   0.058514   0.306278  -0.010785   0.046150
              7          8          9
     1  Ca   0.032134   0.092895   0.002033
     2  O   -0.000246   0.001798  -0.032801
     3  P   -0.000759   0.000625   0.058514
     4  Ca   0.001083  -0.019322   0.306278
     5  O   -0.005159   0.003718  -0.010785
     6  O    0.038289   0.011496   0.046150
     7  O    7.934247   0.038294   0.009168
     8  O    0.038294   8.430677   0.045861
     9  Ca   0.009168   0.045861  18.714005
 Mulliken atomic charges:
              1
     1  Ca   1.420514
     2  O   -0.626966
     3  P    0.685459
     4  Ca   0.628520
     5  O   -0.710109
     6  O   -0.605904
     7  O   -0.047051
     8  O   -0.606041
     9  Ca   0.861578
 Sum of Mulliken charges=   1.00000
 Atomic charges with hydrogens summed into heavy atoms:
              1
     1  Ca   1.420514
     2  O   -0.626966
     3  P    0.685459
     4  Ca   0.628520
     5  O   -0.710109
     6  O   -0.605904
     7  O   -0.047051
     8  O   -0.606041
     9  Ca   0.861578
 Sum of Mulliken charges=   1.00000
 Electronic spatial extent (au):  <R**2>=  2969.3367
 Charge=     1.0000 electrons
 Dipole moment (field-independent basis, Debye):
    X=     0.2647    Y=     1.6268    Z=    -0.0293  Tot=     1.6485
 Quadrupole moment (field-independent basis, Debye-Ang):
   XX=   -66.0519   YY=   -43.2765   ZZ=   -89.4162
   XY=    -8.8207   XZ=     0.0859   YZ=     0.1145
 Traceless Quadrupole moment (field-independent basis, Debye-Ang):
   XX=     0.1963   YY=    22.9717   ZZ=   -23.1680
   XY=    -8.8207   XZ=     0.0859   YZ=     0.1145
 Octapole moment (field-independent basis, Debye-Ang**2):
  XXX=     6.0809  YYY=   -62.0377  ZZZ=    -0.0262  XYY=    33.5996
  XXY=    57.8819  XXZ=     0.0236  XZZ=    -9.6423  YZZ=   -16.2000
  YYZ=    -0.2310  XYZ=     0.3716
 Hexadecapole moment (field-independent basis, Debye-Ang**3):
 XXXX= -2036.8798 YYYY= -1433.4748 ZZZZ=  -251.9095 XXXY=    24.7161
 XXXZ=     0.7386 YYYX=  -159.5267 YYYZ=     0.6525 ZZZX=     0.0844
 ZZZY=     0.3505 XXYY=  -392.7974 XXZZ=  -403.3375 YYZZ=  -297.0552
 XXYZ=     0.2662 YYXZ=     0.2747 ZZXY=     2.6539
 N-N= 9.205231663113D+02 E-N=-8.338325030137D+03  KE= 2.742198413889D+03
 Merz-Kollman atomic radii used.
 Read replacement radii for each type of atom:
 Rad(20) =   1.188000000000D+00
 Atom Element Radius
    1    20    1.19
    2     8    1.40
    3    15    1.80
    4    20    1.19
    5     8    1.40
    6     8    1.40
    7     8    1.40
    8     8    1.40
    9    20    1.19

 **********************************************************************

            Electrostatic Properties Using The SCF Density

 **********************************************************************

       Atomic Center    1 is at   0.905626 -1.943579 -0.005730
       Atomic Center    2 is at  -2.595051  0.180328  0.002890
       Atomic Center    3 is at  -2.737926 -1.353322  0.004610
       Atomic Center    4 is at  -1.812539  2.345161 -0.005000
       Atomic Center    5 is at  -1.349263 -2.034027  0.001390
       Atomic Center    6 is at   1.937720 -0.265295  1.196240
       Atomic Center    7 is at   2.809851 -0.493202  0.000590
       Atomic Center    8 is at   1.940330 -0.258915 -1.196210
       Atomic Center    9 is at   1.862923  1.761855  0.005310
     910 points will be used for fitting atomic charges
 Fitting point charges to eletrostatic potential
 Charges from ESP fit, RMS=   0.02540 RRMS=   0.16979:
 Charge=   1.00000 Dipole=     0.5991     3.9732    -0.0267 Tot=     4.0182
              1
     1  Ca   1.544216
     2  O   -0.093770
     3  P    0.156495
     4  Ca   0.490319
     5  O   -0.543313
     6  O   -0.817192
     7  O    0.235993
     8  O   -0.818396
     9  Ca   0.845648
 -----------------------------------------------------------------

              Electrostatic Properties (Atomic Units)

 -----------------------------------------------------------------
    Center     Electric         -------- Electric Field --------
               Potential          X             Y             Z
 -----------------------------------------------------------------
    1 Atom    -80.019129
    2 Atom    -22.190303
    3 Atom    -53.919445
    4 Atom    -80.026941
    5 Atom    -22.190015
    6 Atom    -22.193089
    7 Atom    -22.103676
    8 Atom    -22.193058
    9 Atom    -80.030223
 -----------------------------------------------------------------
 1\1\GINC-N028\SP\RB3LYP\6-31+G(d,p)\Ca3O5P1(1+)\TIMN\12-Jun-2015\0\\# 
 b3lyp/6-31+G(d,p) int=ultrafine pop=(ReadRadii,MK)\\mol_17.25.5.pdbccc
 _plusQ.z58364.zip.xyz\\1,1\Ca,0,0.90562,-1.94358,-0.00573\O,0,-2.59505
 ,0.18034,0.00289\P,0,-2.73793,-1.35331,0.00461\Ca,0,-1.81253,2.34517,-
 0.005\O,0,-1.34927,-2.03402,0.00139\O,0,1.93772,-0.2653,1.19624\O,0,2.
 80985,-0.49321,0.00059\O,0,1.94033,-0.25892,-1.19621\Ca,0,1.86293,1.76
 185,0.00531\\Version=EM64T-G03RevE.01\State=1-A\HF=-2750.069099\RMSD=9
 .946e-05\Thermal=0.\Dipole=0.1041394,0.640037,-0.0115219\PG=C01 [X(Ca3
 O5P1)]\\@


 IN THE LONG RUN, DIGGING FOR TRUTH HAS ALWAYS PROVED NOT ONLY 
 MORE INTERESTING BUT MORE PROFITABLE THAN DIGGING FOR GOLD.

                             -- GEORGE R. HARRISON
 Job cpu time:  0 days  0 hours  2 minutes 17.2 seconds.
 File lengths (MBytes):  RWF=     36 Int=      0 D2E=      0 Chk=     11 Scr=      1
 Normal termination of Gaussian 03 at Fri Jun 12 17:59:19 2015.
