 Entering Gaussian System, Link 0=/home/timn/tmp/g03.e01/g03
 Input=mol_17.24.24.pdbccc_plusQ.z58279.zip.xyz.gjf
 Output=mol_17.24.24.pdbccc_plusQ.z58279.zip.xyz.out
 Initial command:
 /home/timn/tmp/g03.e01/l1.exe /home/timn/tmp/g03.e01/Gau-12780.inp -scrdir=/home/timn/tmp/g03.e01/
 Default is to use a total of   2 processors:
                                2 via shared-memory
                                1 via Linda
 Entering Link 1 = /home/timn/tmp/g03.e01/l1.exe PID=     12781.
  
 Copyright (c) 1988,1990,1992,1993,1995,1998,2003,2004,2007, Gaussian, Inc.
                  All Rights Reserved.
  
 This is the Gaussian(R) 03 program.  It is based on the
 the Gaussian(R) 98 system (copyright 1998, Gaussian, Inc.),
 the Gaussian(R) 94 system (copyright 1995, Gaussian, Inc.),
 the Gaussian 92(TM) system (copyright 1992, Gaussian, Inc.),
 the Gaussian 90(TM) system (copyright 1990, Gaussian, Inc.),
 the Gaussian 88(TM) system (copyright 1988, Gaussian, Inc.),
 the Gaussian 86(TM) system (copyright 1986, Carnegie Mellon
 University), and the Gaussian 82(TM) system (copyright 1983,
 Carnegie Mellon University). Gaussian is a federally registered
 trademark of Gaussian, Inc.
  
 This software contains proprietary and confidential information,
 including trade secrets, belonging to Gaussian, Inc.
  
 This software is provided under written license and may be
 used, copied, transmitted, or stored only in accord with that
 written license.
  
 The following legend is applicable only to US Government
 contracts under FAR:
  
                    RESTRICTED RIGHTS LEGEND
  
 Use, reproduction and disclosure by the US Government is
 subject to restrictions as set forth in subparagraphs (a)
 and (c) of the Commercial Computer Software - Restricted
 Rights clause in FAR 52.227-19.
  
 Gaussian, Inc.
 340 Quinnipiac St., Bldg. 40, Wallingford CT 06492
  
  
 ---------------------------------------------------------------
 Warning -- This program may not be used in any manner that
 competes with the business of Gaussian, Inc. or will provide
 assistance to any competitor of Gaussian, Inc.  The licensee
 of this program is prohibited from giving any competitor of
 Gaussian, Inc. access to this program.  By using this program,
 the user acknowledges that Gaussian, Inc. is engaged in the
 business of creating and licensing software in the field of
 computational chemistry and represents and warrants to the
 licensee that it is not a competitor of Gaussian, Inc. and that
 it will not use this program in any manner prohibited above.
 ---------------------------------------------------------------
  

 Cite this work as:
 Gaussian 03, Revision E.01,
 M. J. Frisch, G. W. Trucks, H. B. Schlegel, G. E. Scuseria, 
 M. A. Robb, J. R. Cheeseman, J. A. Montgomery, Jr., T. Vreven, 
 K. N. Kudin, J. C. Burant, J. M. Millam, S. S. Iyengar, J. Tomasi, 
 V. Barone, B. Mennucci, M. Cossi, G. Scalmani, N. Rega, 
 G. A. Petersson, H. Nakatsuji, M. Hada, M. Ehara, K. Toyota, 
 R. Fukuda, J. Hasegawa, M. Ishida, T. Nakajima, Y. Honda, O. Kitao, 
 H. Nakai, M. Klene, X. Li, J. E. Knox, H. P. Hratchian, J. B. Cross, 
 V. Bakken, C. Adamo, J. Jaramillo, R. Gomperts, R. E. Stratmann, 
 O. Yazyev, A. J. Austin, R. Cammi, C. Pomelli, J. W. Ochterski, 
 P. Y. Ayala, K. Morokuma, G. A. Voth, P. Salvador, J. J. Dannenberg, 
 V. G. Zakrzewski, S. Dapprich, A. D. Daniels, M. C. Strain, 
 O. Farkas, D. K. Malick, A. D. Rabuck, K. Raghavachari, 
 J. B. Foresman, J. V. Ortiz, Q. Cui, A. G. Baboul, S. Clifford, 
 J. Cioslowski, B. B. Stefanov, G. Liu, A. Liashenko, P. Piskorz, 
 I. Komaromi, R. L. Martin, D. J. Fox, T. Keith, M. A. Al-Laham, 
 C. Y. Peng, A. Nanayakkara, M. Challacombe, P. M. W. Gill, 
 B. Johnson, W. Chen, M. W. Wong, C. Gonzalez, and J. A. Pople, 
 Gaussian, Inc., Wallingford CT, 2004.
 
 ******************************************
 Gaussian 03:  EM64T-G03RevE.01 11-Sep-2007
                12-Jun-2015 
 ******************************************
 %nproc=2
 Will use up to    2 processors via shared memory.
 Default route:  MP2=Direct MaxDisk=2000MB
 ----------------------------------------------------
 # b3lyp/6-31+G(d,p) int=ultrafine pop=(ReadRadii,MK)
 ----------------------------------------------------

 Warning!  SCF SP cutoffs with diffuse functions may be unreliable.
 Consider SCF=Tight

 1/38=1/1;
 2/17=6,18=5,40=1/2;
 3/5=1,6=6,7=111,11=2,16=1,25=1,30=1,74=-5,75=5/1,2,3;
 4//1;
 5/5=2,32=1,38=5/2;
 6/7=2,8=2,9=2,10=2,15=8,20=101,28=1/1,2;
 99/5=1,9=1/99;
 ----------------------------------------
 mol_17.24.24.pdbccc_plusQ.z58279.zip.xyz
 ----------------------------------------
 Symbolic Z-matrix:
 Charge =  1 Multiplicity = 1
 O                    -1.26128   0.75483   0.70134 
 O                    -2.56218   0.08079   0.38924 
 Ca                   -1.28267  -1.2297   -0.92283 
 P                    -0.04606  -0.05604   1.76343 
 O                     1.15795   0.87929   1.11836 
 O                     0.17007  -1.44906   0.92476 
 Ca                    2.03503  -0.77601  -0.27267 
 Ca                    0.08085   1.94634  -0.69996 
 O                     0.49878  -0.01235  -1.70146 
 
                          Input orientation:                          
 ---------------------------------------------------------------------
 Center     Atomic     Atomic              Coordinates (Angstroms)
 Number     Number      Type              X           Y           Z
 ---------------------------------------------------------------------
    1          8             0       -1.261280    0.754830    0.701340
    2          8             0       -2.562180    0.080790    0.389240
    3         20             0       -1.282670   -1.229700   -0.922830
    4         15             0       -0.046060   -0.056040    1.763430
    5          8             0        1.157950    0.879290    1.118360
    6          8             0        0.170070   -1.449060    0.924760
    7         20             0        2.035030   -0.776010   -0.272670
    8         20             0        0.080850    1.946340   -0.699960
    9          8             0        0.498780   -0.012350   -1.701460
 ---------------------------------------------------------------------
                    Distance matrix (angstroms):
                    1          2          3          4          5
     1  O    0.000000
     2  O    1.498024   0.000000
     3  Ca   2.564517   2.253011   0.000000
     4  P    1.806185   2.870188   3.181615   0.000000
     5  O    2.458062   3.874092   3.817188   1.655475   0.000000
     6  O    2.637387   3.176856   2.360543   1.640300   2.536652
     7  Ca   3.762689   4.722983   3.411111   2.999166   2.333292
     8  Ca   2.276983   3.413538   3.463537   3.177093   2.367494
     9  O    3.075683   3.707988   2.293855   3.507737   3.030002
                    6          7          8          9
     6  O    0.000000
     7  Ca   2.316228   0.000000
     8  Ca   3.765158   3.378252   0.000000
     9  O    3.011514   2.232640   2.239226   0.000000
 Stoichiometry    Ca3O5P(1+)
 Framework group  C1[X(Ca3O5P)]
 Deg. of freedom    21
 Full point group                 C1
 Largest Abelian subgroup         C1      NOp   1
 Largest concise Abelian subgroup C1      NOp   1
                         Standard orientation:                         
 ---------------------------------------------------------------------
 Center     Atomic     Atomic              Coordinates (Angstroms)
 Number     Number      Type              X           Y           Z
 ---------------------------------------------------------------------
    1          8             0       -1.261280    0.754831    0.701339
    2          8             0       -2.562180    0.080792    0.389239
    3         20             0       -1.282671   -1.229699   -0.922831
    4         15             0       -0.046060   -0.056040    1.763429
    5          8             0        1.157951    0.879289    1.118359
    6          8             0        0.170069   -1.449060    0.924759
    7         20             0        2.035029   -0.776012   -0.272671
    8         20             0        0.080851    1.946340   -0.699961
    9          8             0        0.498780   -0.012350   -1.701461
 ---------------------------------------------------------------------
 Rotational constants (GHZ):      0.9458353      0.8008183      0.7442293
 Standard basis: 6-31+G(d,p) (6D, 7F)
 There are   199 symmetry adapted basis functions of A   symmetry.
 Integral buffers will be    131072 words long.
 Raffenetti 2 integral format.
 Two-electron integral symmetry is turned on.
   199 basis functions,   456 primitive gaussians,   199 cartesian basis functions
    57 alpha electrons       57 beta electrons
       nuclear repulsion energy      1090.4266937281 Hartrees.
 NAtoms=    9 NActive=    9 NUniq=    9 SFac= 7.50D-01 NAtFMM=   80 NAOKFM=F Big=F
 One-electron integrals computed using PRISM.
 NBasis=   199 RedAO= T  NBF=   199
 NBsUse=   199 1.00D-06 NBFU=   199
 Harris functional with IExCor=  402 diagonalized for initial guess.
 ExpMin= 7.10D-03 ExpMax= 3.53D+04 ExpMxC= 5.30D+03 IAcc=3 IRadAn=         5 AccDes= 0.00D+00
 HarFok:  IExCor= 402 AccDes= 0.00D+00 IRadAn=         5 IDoV=1
 ScaDFX=  1.000000  1.000000  1.000000  1.000000
 Initial guess orbital symmetries:
       Occupied  (A) (A) (A) (A) (A) (A) (A) (A) (A) (A) (A) (A)
                 (A) (A) (A) (A) (A) (A) (A) (A) (A) (A) (A) (A)
                 (A) (A) (A) (A) (A) (A) (A) (A) (A) (A) (A) (A)
                 (A) (A) (A) (A) (A) (A) (A) (A) (A) (A) (A) (A)
                 (A) (A) (A) (A) (A) (A) (A) (A) (A)
       Virtual   (A) (A) (A) (A) (A) (A) (A) (A) (A) (A) (A) (A)
                 (A) (A) (A) (A) (A) (A) (A) (A) (A) (A) (A) (A)
                 (A) (A) (A) (A) (A) (A) (A) (A) (A) (A) (A) (A)
                 (A) (A) (A) (A) (A) (A) (A) (A) (A) (A) (A) (A)
                 (A) (A) (A) (A) (A) (A) (A) (A) (A) (A) (A) (A)
                 (A) (A) (A) (A) (A) (A) (A) (A) (A) (A) (A) (A)
                 (A) (A) (A) (A) (A) (A) (A) (A) (A) (A) (A) (A)
                 (A) (A) (A) (A) (A) (A) (A) (A) (A) (A) (A) (A)
                 (A) (A) (A) (A) (A) (A) (A) (A) (A) (A) (A) (A)
                 (A) (A) (A) (A) (A) (A) (A) (A) (A) (A) (A) (A)
                 (A) (A) (A) (A) (A) (A) (A) (A) (A) (A) (A) (A)
                 (A) (A) (A) (A) (A) (A) (A) (A) (A) (A)
 The electronic state of the initial guess is 1-A.
 Requested convergence on RMS density matrix=1.00D-04 within 128 cycles.
 Requested convergence on MAX density matrix=1.00D-02.
 Requested convergence on             energy=1.00D-02.
 No special actions if energy rises.
 EnCoef did     3 forward-backward iterations
 SCF Done:  E(RB+HF-LYP) =  -2750.19417606     A.U. after    9 cycles
             Convg  =    0.4248D-04             -V/T =  2.0029
             S**2   =   0.0000

 **********************************************************************

            Population analysis using the SCF density.

 **********************************************************************

 Orbital symmetries:
       Occupied  (A) (A) (A) (A) (A) (A) (A) (A) (A) (A) (A) (A)
                 (A) (A) (A) (A) (A) (A) (A) (A) (A) (A) (A) (A)
                 (A) (A) (A) (A) (A) (A) (A) (A) (A) (A) (A) (A)
                 (A) (A) (A) (A) (A) (A) (A) (A) (A) (A) (A) (A)
                 (A) (A) (A) (A) (A) (A) (A) (A) (A)
       Virtual   (A) (A) (A) (A) (A) (A) (A) (A) (A) (A) (A) (A)
                 (A) (A) (A) (A) (A) (A) (A) (A) (A) (A) (A) (A)
                 (A) (A) (A) (A) (A) (A) (A) (A) (A) (A) (A) (A)
                 (A) (A) (A) (A) (A) (A) (A) (A) (A) (A) (A) (A)
                 (A) (A) (A) (A) (A) (A) (A) (A) (A) (A) (A) (A)
                 (A) (A) (A) (A) (A) (A) (A) (A) (A) (A) (A) (A)
                 (A) (A) (A) (A) (A) (A) (A) (A) (A) (A) (A) (A)
                 (A) (A) (A) (A) (A) (A) (A) (A) (A) (A) (A) (A)
                 (A) (A) (A) (A) (A) (A) (A) (A) (A) (A) (A) (A)
                 (A) (A) (A) (A) (A) (A) (A) (A) (A) (A) (A) (A)
                 (A) (A) (A) (A) (A) (A) (A) (A) (A) (A) (A) (A)
                 (A) (A) (A) (A) (A) (A) (A) (A) (A) (A)
 The electronic state is 1-A.
 Alpha  occ. eigenvalues -- -145.51665-145.51603-145.48699 -77.27306 -19.29095
 Alpha  occ. eigenvalues --  -19.23584 -19.23490 -19.23309 -19.17358 -15.58478
 Alpha  occ. eigenvalues --  -15.58429 -15.55548 -12.71691 -12.71654 -12.71636
 Alpha  occ. eigenvalues --  -12.71605 -12.71601 -12.71556 -12.68776 -12.68742
 Alpha  occ. eigenvalues --  -12.68642  -6.72404  -4.88810  -4.88695  -4.88162
 Alpha  occ. eigenvalues --   -1.95727  -1.95671  -1.92859  -1.23981  -1.23553
 Alpha  occ. eigenvalues --   -1.23420  -1.23068  -1.23031  -1.22531  -1.21066
 Alpha  occ. eigenvalues --   -1.20535  -1.19964  -1.13356  -1.07584  -1.03126
 Alpha  occ. eigenvalues --   -0.92332  -0.90597  -0.65540  -0.55306  -0.53395
 Alpha  occ. eigenvalues --   -0.51719  -0.49585  -0.46927  -0.44137  -0.42340
 Alpha  occ. eigenvalues --   -0.40309  -0.37810  -0.37644  -0.36838  -0.35236
 Alpha  occ. eigenvalues --   -0.33508  -0.32032
 Alpha virt. eigenvalues --   -0.20906  -0.19066  -0.17411  -0.13460  -0.12276
 Alpha virt. eigenvalues --   -0.11630  -0.10500  -0.10039  -0.08921  -0.08221
 Alpha virt. eigenvalues --   -0.07987  -0.06859  -0.06591  -0.06167  -0.05828
 Alpha virt. eigenvalues --   -0.05027  -0.04876  -0.04698  -0.04539  -0.04332
 Alpha virt. eigenvalues --   -0.04009  -0.03631  -0.03310  -0.03184  -0.02970
 Alpha virt. eigenvalues --   -0.02967  -0.02000  -0.00871   0.00729   0.01602
 Alpha virt. eigenvalues --    0.01797   0.02563   0.03294   0.04140   0.04756
 Alpha virt. eigenvalues --    0.04939   0.05315   0.05709   0.05828   0.06039
 Alpha virt. eigenvalues --    0.06391   0.06752   0.07238   0.07599   0.08125
 Alpha virt. eigenvalues --    0.08944   0.09518   0.09872   0.10454   0.11385
 Alpha virt. eigenvalues --    0.13097   0.14207   0.14822   0.17084   0.17797
 Alpha virt. eigenvalues --    0.18448   0.19732   0.20386   0.21060   0.22365
 Alpha virt. eigenvalues --    0.22977   0.24028   0.24367   0.26024   0.26746
 Alpha virt. eigenvalues --    0.28251   0.29328   0.31428   0.33103   0.33389
 Alpha virt. eigenvalues --    0.34387   0.35337   0.35636   0.37007   0.38659
 Alpha virt. eigenvalues --    0.40215   0.42010   0.43856   0.49213   0.51874
 Alpha virt. eigenvalues --    0.52349   0.57971   0.61338   0.64232   0.65852
 Alpha virt. eigenvalues --    0.78188   0.83738   0.86152   0.90814   0.94387
 Alpha virt. eigenvalues --    1.09159   1.11337   1.13661   1.15713   1.15909
 Alpha virt. eigenvalues --    1.17796   1.19001   1.19224   1.21809   1.21922
 Alpha virt. eigenvalues --    1.23171   1.24333   1.28700   1.31214   1.33714
 Alpha virt. eigenvalues --    1.36909   1.51250   1.53381   1.54887   1.57604
 Alpha virt. eigenvalues --    1.60300   1.63707   1.67877   1.70929   1.73727
 Alpha virt. eigenvalues --    1.75138   1.80596   1.82481   1.84077   1.84819
 Alpha virt. eigenvalues --    1.85773   1.86540   1.88277   1.90431   1.91818
 Alpha virt. eigenvalues --    1.92708   1.97224   1.98871   2.01429   2.10315
 Alpha virt. eigenvalues --    2.15483   2.24678   2.32316   2.48618   2.57912
 Alpha virt. eigenvalues --    3.09298   3.50948   3.99638   4.07011   4.15175
 Alpha virt. eigenvalues --    4.23973   4.36672
          Condensed to atoms (all electrons):
              1          2          3          4          5          6
     1  O    8.597614  -0.112149  -0.022229  -0.061617   0.085971   0.007378
     2  O   -0.112149   8.557891   0.174366  -0.066013   0.010022   0.030896
     3  Ca  -0.022229   0.174366  18.369305  -0.051185   0.013832   0.054936
     4  P   -0.061617  -0.066013  -0.051185  14.408433  -0.144580  -0.153122
     5  O    0.085971   0.010022   0.013832  -0.144580   8.848126   0.037846
     6  O    0.007378   0.030896   0.054936  -0.153122   0.037846   8.930905
     7  Ca   0.012718   0.006779  -0.054349   0.019828   0.067617   0.064465
     8  Ca   0.064189  -0.022553  -0.010413  -0.011028   0.053872   0.015982
     9  O    0.019253  -0.010448   0.108579  -0.042515   0.028216   0.029807
              7          8          9
     1  O    0.012718   0.064189   0.019253
     2  O    0.006779  -0.022553  -0.010448
     3  Ca  -0.054349  -0.010413   0.108579
     4  P    0.019828  -0.011028  -0.042515
     5  O    0.067617   0.053872   0.028216
     6  O    0.064465   0.015982   0.029807
     7  Ca  18.391325  -0.071209   0.133747
     8  Ca  -0.071209  18.353413   0.134363
     9  O    0.133747   0.134363   8.860485
 Mulliken atomic charges:
              1
     1  O   -0.591127
     2  O   -0.568791
     3  Ca   1.417158
     4  P    1.101798
     5  O   -1.000921
     6  O   -1.019092
     7  Ca   1.429080
     8  Ca   1.493382
     9  O   -1.261486
 Sum of Mulliken charges=   1.00000
 Atomic charges with hydrogens summed into heavy atoms:
              1
     1  O   -0.591127
     2  O   -0.568791
     3  Ca   1.417158
     4  P    1.101798
     5  O   -1.000921
     6  O   -1.019092
     7  Ca   1.429080
     8  Ca   1.493382
     9  O   -1.261486
 Sum of Mulliken charges=   1.00000
 Electronic spatial extent (au):  <R**2>=  1781.8183
 Charge=     1.0000 electrons
 Dipole moment (field-independent basis, Debye):
    X=     6.9485    Y=    -0.0922    Z=    -8.5276  Tot=    11.0005
 Quadrupole moment (field-independent basis, Debye-Ang):
   XX=   -58.4177   YY=   -40.8651   ZZ=   -88.3348
   XY=     0.2903   XZ=     9.1189   YZ=    -0.1776
 Traceless Quadrupole moment (field-independent basis, Debye-Ang):
   XX=     4.1215   YY=    21.6741   ZZ=   -25.7956
   XY=     0.2903   XZ=     9.1189   YZ=    -0.1776
 Octapole moment (field-independent basis, Debye-Ang**2):
  XXX=   107.1455  YYY=    51.6212  ZZZ=    -6.0724  XYY=    -4.3490
  XXY=   -53.4012  XXZ=   -40.8392  XZZ=   -18.2098  YZZ=    -1.6603
  YYZ=   -56.4377  XYZ=   -12.4977
 Hexadecapole moment (field-independent basis, Debye-Ang**3):
 XXXX=  -740.9103 YYYY=  -407.1891 ZZZZ=  -730.3024 XXXY=   -30.7473
 XXXZ=    27.2948 YYYX=    19.0160 YYYZ=   -19.2104 ZZZX=    44.1971
 ZZZY=     2.7065 XXYY=  -182.7092 XXZZ=  -239.9189 YYZZ=  -179.9481
 XXYZ=    16.8341 YYXZ=    12.9711 ZZXY=     7.5374
 N-N= 1.090426693728D+03 E-N=-8.681363195818D+03  KE= 2.742204622529D+03
 Merz-Kollman atomic radii used.
 Read replacement radii for each type of atom:
 Rad(20) =   1.188000000000D+00
 Atom Element Radius
    1     8    1.40
    2     8    1.40
    3    20    1.19
    4    15    1.80
    5     8    1.40
    6     8    1.40
    7    20    1.19
    8    20    1.19
    9     8    1.40

 **********************************************************************

            Electrostatic Properties Using The SCF Density

 **********************************************************************

       Atomic Center    1 is at  -1.261280  0.754831  0.701339
       Atomic Center    2 is at  -2.562180  0.080792  0.389239
       Atomic Center    3 is at  -1.282671 -1.229699 -0.922831
       Atomic Center    4 is at  -0.046060 -0.056040  1.763429
       Atomic Center    5 is at   1.157951  0.879289  1.118359
       Atomic Center    6 is at   0.170069 -1.449060  0.924759
       Atomic Center    7 is at   2.035029 -0.776012 -0.272671
       Atomic Center    8 is at   0.080851  1.946340 -0.699961
       Atomic Center    9 is at   0.498780 -0.012350 -1.701461
     730 points will be used for fitting atomic charges
 Fitting point charges to eletrostatic potential
 Charges from ESP fit, RMS=   0.00539 RRMS=   0.03347:
 Charge=   1.00000 Dipole=     7.1246    -0.0218    -8.6872 Tot=    11.2351
              1
     1  O   -0.411836
     2  O   -0.634202
     3  Ca   1.645569
     4  P    0.550001
     5  O   -0.931757
     6  O   -0.902067
     7  Ca   1.661842
     8  Ca   1.640870
     9  O   -1.618419
 -----------------------------------------------------------------

              Electrostatic Properties (Atomic Units)

 -----------------------------------------------------------------
    Center     Electric         -------- Electric Field --------
               Potential          X             Y             Z
 -----------------------------------------------------------------
    1 Atom    -22.175715
    2 Atom    -22.239556
    3 Atom    -80.054081
    4 Atom    -53.943241
    5 Atom    -22.225578
    6 Atom    -22.231346
    7 Atom    -80.024950
    8 Atom    -80.024268
    9 Atom    -22.289708
 -----------------------------------------------------------------
 1\1\GINC-N033\SP\RB3LYP\6-31+G(d,p)\Ca3O5P1(1+)\TIMN\12-Jun-2015\0\\# 
 b3lyp/6-31+G(d,p) int=ultrafine pop=(ReadRadii,MK)\\mol_17.24.24.pdbcc
 c_plusQ.z58279.zip.xyz\\1,1\O,0,-1.26128,0.75483,0.70134\O,0,-2.56218,
 0.08079,0.38924\Ca,0,-1.28267,-1.2297,-0.92283\P,0,-0.04606,-0.05604,1
 .76343\O,0,1.15795,0.87929,1.11836\O,0,0.17007,-1.44906,0.92476\Ca,0,2
 .03503,-0.77601,-0.27267\Ca,0,0.08085,1.94634,-0.69996\O,0,0.49878,-0.
 01235,-1.70146\\Version=EM64T-G03RevE.01\State=1-A\HF=-2750.1941761\RM
 SD=4.248e-05\Thermal=0.\Dipole=2.7337553,-0.0362838,-3.355032\PG=C01 [
 X(Ca3O5P1)]\\@


 AND THIS OUR LIFE, EXEMPT FROM PUBLIC HAUNT,
 FINDS TONGUES IN TREES, BOOKS IN THE RUNNING BROOKS,
 SERMONS IN STONES, AND GOOD IN EVERYTHING.
 I WOULD NOT CHANGE IT. -- W. SHAKESPEARE
 AS YOU LIKE IT, ACT II, SCENE 1.
 Job cpu time:  0 days  0 hours  2 minutes 29.1 seconds.
 File lengths (MBytes):  RWF=     36 Int=      0 D2E=      0 Chk=     11 Scr=      1
 Normal termination of Gaussian 03 at Fri Jun 12 17:55:41 2015.
