 Entering Gaussian System, Link 0=/home/timn/tmp/g03.e01/g03
 Input=mol_17.29.51.pdb_plusQ.z58634.zip.xyz.gjf
 Output=mol_17.29.51.pdb_plusQ.z58634.zip.xyz.out
 Initial command:
 /home/timn/tmp/g03.e01/l1.exe /home/timn/tmp/g03.e01/Gau-14897.inp -scrdir=/home/timn/tmp/g03.e01/
 Default is to use a total of   2 processors:
                                2 via shared-memory
                                1 via Linda
 Entering Link 1 = /home/timn/tmp/g03.e01/l1.exe PID=     14898.
  
 Copyright (c) 1988,1990,1992,1993,1995,1998,2003,2004,2007, Gaussian, Inc.
                  All Rights Reserved.
  
 This is the Gaussian(R) 03 program.  It is based on the
 the Gaussian(R) 98 system (copyright 1998, Gaussian, Inc.),
 the Gaussian(R) 94 system (copyright 1995, Gaussian, Inc.),
 the Gaussian 92(TM) system (copyright 1992, Gaussian, Inc.),
 the Gaussian 90(TM) system (copyright 1990, Gaussian, Inc.),
 the Gaussian 88(TM) system (copyright 1988, Gaussian, Inc.),
 the Gaussian 86(TM) system (copyright 1986, Carnegie Mellon
 University), and the Gaussian 82(TM) system (copyright 1983,
 Carnegie Mellon University). Gaussian is a federally registered
 trademark of Gaussian, Inc.
  
 This software contains proprietary and confidential information,
 including trade secrets, belonging to Gaussian, Inc.
  
 This software is provided under written license and may be
 used, copied, transmitted, or stored only in accord with that
 written license.
  
 The following legend is applicable only to US Government
 contracts under FAR:
  
                    RESTRICTED RIGHTS LEGEND
  
 Use, reproduction and disclosure by the US Government is
 subject to restrictions as set forth in subparagraphs (a)
 and (c) of the Commercial Computer Software - Restricted
 Rights clause in FAR 52.227-19.
  
 Gaussian, Inc.
 340 Quinnipiac St., Bldg. 40, Wallingford CT 06492
  
  
 ---------------------------------------------------------------
 Warning -- This program may not be used in any manner that
 competes with the business of Gaussian, Inc. or will provide
 assistance to any competitor of Gaussian, Inc.  The licensee
 of this program is prohibited from giving any competitor of
 Gaussian, Inc. access to this program.  By using this program,
 the user acknowledges that Gaussian, Inc. is engaged in the
 business of creating and licensing software in the field of
 computational chemistry and represents and warrants to the
 licensee that it is not a competitor of Gaussian, Inc. and that
 it will not use this program in any manner prohibited above.
 ---------------------------------------------------------------
  

 Cite this work as:
 Gaussian 03, Revision E.01,
 M. J. Frisch, G. W. Trucks, H. B. Schlegel, G. E. Scuseria, 
 M. A. Robb, J. R. Cheeseman, J. A. Montgomery, Jr., T. Vreven, 
 K. N. Kudin, J. C. Burant, J. M. Millam, S. S. Iyengar, J. Tomasi, 
 V. Barone, B. Mennucci, M. Cossi, G. Scalmani, N. Rega, 
 G. A. Petersson, H. Nakatsuji, M. Hada, M. Ehara, K. Toyota, 
 R. Fukuda, J. Hasegawa, M. Ishida, T. Nakajima, Y. Honda, O. Kitao, 
 H. Nakai, M. Klene, X. Li, J. E. Knox, H. P. Hratchian, J. B. Cross, 
 V. Bakken, C. Adamo, J. Jaramillo, R. Gomperts, R. E. Stratmann, 
 O. Yazyev, A. J. Austin, R. Cammi, C. Pomelli, J. W. Ochterski, 
 P. Y. Ayala, K. Morokuma, G. A. Voth, P. Salvador, J. J. Dannenberg, 
 V. G. Zakrzewski, S. Dapprich, A. D. Daniels, M. C. Strain, 
 O. Farkas, D. K. Malick, A. D. Rabuck, K. Raghavachari, 
 J. B. Foresman, J. V. Ortiz, Q. Cui, A. G. Baboul, S. Clifford, 
 J. Cioslowski, B. B. Stefanov, G. Liu, A. Liashenko, P. Piskorz, 
 I. Komaromi, R. L. Martin, D. J. Fox, T. Keith, M. A. Al-Laham, 
 C. Y. Peng, A. Nanayakkara, M. Challacombe, P. M. W. Gill, 
 B. Johnson, W. Chen, M. W. Wong, C. Gonzalez, and J. A. Pople, 
 Gaussian, Inc., Wallingford CT, 2004.
 
 ******************************************
 Gaussian 03:  EM64T-G03RevE.01 11-Sep-2007
                12-Jun-2015 
 ******************************************
 %nproc=2
 Will use up to    2 processors via shared memory.
 Default route:  MP2=Direct MaxDisk=2000MB
 ----------------------------------------------------
 # b3lyp/6-31+G(d,p) int=ultrafine pop=(ReadRadii,MK)
 ----------------------------------------------------

 Warning!  SCF SP cutoffs with diffuse functions may be unreliable.
 Consider SCF=Tight

 1/38=1/1;
 2/17=6,18=5,40=1/2;
 3/5=1,6=6,7=111,11=2,16=1,25=1,30=1,74=-5,75=5/1,2,3;
 4//1;
 5/5=2,32=1,38=5/2;
 6/7=2,8=2,9=2,10=2,15=8,20=101,28=1/1,2;
 99/5=1,9=1/99;
 -------------------------------------
 mol_17.29.51.pdb_plusQ.z58634.zip.xyz
 -------------------------------------
 Symbolic Z-matrix:
 Charge =  1 Multiplicity = 1
 O                     4.30876   1.24455  -0.00071 
 P                     5.23709   0.0046   -0.00009 
 O                     4.31633  -1.2411    0.00022 
 Ca                    2.28547  -0.0046   -0.00001 
 O                     0.16024  -0.00313   0.78606 
 O                     0.16008  -0.00461  -0.78567 
 Ca                   -1.93641   0.00168   0.00042 
 O                    -4.13539   0.00161   0.00006 
 Ca                   -6.20089   0.00054  -0.00033 
 
                          Input orientation:                          
 ---------------------------------------------------------------------
 Center     Atomic     Atomic              Coordinates (Angstroms)
 Number     Number      Type              X           Y           Z
 ---------------------------------------------------------------------
    1          8             0        4.308760    1.244550   -0.000710
    2         15             0        5.237090    0.004600   -0.000090
    3          8             0        4.316330   -1.241100    0.000220
    4         20             0        2.285470   -0.004600   -0.000010
    5          8             0        0.160240   -0.003130    0.786060
    6          8             0        0.160080   -0.004610   -0.785670
    7         20             0       -1.936410    0.001680    0.000420
    8          8             0       -4.135390    0.001610    0.000060
    9         20             0       -6.200890    0.000540   -0.000330
 ---------------------------------------------------------------------
                    Distance matrix (angstroms):
                    1          2          3          4          5
     1  O    0.000000
     2  P    1.548959   0.000000
     3  O    2.485662   1.549054   0.000000
     4  Ca   2.377831   2.951634   2.377672   0.000000
     5  O    4.402946   5.137363   4.407176   2.265946   0.000000
     6  O    4.403193   5.137436   4.406920   2.265953   1.571731
     7  Ca   6.367643   7.173501   6.375050   4.221885   2.239016
     8  O    8.535137   9.372480   8.542593   6.420863   4.366950
     9  Ca  10.583020  11.437981  10.590259   8.486362   6.409555
                    6          7          8          9
     6  O    0.000000
     7  Ca   2.239028   0.000000
     8  O    4.366746   2.198980   0.000000
     9  Ca   6.409269   4.264480   2.065500   0.000000
 Stoichiometry    Ca3O5P(1+)
 Framework group  C1[X(Ca3O5P)]
 Deg. of freedom    21
 Full point group                 C1
 Largest Abelian subgroup         C1      NOp   1
 Largest concise Abelian subgroup C1      NOp   1
                         Standard orientation:                         
 ---------------------------------------------------------------------
 Center     Atomic     Atomic              Coordinates (Angstroms)
 Number     Number      Type              X           Y           Z
 ---------------------------------------------------------------------
    1          8             0        4.308761    1.244551   -0.000709
    2         15             0        5.237091    0.004601   -0.000089
    3          8             0        4.316331   -1.241099    0.000221
    4         20             0        2.285471   -0.004599   -0.000009
    5          8             0        0.160241   -0.003130    0.786061
    6          8             0        0.160081   -0.004610   -0.785669
    7         20             0       -1.936409    0.001680    0.000421
    8          8             0       -4.135389    0.001610    0.000061
    9         20             0       -6.200889    0.000539   -0.000329
 ---------------------------------------------------------------------
 Rotational constants (GHZ):      7.3062670      0.1390830      0.1379570
 Standard basis: 6-31+G(d,p) (6D, 7F)
 There are   199 symmetry adapted basis functions of A   symmetry.
 Integral buffers will be    131072 words long.
 Raffenetti 2 integral format.
 Two-electron integral symmetry is turned on.
   199 basis functions,   456 primitive gaussians,   199 cartesian basis functions
    57 alpha electrons       57 beta electrons
       nuclear repulsion energy       800.6181950330 Hartrees.
 NAtoms=    9 NActive=    9 NUniq=    9 SFac= 7.50D-01 NAtFMM=   80 NAOKFM=F Big=F
 One-electron integrals computed using PRISM.
 NBasis=   199 RedAO= T  NBF=   199
 NBsUse=   199 1.00D-06 NBFU=   199
 Harris functional with IExCor=  402 diagonalized for initial guess.
 ExpMin= 7.10D-03 ExpMax= 3.53D+04 ExpMxC= 5.30D+03 IAcc=3 IRadAn=         5 AccDes= 0.00D+00
 HarFok:  IExCor= 402 AccDes= 0.00D+00 IRadAn=         5 IDoV=1
 ScaDFX=  1.000000  1.000000  1.000000  1.000000
 Initial guess orbital symmetries:
       Occupied  (A) (A) (A) (A) (A) (A) (A) (A) (A) (A) (A) (A)
                 (A) (A) (A) (A) (A) (A) (A) (A) (A) (A) (A) (A)
                 (A) (A) (A) (A) (A) (A) (A) (A) (A) (A) (A) (A)
                 (A) (A) (A) (A) (A) (A) (A) (A) (A) (A) (A) (A)
                 (A) (A) (A) (A) (A) (A) (A) (A) (A)
       Virtual   (A) (A) (A) (A) (A) (A) (A) (A) (A) (A) (A) (A)
                 (A) (A) (A) (A) (A) (A) (A) (A) (A) (A) (A) (A)
                 (A) (A) (A) (A) (A) (A) (A) (A) (A) (A) (A) (A)
                 (A) (A) (A) (A) (A) (A) (A) (A) (A) (A) (A) (A)
                 (A) (A) (A) (A) (A) (A) (A) (A) (A) (A) (A) (A)
                 (A) (A) (A) (A) (A) (A) (A) (A) (A) (A) (A) (A)
                 (A) (A) (A) (A) (A) (A) (A) (A) (A) (A) (A) (A)
                 (A) (A) (A) (A) (A) (A) (A) (A) (A) (A) (A) (A)
                 (A) (A) (A) (A) (A) (A) (A) (A) (A) (A) (A) (A)
                 (A) (A) (A) (A) (A) (A) (A) (A) (A) (A) (A) (A)
                 (A) (A) (A) (A) (A) (A) (A) (A) (A) (A) (A) (A)
                 (A) (A) (A) (A) (A) (A) (A) (A) (A) (A)
 The electronic state of the initial guess is 1-A.
 Requested convergence on RMS density matrix=1.00D-04 within 128 cycles.
 Requested convergence on MAX density matrix=1.00D-02.
 Requested convergence on             energy=1.00D-02.
 No special actions if energy rises.
 EnCoef did     2 forward-backward iterations
 EnCoef did     3 forward-backward iterations
 EnCoef did     2 forward-backward iterations
 SCF Done:  E(RB+HF-LYP) =  -2750.15714437     A.U. after    9 cycles
             Convg  =    0.3279D-04             -V/T =  2.0029
             S**2   =   0.0000

 **********************************************************************

            Population analysis using the SCF density.

 **********************************************************************

 Orbital symmetries:
       Occupied  (A) (A) (A) (A) (A) (A) (A) (A) (A) (A) (A) (A)
                 (A) (A) (A) (A) (A) (A) (A) (A) (A) (A) (A) (A)
                 (A) (A) (A) (A) (A) (A) (A) (A) (A) (A) (A) (A)
                 (A) (A) (A) (A) (A) (A) (A) (A) (A) (A) (A) (A)
                 (A) (A) (A) (A) (A) (A) (A) (A) (A)
       Virtual   (A) (A) (A) (A) (A) (A) (A) (A) (A) (A) (A) (A)
                 (A) (A) (A) (A) (A) (A) (A) (A) (A) (A) (A) (A)
                 (A) (A) (A) (A) (A) (A) (A) (A) (A) (A) (A) (A)
                 (A) (A) (A) (A) (A) (A) (A) (A) (A) (A) (A) (A)
                 (A) (A) (A) (A) (A) (A) (A) (A) (A) (A) (A) (A)
                 (A) (A) (A) (A) (A) (A) (A) (A) (A) (A) (A) (A)
                 (A) (A) (A) (A) (A) (A) (A) (A) (A) (A) (A) (A)
                 (A) (A) (A) (A) (A) (A) (A) (A) (A) (A) (A) (A)
                 (A) (A) (A) (A) (A) (A) (A) (A) (A) (A) (A) (A)
                 (A) (A) (A) (A) (A) (A) (A) (A) (A) (A) (A) (A)
                 (A) (A) (A) (A) (A) (A) (A) (A) (A) (A) (A) (A)
                 (A) (A) (A) (A) (A) (A) (A) (A) (A) (A)
 The electronic state is 1-A.
 Alpha  occ. eigenvalues -- -145.59175-145.44308-145.42786 -77.22103 -19.20697
 Alpha  occ. eigenvalues --  -19.20692 -19.20151 -19.20136 -19.17587 -15.65933
 Alpha  occ. eigenvalues --  -15.51286 -15.49706 -12.79153 -12.79153 -12.79017
 Alpha  occ. eigenvalues --  -12.64570 -12.64513 -12.64273 -12.62949 -12.62934
 Alpha  occ. eigenvalues --  -12.62749  -6.67867  -4.84300  -4.84049  -4.83668
 Alpha  occ. eigenvalues --   -2.02794  -1.88759  -1.87098  -1.30306  -1.30305
 Alpha  occ. eigenvalues --   -1.29393  -1.16874  -1.16860  -1.16597  -1.15115
 Alpha  occ. eigenvalues --   -1.14975  -1.14841  -1.06550  -1.02712  -1.00513
 Alpha  occ. eigenvalues --   -0.91599  -0.84462  -0.58775  -0.47525  -0.45970
 Alpha  occ. eigenvalues --   -0.45245  -0.44120  -0.43144  -0.41215  -0.37994
 Alpha  occ. eigenvalues --   -0.37251  -0.35812  -0.35753  -0.35744  -0.33528
 Alpha  occ. eigenvalues --   -0.32649  -0.28752
 Alpha virt. eigenvalues --   -0.26234  -0.16223  -0.16211  -0.15372  -0.12730
 Alpha virt. eigenvalues --   -0.12426  -0.09771  -0.09265  -0.08478  -0.08345
 Alpha virt. eigenvalues --   -0.06346  -0.06004  -0.05584  -0.05568  -0.04794
 Alpha virt. eigenvalues --   -0.04295  -0.04211  -0.03480  -0.03460  -0.02812
 Alpha virt. eigenvalues --   -0.02739  -0.01862  -0.01583  -0.01420  -0.01325
 Alpha virt. eigenvalues --   -0.00654  -0.00066   0.00988   0.00989   0.01094
 Alpha virt. eigenvalues --    0.01105   0.01209   0.01955   0.03308   0.04466
 Alpha virt. eigenvalues --    0.04576   0.04653   0.05467   0.06597   0.07088
 Alpha virt. eigenvalues --    0.07558   0.08433   0.08471   0.08863   0.10130
 Alpha virt. eigenvalues --    0.10386   0.10664   0.10988   0.11073   0.12035
 Alpha virt. eigenvalues --    0.12699   0.14487   0.15977   0.16541   0.17278
 Alpha virt. eigenvalues --    0.17512   0.18646   0.19899   0.21384   0.21624
 Alpha virt. eigenvalues --    0.22316   0.23176   0.23637   0.25886   0.26379
 Alpha virt. eigenvalues --    0.26744   0.27669   0.30414   0.31043   0.33066
 Alpha virt. eigenvalues --    0.33716   0.35191   0.37492   0.38925   0.40929
 Alpha virt. eigenvalues --    0.41917   0.43034   0.43056   0.47693   0.49998
 Alpha virt. eigenvalues --    0.53567   0.56692   0.62278   0.62403   0.63072
 Alpha virt. eigenvalues --    0.70122   0.81000   0.92602   0.94030   1.00636
 Alpha virt. eigenvalues --    1.10573   1.11204   1.11655   1.11870   1.13687
 Alpha virt. eigenvalues --    1.15043   1.17913   1.18340   1.20293   1.23463
 Alpha virt. eigenvalues --    1.23488   1.25526   1.25736   1.32524   1.36697
 Alpha virt. eigenvalues --    1.42850   1.42946   1.52015   1.52263   1.54097
 Alpha virt. eigenvalues --    1.57089   1.62800   1.73649   1.75524   1.75923
 Alpha virt. eigenvalues --    1.76136   1.76404   1.77027   1.79594   1.81755
 Alpha virt. eigenvalues --    1.82411   1.82677   1.83781   1.89047   1.92798
 Alpha virt. eigenvalues --    1.93521   1.96679   1.97031   2.15104   2.16820
 Alpha virt. eigenvalues --    2.21083   2.23848   2.24756   2.64762   2.76047
 Alpha virt. eigenvalues --    3.05424   3.45355   3.90945   3.95117   3.96149
 Alpha virt. eigenvalues --    4.06482   4.11298
          Condensed to atoms (all electrons):
              1          2          3          4          5          6
     1  O    8.650088   0.023686  -0.095458   0.048219  -0.000176  -0.000175
     2  P    0.023686  14.657017   0.023251  -0.092359   0.001966   0.001968
     3  O   -0.095458   0.023251   8.649875   0.048548  -0.000157  -0.000156
     4  Ca   0.048219  -0.092359   0.048548  18.478100   0.102157   0.102135
     5  O   -0.000176   0.001966  -0.000157   0.102157   8.552910  -0.073961
     6  O   -0.000175   0.001968  -0.000156   0.102135  -0.073961   8.552954
     7  Ca   0.007607  -0.032668   0.007605  -0.105710   0.094904   0.094892
     8  O    0.000000   0.000003   0.000000   0.002287   0.000237   0.000239
     9  Ca  -0.000135   0.001625  -0.000143  -0.069486  -0.002944  -0.002927
              7          8          9
     1  O    0.007607   0.000000  -0.000135
     2  P   -0.032668   0.000003   0.001625
     3  O    0.007605   0.000000  -0.000143
     4  Ca  -0.105710   0.002287  -0.069486
     5  O    0.094904   0.000237  -0.002944
     6  O    0.094892   0.000239  -0.002927
     7  Ca  18.394814   0.178543  -0.028089
     8  O    0.178543   8.732602   0.258481
     9  Ca  -0.028089   0.258481  18.344020
 Mulliken atomic charges:
              1
     1  O   -0.633657
     2  P    0.415510
     3  O   -0.633365
     4  Ca   1.486109
     5  O   -0.674936
     6  O   -0.674969
     7  Ca   1.388101
     8  O   -1.172390
     9  Ca   1.499597
 Sum of Mulliken charges=   1.00000
 Atomic charges with hydrogens summed into heavy atoms:
              1
     1  O   -0.633657
     2  P    0.415510
     3  O   -0.633365
     4  Ca   1.486109
     5  O   -0.674936
     6  O   -0.674969
     7  Ca   1.388101
     8  O   -1.172390
     9  Ca   1.499597
 Sum of Mulliken charges=   1.00000
 Electronic spatial extent (au):  <R**2>=  6562.9968
 Charge=     1.0000 electrons
 Dipole moment (field-independent basis, Debye):
    X=   -31.9307    Y=    -0.0020    Z=    -0.0002  Tot=    31.9307
 Quadrupole moment (field-independent basis, Debye-Ang):
   XX=   121.2169   YY=   -84.6761   ZZ=   -77.6104
   XY=    -0.0493   XZ=     0.0140   YZ=     0.0002
 Traceless Quadrupole moment (field-independent basis, Debye-Ang):
   XX=   134.9067   YY=   -70.9862   ZZ=   -63.9205
   XY=    -0.0493   XZ=     0.0140   YZ=     0.0002
 Octapole moment (field-independent basis, Debye-Ang**2):
  XXX= -1585.2157  YYY=    -0.0800  ZZZ=    -0.0033  XYY=   -71.3439
  XXY=     0.1028  XXZ=    -0.0850  XZZ=   -23.1539  YZZ=     0.0057
  YYZ=     0.0023  XYZ=     0.0178
 Hexadecapole moment (field-independent basis, Debye-Ang**3):
 XXXX=  2246.3913 YYYY=  -219.7088 ZZZZ=  -130.0685 XXXY=     0.7683
 XXXZ=     0.6657 YYYX=    -0.3943 YYYZ=     0.0003 ZZZX=     0.0248
 ZZZY=     0.0054 XXYY= -1353.6724 XXZZ= -1138.6031 YYZZ=   -57.8116
 XXYZ=     0.0749 YYXZ=     0.0187 ZZXY=    -0.0733
 N-N= 8.006181950330D+02 E-N=-8.105075304137D+03  KE= 2.742185413748D+03
 Merz-Kollman atomic radii used.
 Read replacement radii for each type of atom:
 Rad(20) =   1.188000000000D+00
 Atom Element Radius
    1     8    1.40
    2    15    1.80
    3     8    1.40
    4    20    1.19
    5     8    1.40
    6     8    1.40
    7    20    1.19
    8     8    1.40
    9    20    1.19

 **********************************************************************

            Electrostatic Properties Using The SCF Density

 **********************************************************************

       Atomic Center    1 is at   4.308761  1.244551 -0.000709
       Atomic Center    2 is at   5.237091  0.004601 -0.000089
       Atomic Center    3 is at   4.316331 -1.241099  0.000221
       Atomic Center    4 is at   2.285471 -0.004599 -0.000009
       Atomic Center    5 is at   0.160241 -0.003130  0.786061
       Atomic Center    6 is at   0.160081 -0.004610 -0.785669
       Atomic Center    7 is at  -1.936409  0.001680  0.000421
       Atomic Center    8 is at  -4.135389  0.001610  0.000061
       Atomic Center    9 is at  -6.200889  0.000539 -0.000329
    1003 points will be used for fitting atomic charges
 Fitting point charges to eletrostatic potential
 Charges from ESP fit, RMS=   0.00495 RRMS=   0.03632:
 Charge=   1.00000 Dipole=   -32.5542    -0.0001     0.0001 Tot=    32.5542
              1
     1  O   -0.694505
     2  P    0.516352
     3  O   -0.694278
     4  Ca   1.780273
     5  O   -0.910278
     6  O   -0.910243
     7  Ca   1.864438
     8  O   -1.626889
     9  Ca   1.675130
 -----------------------------------------------------------------

              Electrostatic Properties (Atomic Units)

 -----------------------------------------------------------------
    Center     Electric         -------- Electric Field --------
               Potential          X             Y             Z
 -----------------------------------------------------------------
    1 Atom    -22.264652
    2 Atom    -53.995099
    3 Atom    -22.264217
    4 Atom    -80.112822
    5 Atom    -22.262969
    6 Atom    -22.263004
    7 Atom    -80.097308
    8 Atom    -22.285108
    9 Atom    -79.949508
 -----------------------------------------------------------------
 1\1\GINC-N032\SP\RB3LYP\6-31+G(d,p)\Ca3O5P1(1+)\TIMN\12-Jun-2015\0\\# 
 b3lyp/6-31+G(d,p) int=ultrafine pop=(ReadRadii,MK)\\mol_17.29.51.pdb_p
 lusQ.z58634.zip.xyz\\1,1\O,0,4.30876,1.24455,-0.00071\P,0,5.23709,0.00
 46,-0.00009\O,0,4.31633,-1.2411,0.00022\Ca,0,2.28547,-0.0046,-0.00001\
 O,0,0.16024,-0.00313,0.78606\O,0,0.16008,-0.00461,-0.78567\Ca,0,-1.936
 41,0.00168,0.00042\O,0,-4.13539,0.00161,0.00006\Ca,0,-6.20089,0.00054,
 -0.00033\\Version=EM64T-G03RevE.01\State=1-A\HF=-2750.1571444\RMSD=3.2
 79e-05\Thermal=0.\Dipole=-12.5625116,-0.0007945,-0.0000782\PG=C01 [X(C
 a3O5P1)]\\@


 PICNIC:  A SNACK IN THE GRASS.
 Job cpu time:  0 days  0 hours  1 minutes 37.6 seconds.
 File lengths (MBytes):  RWF=     36 Int=      0 D2E=      0 Chk=     11 Scr=      1
 Normal termination of Gaussian 03 at Fri Jun 12 18:12:57 2015.
