 Entering Gaussian System, Link 0=/home/timn/tmp/g03.e01/g03
 Input=mol_17.29.25.pdb_plusQ.z58606.zip.xyz.gjf
 Output=mol_17.29.25.pdb_plusQ.z58606.zip.xyz.out
 Initial command:
 /home/timn/tmp/g03.e01/l1.exe /home/timn/tmp/g03.e01/Gau-13782.inp -scrdir=/home/timn/tmp/g03.e01/
 Default is to use a total of   2 processors:
                                2 via shared-memory
                                1 via Linda
 Entering Link 1 = /home/timn/tmp/g03.e01/l1.exe PID=     13783.
  
 Copyright (c) 1988,1990,1992,1993,1995,1998,2003,2004,2007, Gaussian, Inc.
                  All Rights Reserved.
  
 This is the Gaussian(R) 03 program.  It is based on the
 the Gaussian(R) 98 system (copyright 1998, Gaussian, Inc.),
 the Gaussian(R) 94 system (copyright 1995, Gaussian, Inc.),
 the Gaussian 92(TM) system (copyright 1992, Gaussian, Inc.),
 the Gaussian 90(TM) system (copyright 1990, Gaussian, Inc.),
 the Gaussian 88(TM) system (copyright 1988, Gaussian, Inc.),
 the Gaussian 86(TM) system (copyright 1986, Carnegie Mellon
 University), and the Gaussian 82(TM) system (copyright 1983,
 Carnegie Mellon University). Gaussian is a federally registered
 trademark of Gaussian, Inc.
  
 This software contains proprietary and confidential information,
 including trade secrets, belonging to Gaussian, Inc.
  
 This software is provided under written license and may be
 used, copied, transmitted, or stored only in accord with that
 written license.
  
 The following legend is applicable only to US Government
 contracts under FAR:
  
                    RESTRICTED RIGHTS LEGEND
  
 Use, reproduction and disclosure by the US Government is
 subject to restrictions as set forth in subparagraphs (a)
 and (c) of the Commercial Computer Software - Restricted
 Rights clause in FAR 52.227-19.
  
 Gaussian, Inc.
 340 Quinnipiac St., Bldg. 40, Wallingford CT 06492
  
  
 ---------------------------------------------------------------
 Warning -- This program may not be used in any manner that
 competes with the business of Gaussian, Inc. or will provide
 assistance to any competitor of Gaussian, Inc.  The licensee
 of this program is prohibited from giving any competitor of
 Gaussian, Inc. access to this program.  By using this program,
 the user acknowledges that Gaussian, Inc. is engaged in the
 business of creating and licensing software in the field of
 computational chemistry and represents and warrants to the
 licensee that it is not a competitor of Gaussian, Inc. and that
 it will not use this program in any manner prohibited above.
 ---------------------------------------------------------------
  

 Cite this work as:
 Gaussian 03, Revision E.01,
 M. J. Frisch, G. W. Trucks, H. B. Schlegel, G. E. Scuseria, 
 M. A. Robb, J. R. Cheeseman, J. A. Montgomery, Jr., T. Vreven, 
 K. N. Kudin, J. C. Burant, J. M. Millam, S. S. Iyengar, J. Tomasi, 
 V. Barone, B. Mennucci, M. Cossi, G. Scalmani, N. Rega, 
 G. A. Petersson, H. Nakatsuji, M. Hada, M. Ehara, K. Toyota, 
 R. Fukuda, J. Hasegawa, M. Ishida, T. Nakajima, Y. Honda, O. Kitao, 
 H. Nakai, M. Klene, X. Li, J. E. Knox, H. P. Hratchian, J. B. Cross, 
 V. Bakken, C. Adamo, J. Jaramillo, R. Gomperts, R. E. Stratmann, 
 O. Yazyev, A. J. Austin, R. Cammi, C. Pomelli, J. W. Ochterski, 
 P. Y. Ayala, K. Morokuma, G. A. Voth, P. Salvador, J. J. Dannenberg, 
 V. G. Zakrzewski, S. Dapprich, A. D. Daniels, M. C. Strain, 
 O. Farkas, D. K. Malick, A. D. Rabuck, K. Raghavachari, 
 J. B. Foresman, J. V. Ortiz, Q. Cui, A. G. Baboul, S. Clifford, 
 J. Cioslowski, B. B. Stefanov, G. Liu, A. Liashenko, P. Piskorz, 
 I. Komaromi, R. L. Martin, D. J. Fox, T. Keith, M. A. Al-Laham, 
 C. Y. Peng, A. Nanayakkara, M. Challacombe, P. M. W. Gill, 
 B. Johnson, W. Chen, M. W. Wong, C. Gonzalez, and J. A. Pople, 
 Gaussian, Inc., Wallingford CT, 2004.
 
 ******************************************
 Gaussian 03:  EM64T-G03RevE.01 11-Sep-2007
                12-Jun-2015 
 ******************************************
 %nproc=2
 Will use up to    2 processors via shared memory.
 Default route:  MP2=Direct MaxDisk=2000MB
 ----------------------------------------------------
 # b3lyp/6-31+G(d,p) int=ultrafine pop=(ReadRadii,MK)
 ----------------------------------------------------

 Warning!  SCF SP cutoffs with diffuse functions may be unreliable.
 Consider SCF=Tight

 1/38=1/1;
 2/17=6,18=5,40=1/2;
 3/5=1,6=6,7=111,11=2,16=1,25=1,30=1,74=-5,75=5/1,2,3;
 4//1;
 5/5=2,32=1,38=5/2;
 6/7=2,8=2,9=2,10=2,15=8,20=101,28=1/1,2;
 99/5=1,9=1/99;
 -------------------------------------
 mol_17.29.25.pdb_plusQ.z58606.zip.xyz
 -------------------------------------
 Symbolic Z-matrix:
 Charge =  1 Multiplicity = 1
 O                    -0.49928  -0.01589  -1.70136 
 Ca                    1.28505  -1.22874  -0.92252 
 O                     2.56138   0.08504   0.38973 
 O                     1.2599    0.75837   0.69999 
 P                     0.04738  -0.05341   1.76338 
 O                    -1.15944   0.87889   1.11711 
 Ca                   -0.08583   1.94578  -0.70227 
 O                    -0.16623  -1.4479    0.92694 
 Ca                   -2.03328  -0.78038  -0.27071 
 
                          Input orientation:                          
 ---------------------------------------------------------------------
 Center     Atomic     Atomic              Coordinates (Angstroms)
 Number     Number      Type              X           Y           Z
 ---------------------------------------------------------------------
    1          8             0       -0.499280   -0.015890   -1.701360
    2         20             0        1.285050   -1.228740   -0.922520
    3          8             0        2.561380    0.085040    0.389730
    4          8             0        1.259900    0.758370    0.699990
    5         15             0        0.047380   -0.053410    1.763380
    6          8             0       -1.159440    0.878890    1.117110
    7         20             0       -0.085830    1.945780   -0.702270
    8          8             0       -0.166230   -1.447900    0.926940
    9         20             0       -2.033280   -0.780380   -0.270710
 ---------------------------------------------------------------------
                    Distance matrix (angstroms):
                    1          2          3          4          5
     1  O    0.000000
     2  Ca   2.293781   0.000000
     3  O    3.708164   2.253228   0.000000
     4  O    3.075821   2.565497   1.497827   0.000000
     5  P    3.507801   3.182340   2.868149   1.805544   0.000000
     6  O    3.029887   3.818079   3.873471   2.457991   1.656280
     7  Ca   2.239927   3.464881   3.415046   2.277557   3.177095
     8  O    3.011567   2.361090   3.174643   2.636850   1.640080
     9  Ca   2.232568   3.411334   4.721868   3.762319   2.999192
                    6          7          8          9
     6  O    0.000000
     7  Ca   2.366651   0.000000
     8  O    2.537042   3.765349   0.000000
     9  Ca   2.332985   3.377981   2.316425   0.000000
 Stoichiometry    Ca3O5P(1+)
 Framework group  C1[X(Ca3O5P)]
 Deg. of freedom    21
 Full point group                 C1
 Largest Abelian subgroup         C1      NOp   1
 Largest concise Abelian subgroup C1      NOp   1
                         Standard orientation:                         
 ---------------------------------------------------------------------
 Center     Atomic     Atomic              Coordinates (Angstroms)
 Number     Number      Type              X           Y           Z
 ---------------------------------------------------------------------
    1          8             0       -0.499281   -0.015893   -1.701360
    2         20             0        1.285054   -1.228736   -0.922520
    3          8             0        2.561378    0.085050    0.389730
    4          8             0        1.259896    0.758374    0.699990
    5         15             0        0.047379   -0.053411    1.763380
    6          8             0       -1.159445    0.878884    1.117110
    7         20             0       -0.085840    1.945779   -0.702270
    8          8             0       -0.166225   -1.447902    0.926940
    9         20             0       -2.033278   -0.780390   -0.270710
 ---------------------------------------------------------------------
 Rotational constants (GHZ):      0.9455453      0.8008603      0.7441931
 Standard basis: 6-31+G(d,p) (6D, 7F)
 There are   199 symmetry adapted basis functions of A   symmetry.
 Integral buffers will be    131072 words long.
 Raffenetti 2 integral format.
 Two-electron integral symmetry is turned on.
   199 basis functions,   456 primitive gaussians,   199 cartesian basis functions
    57 alpha electrons       57 beta electrons
       nuclear repulsion energy      1090.3788483233 Hartrees.
 NAtoms=    9 NActive=    9 NUniq=    9 SFac= 7.50D-01 NAtFMM=   80 NAOKFM=F Big=F
 One-electron integrals computed using PRISM.
 NBasis=   199 RedAO= T  NBF=   199
 NBsUse=   199 1.00D-06 NBFU=   199
 Harris functional with IExCor=  402 diagonalized for initial guess.
 ExpMin= 7.10D-03 ExpMax= 3.53D+04 ExpMxC= 5.30D+03 IAcc=3 IRadAn=         5 AccDes= 0.00D+00
 HarFok:  IExCor= 402 AccDes= 0.00D+00 IRadAn=         5 IDoV=1
 ScaDFX=  1.000000  1.000000  1.000000  1.000000
 Initial guess orbital symmetries:
       Occupied  (A) (A) (A) (A) (A) (A) (A) (A) (A) (A) (A) (A)
                 (A) (A) (A) (A) (A) (A) (A) (A) (A) (A) (A) (A)
                 (A) (A) (A) (A) (A) (A) (A) (A) (A) (A) (A) (A)
                 (A) (A) (A) (A) (A) (A) (A) (A) (A) (A) (A) (A)
                 (A) (A) (A) (A) (A) (A) (A) (A) (A)
       Virtual   (A) (A) (A) (A) (A) (A) (A) (A) (A) (A) (A) (A)
                 (A) (A) (A) (A) (A) (A) (A) (A) (A) (A) (A) (A)
                 (A) (A) (A) (A) (A) (A) (A) (A) (A) (A) (A) (A)
                 (A) (A) (A) (A) (A) (A) (A) (A) (A) (A) (A) (A)
                 (A) (A) (A) (A) (A) (A) (A) (A) (A) (A) (A) (A)
                 (A) (A) (A) (A) (A) (A) (A) (A) (A) (A) (A) (A)
                 (A) (A) (A) (A) (A) (A) (A) (A) (A) (A) (A) (A)
                 (A) (A) (A) (A) (A) (A) (A) (A) (A) (A) (A) (A)
                 (A) (A) (A) (A) (A) (A) (A) (A) (A) (A) (A) (A)
                 (A) (A) (A) (A) (A) (A) (A) (A) (A) (A) (A) (A)
                 (A) (A) (A) (A) (A) (A) (A) (A) (A) (A) (A) (A)
                 (A) (A) (A) (A) (A) (A) (A) (A) (A) (A)
 The electronic state of the initial guess is 1-A.
 Requested convergence on RMS density matrix=1.00D-04 within 128 cycles.
 Requested convergence on MAX density matrix=1.00D-02.
 Requested convergence on             energy=1.00D-02.
 No special actions if energy rises.
 EnCoef did     3 forward-backward iterations
 SCF Done:  E(RB+HF-LYP) =  -2750.19417667     A.U. after    9 cycles
             Convg  =    0.4252D-04             -V/T =  2.0029
             S**2   =   0.0000

 **********************************************************************

            Population analysis using the SCF density.

 **********************************************************************

 Orbital symmetries:
       Occupied  (A) (A) (A) (A) (A) (A) (A) (A) (A) (A) (A) (A)
                 (A) (A) (A) (A) (A) (A) (A) (A) (A) (A) (A) (A)
                 (A) (A) (A) (A) (A) (A) (A) (A) (A) (A) (A) (A)
                 (A) (A) (A) (A) (A) (A) (A) (A) (A) (A) (A) (A)
                 (A) (A) (A) (A) (A) (A) (A) (A) (A)
       Virtual   (A) (A) (A) (A) (A) (A) (A) (A) (A) (A) (A) (A)
                 (A) (A) (A) (A) (A) (A) (A) (A) (A) (A) (A) (A)
                 (A) (A) (A) (A) (A) (A) (A) (A) (A) (A) (A) (A)
                 (A) (A) (A) (A) (A) (A) (A) (A) (A) (A) (A) (A)
                 (A) (A) (A) (A) (A) (A) (A) (A) (A) (A) (A) (A)
                 (A) (A) (A) (A) (A) (A) (A) (A) (A) (A) (A) (A)
                 (A) (A) (A) (A) (A) (A) (A) (A) (A) (A) (A) (A)
                 (A) (A) (A) (A) (A) (A) (A) (A) (A) (A) (A) (A)
                 (A) (A) (A) (A) (A) (A) (A) (A) (A) (A) (A) (A)
                 (A) (A) (A) (A) (A) (A) (A) (A) (A) (A) (A) (A)
                 (A) (A) (A) (A) (A) (A) (A) (A) (A) (A) (A) (A)
                 (A) (A) (A) (A) (A) (A) (A) (A) (A) (A)
 The electronic state is 1-A.
 Alpha  occ. eigenvalues -- -145.51670-145.51595-145.48706 -77.27303 -19.29099
 Alpha  occ. eigenvalues --  -19.23572 -19.23488 -19.23304 -19.17357 -15.58482
 Alpha  occ. eigenvalues --  -15.58421 -15.55554 -12.71695 -12.71658 -12.71628
 Alpha  occ. eigenvalues --  -12.71609 -12.71594 -12.71549 -12.68782 -12.68748
 Alpha  occ. eigenvalues --  -12.68648  -6.72400  -4.88806  -4.88692  -4.88158
 Alpha  occ. eigenvalues --   -1.95725  -1.95670  -1.92864  -1.23978  -1.23553
 Alpha  occ. eigenvalues --   -1.23414  -1.23063  -1.23030  -1.22529  -1.21069
 Alpha  occ. eigenvalues --   -1.20540  -1.19969  -1.13368  -1.07571  -1.03114
 Alpha  occ. eigenvalues --   -0.92328  -0.90596  -0.65539  -0.55303  -0.53395
 Alpha  occ. eigenvalues --   -0.51719  -0.49584  -0.46919  -0.44126  -0.42332
 Alpha  occ. eigenvalues --   -0.40302  -0.37805  -0.37641  -0.36832  -0.35230
 Alpha  occ. eigenvalues --   -0.33503  -0.32030
 Alpha virt. eigenvalues --   -0.20905  -0.19067  -0.17415  -0.13459  -0.12277
 Alpha virt. eigenvalues --   -0.11628  -0.10497  -0.10037  -0.08917  -0.08221
 Alpha virt. eigenvalues --   -0.07985  -0.06859  -0.06591  -0.06167  -0.05828
 Alpha virt. eigenvalues --   -0.05027  -0.04876  -0.04697  -0.04539  -0.04331
 Alpha virt. eigenvalues --   -0.04009  -0.03630  -0.03308  -0.03184  -0.02970
 Alpha virt. eigenvalues --   -0.02966  -0.02003  -0.00870   0.00732   0.01603
 Alpha virt. eigenvalues --    0.01797   0.02562   0.03297   0.04143   0.04757
 Alpha virt. eigenvalues --    0.04940   0.05316   0.05711   0.05829   0.06041
 Alpha virt. eigenvalues --    0.06391   0.06750   0.07237   0.07599   0.08124
 Alpha virt. eigenvalues --    0.08942   0.09519   0.09872   0.10454   0.11383
 Alpha virt. eigenvalues --    0.13096   0.14206   0.14819   0.17086   0.17800
 Alpha virt. eigenvalues --    0.18450   0.19739   0.20382   0.21059   0.22363
 Alpha virt. eigenvalues --    0.22976   0.24031   0.24367   0.26028   0.26752
 Alpha virt. eigenvalues --    0.28254   0.29331   0.31423   0.33105   0.33394
 Alpha virt. eigenvalues --    0.34384   0.35330   0.35633   0.37005   0.38652
 Alpha virt. eigenvalues --    0.40216   0.42015   0.43852   0.49198   0.51871
 Alpha virt. eigenvalues --    0.52351   0.57978   0.61334   0.64221   0.65858
 Alpha virt. eigenvalues --    0.78185   0.83732   0.86158   0.90817   0.94372
 Alpha virt. eigenvalues --    1.09173   1.11334   1.13664   1.15708   1.15913
 Alpha virt. eigenvalues --    1.17802   1.19010   1.19228   1.21816   1.21920
 Alpha virt. eigenvalues --    1.23175   1.24341   1.28697   1.31213   1.33711
 Alpha virt. eigenvalues --    1.36898   1.51236   1.53372   1.54900   1.57596
 Alpha virt. eigenvalues --    1.60298   1.63691   1.67892   1.70939   1.73712
 Alpha virt. eigenvalues --    1.75142   1.80601   1.82486   1.84095   1.84831
 Alpha virt. eigenvalues --    1.85768   1.86553   1.88280   1.90441   1.91825
 Alpha virt. eigenvalues --    1.92714   1.97221   1.98866   2.01426   2.10396
 Alpha virt. eigenvalues --    2.15515   2.24698   2.32344   2.48568   2.57899
 Alpha virt. eigenvalues --    3.09311   3.50960   3.99654   4.07019   4.15190
 Alpha virt. eigenvalues --    4.23968   4.36687
          Condensed to atoms (all electrons):
              1          2          3          4          5          6
     1  O    8.860616   0.108659  -0.010404   0.019152  -0.042535   0.028199
     2  Ca   0.108659  18.368914   0.174325  -0.022304  -0.051014   0.013770
     3  O   -0.010404   0.174325   8.558229  -0.112229  -0.066202   0.009994
     4  O    0.019152  -0.022304  -0.112229   8.597242  -0.061233   0.085910
     5  P   -0.042535  -0.051014  -0.066202  -0.061233  14.407976  -0.144401
     6  O    0.028199   0.013770   0.009994   0.085910  -0.144401   8.848351
     7  Ca   0.134305  -0.010358  -0.022655   0.064252  -0.011033   0.053951
     8  O    0.029798   0.054907   0.031162   0.007073  -0.153126   0.037830
     9  Ca   0.133739  -0.054318   0.006815   0.012707   0.019742   0.067716
              7          8          9
     1  O    0.134305   0.029798   0.133739
     2  Ca  -0.010358   0.054907  -0.054318
     3  O   -0.022655   0.031162   0.006815
     4  O    0.064252   0.007073   0.012707
     5  P   -0.011033  -0.153126   0.019742
     6  O    0.053951   0.037830   0.067716
     7  Ca  18.353399   0.016037  -0.071321
     8  O    0.016037   8.930924   0.064498
     9  Ca  -0.071321   0.064498  18.391532
 Mulliken atomic charges:
              1
     1  O   -1.261528
     2  Ca   1.417418
     3  O   -0.569036
     4  O   -0.590570
     5  P    1.101826
     6  O   -1.001321
     7  Ca   1.493425
     8  O   -1.019104
     9  Ca   1.428889
 Sum of Mulliken charges=   1.00000
 Atomic charges with hydrogens summed into heavy atoms:
              1
     1  O   -1.261528
     2  Ca   1.417418
     3  O   -0.569036
     4  O   -0.590570
     5  P    1.101826
     6  O   -1.001321
     7  Ca   1.493425
     8  O   -1.019104
     9  Ca   1.428889
 Sum of Mulliken charges=   1.00000
 Electronic spatial extent (au):  <R**2>=  1781.9483
 Charge=     1.0000 electrons
 Dipole moment (field-independent basis, Debye):
    X=    -6.9451    Y=    -0.1157    Z=    -8.5314  Tot=    11.0014
 Quadrupole moment (field-independent basis, Debye-Ang):
   XX=   -58.4213   YY=   -40.8456   ZZ=   -88.3278
   XY=    -0.3412   XZ=    -9.1430   YZ=    -0.2538
 Traceless Quadrupole moment (field-independent basis, Debye-Ang):
   XX=     4.1102   YY=    21.6860   ZZ=   -25.7962
   XY=    -0.3412   XZ=    -9.1430   YZ=    -0.2538
 Octapole moment (field-independent basis, Debye-Ang**2):
  XXX=  -106.7713  YYY=    51.4397  ZZZ=    -6.1002  XYY=     4.0413
  XXY=   -53.6609  XXZ=   -40.8016  XZZ=    18.2269  YZZ=    -1.5085
  YYZ=   -56.4853  XYZ=    12.6099
 Hexadecapole moment (field-independent basis, Debye-Ang**3):
 XXXX=  -741.0264 YYYY=  -407.4415 ZZZZ=  -730.3737 XXXY=    30.5391
 XXXZ=   -27.5905 YYYX=   -19.2404 YYYZ=   -19.5244 ZZZX=   -44.2814
 ZZZY=     2.3249 XXYY=  -182.4547 XXZZ=  -239.9310 YYZZ=  -179.9419
 XXYZ=    16.7283 YYXZ=   -12.8941 ZZXY=    -7.6648
 N-N= 1.090378848323D+03 E-N=-8.681268681085D+03  KE= 2.742203435238D+03
 Merz-Kollman atomic radii used.
 Read replacement radii for each type of atom:
 Rad(20) =   1.188000000000D+00
 Atom Element Radius
    1     8    1.40
    2    20    1.19
    3     8    1.40
    4     8    1.40
    5    15    1.80
    6     8    1.40
    7    20    1.19
    8     8    1.40
    9    20    1.19

 **********************************************************************

            Electrostatic Properties Using The SCF Density

 **********************************************************************

       Atomic Center    1 is at  -0.499281 -0.015893 -1.701360
       Atomic Center    2 is at   1.285054 -1.228736 -0.922520
       Atomic Center    3 is at   2.561378  0.085050  0.389730
       Atomic Center    4 is at   1.259896  0.758374  0.699990
       Atomic Center    5 is at   0.047379 -0.053411  1.763380
       Atomic Center    6 is at  -1.159445  0.878884  1.117110
       Atomic Center    7 is at  -0.085840  1.945779 -0.702270
       Atomic Center    8 is at  -0.166225 -1.447902  0.926940
       Atomic Center    9 is at  -2.033278 -0.780390 -0.270710
     741 points will be used for fitting atomic charges
 Fitting point charges to eletrostatic potential
 Charges from ESP fit, RMS=   0.00539 RRMS=   0.03341:
 Charge=   1.00000 Dipole=    -7.1125    -0.0505    -8.6970 Tot=    11.2351
              1
     1  O   -1.618655
     2  Ca   1.648278
     3  O   -0.637165
     4  O   -0.405848
     5  P    0.548874
     6  O   -0.931875
     7  Ca   1.638196
     8  O   -0.904063
     9  Ca   1.662259
 -----------------------------------------------------------------

              Electrostatic Properties (Atomic Units)

 -----------------------------------------------------------------
    Center     Electric         -------- Electric Field --------
               Potential          X             Y             Z
 -----------------------------------------------------------------
    1 Atom    -22.289713
    2 Atom    -80.054016
    3 Atom    -22.239593
    4 Atom    -22.175670
    5 Atom    -53.943281
    6 Atom    -22.225688
    7 Atom    -80.024224
    8 Atom    -22.231393
    9 Atom    -80.025026
 -----------------------------------------------------------------
 1\1\GINC-N031\SP\RB3LYP\6-31+G(d,p)\Ca3O5P1(1+)\TIMN\12-Jun-2015\0\\# 
 b3lyp/6-31+G(d,p) int=ultrafine pop=(ReadRadii,MK)\\mol_17.29.25.pdb_p
 lusQ.z58606.zip.xyz\\1,1\O,0,-0.49928,-0.01589,-1.70136\Ca,0,1.28505,-
 1.22874,-0.92252\O,0,2.56138,0.08504,0.38973\O,0,1.2599,0.75837,0.6999
 9\P,0,0.04738,-0.05341,1.76338\O,0,-1.15944,0.87889,1.11711\Ca,0,-0.08
 583,1.94578,-0.70227\O,0,-0.16623,-1.4479,0.92694\Ca,0,-2.03328,-0.780
 38,-0.27071\\Version=EM64T-G03RevE.01\State=1-A\HF=-2750.1941767\RMSD=
 4.252e-05\Thermal=0.\Dipole=-2.7324121,-0.0455141,-3.3564934\PG=C01 [X
 (Ca3O5P1)]\\@


 Democracy is the recurrent suspicion that more than half of the people
 are right more than half of the time.
 -- E. B. White
 Job cpu time:  0 days  0 hours  2 minutes 27.7 seconds.
 File lengths (MBytes):  RWF=     36 Int=      0 D2E=      0 Chk=     11 Scr=      1
 Normal termination of Gaussian 03 at Fri Jun 12 18:12:32 2015.
