 Entering Gaussian System, Link 0=/home/timn/tmp/g03.e01/g03
 Input=mol_17.29.18.pdbc_plusQ.z58598.zip.xyz.gjf
 Output=mol_17.29.18.pdbc_plusQ.z58598.zip.xyz.out
 Initial command:
 /home/timn/tmp/g03.e01/l1.exe /home/timn/tmp/g03.e01/Gau-13622.inp -scrdir=/home/timn/tmp/g03.e01/
 Default is to use a total of   2 processors:
                                2 via shared-memory
                                1 via Linda
 Entering Link 1 = /home/timn/tmp/g03.e01/l1.exe PID=     13623.
  
 Copyright (c) 1988,1990,1992,1993,1995,1998,2003,2004,2007, Gaussian, Inc.
                  All Rights Reserved.
  
 This is the Gaussian(R) 03 program.  It is based on the
 the Gaussian(R) 98 system (copyright 1998, Gaussian, Inc.),
 the Gaussian(R) 94 system (copyright 1995, Gaussian, Inc.),
 the Gaussian 92(TM) system (copyright 1992, Gaussian, Inc.),
 the Gaussian 90(TM) system (copyright 1990, Gaussian, Inc.),
 the Gaussian 88(TM) system (copyright 1988, Gaussian, Inc.),
 the Gaussian 86(TM) system (copyright 1986, Carnegie Mellon
 University), and the Gaussian 82(TM) system (copyright 1983,
 Carnegie Mellon University). Gaussian is a federally registered
 trademark of Gaussian, Inc.
  
 This software contains proprietary and confidential information,
 including trade secrets, belonging to Gaussian, Inc.
  
 This software is provided under written license and may be
 used, copied, transmitted, or stored only in accord with that
 written license.
  
 The following legend is applicable only to US Government
 contracts under FAR:
  
                    RESTRICTED RIGHTS LEGEND
  
 Use, reproduction and disclosure by the US Government is
 subject to restrictions as set forth in subparagraphs (a)
 and (c) of the Commercial Computer Software - Restricted
 Rights clause in FAR 52.227-19.
  
 Gaussian, Inc.
 340 Quinnipiac St., Bldg. 40, Wallingford CT 06492
  
  
 ---------------------------------------------------------------
 Warning -- This program may not be used in any manner that
 competes with the business of Gaussian, Inc. or will provide
 assistance to any competitor of Gaussian, Inc.  The licensee
 of this program is prohibited from giving any competitor of
 Gaussian, Inc. access to this program.  By using this program,
 the user acknowledges that Gaussian, Inc. is engaged in the
 business of creating and licensing software in the field of
 computational chemistry and represents and warrants to the
 licensee that it is not a competitor of Gaussian, Inc. and that
 it will not use this program in any manner prohibited above.
 ---------------------------------------------------------------
  

 Cite this work as:
 Gaussian 03, Revision E.01,
 M. J. Frisch, G. W. Trucks, H. B. Schlegel, G. E. Scuseria, 
 M. A. Robb, J. R. Cheeseman, J. A. Montgomery, Jr., T. Vreven, 
 K. N. Kudin, J. C. Burant, J. M. Millam, S. S. Iyengar, J. Tomasi, 
 V. Barone, B. Mennucci, M. Cossi, G. Scalmani, N. Rega, 
 G. A. Petersson, H. Nakatsuji, M. Hada, M. Ehara, K. Toyota, 
 R. Fukuda, J. Hasegawa, M. Ishida, T. Nakajima, Y. Honda, O. Kitao, 
 H. Nakai, M. Klene, X. Li, J. E. Knox, H. P. Hratchian, J. B. Cross, 
 V. Bakken, C. Adamo, J. Jaramillo, R. Gomperts, R. E. Stratmann, 
 O. Yazyev, A. J. Austin, R. Cammi, C. Pomelli, J. W. Ochterski, 
 P. Y. Ayala, K. Morokuma, G. A. Voth, P. Salvador, J. J. Dannenberg, 
 V. G. Zakrzewski, S. Dapprich, A. D. Daniels, M. C. Strain, 
 O. Farkas, D. K. Malick, A. D. Rabuck, K. Raghavachari, 
 J. B. Foresman, J. V. Ortiz, Q. Cui, A. G. Baboul, S. Clifford, 
 J. Cioslowski, B. B. Stefanov, G. Liu, A. Liashenko, P. Piskorz, 
 I. Komaromi, R. L. Martin, D. J. Fox, T. Keith, M. A. Al-Laham, 
 C. Y. Peng, A. Nanayakkara, M. Challacombe, P. M. W. Gill, 
 B. Johnson, W. Chen, M. W. Wong, C. Gonzalez, and J. A. Pople, 
 Gaussian, Inc., Wallingford CT, 2004.
 
 ******************************************
 Gaussian 03:  EM64T-G03RevE.01 11-Sep-2007
                12-Jun-2015 
 ******************************************
 %nproc=2
 Will use up to    2 processors via shared memory.
 Default route:  MP2=Direct MaxDisk=2000MB
 ----------------------------------------------------
 # b3lyp/6-31+G(d,p) int=ultrafine pop=(ReadRadii,MK)
 ----------------------------------------------------

 Warning!  SCF SP cutoffs with diffuse functions may be unreliable.
 Consider SCF=Tight

 1/38=1/1;
 2/17=6,18=5,40=1/2;
 3/5=1,6=6,7=111,11=2,16=1,25=1,30=1,74=-5,75=5/1,2,3;
 4//1;
 5/5=2,32=1,38=5/2;
 6/7=2,8=2,9=2,10=2,15=8,20=101,28=1/1,2;
 99/5=1,9=1/99;
 --------------------------------------
 mol_17.29.18.pdbc_plusQ.z58598.zip.xyz
 --------------------------------------
 Symbolic Z-matrix:
 Charge =  1 Multiplicity = 1
 O                     3.41044  -0.65314  -0.01723 
 O                    -0.82544  -0.88149   0.78012 
 Ca                    1.22205  -1.49288   0.01078 
 P                     3.17026   0.86726  -0.0102 
 O                     1.61307   1.04131   0.01502 
 O                    -0.81747  -0.87828  -0.77561 
 Ca                   -3.07521  -0.69441  -0.00927 
 O                    -2.8754    1.41587  -0.00484 
 Ca                   -0.72661   1.51913   0.00716 
 
                          Input orientation:                          
 ---------------------------------------------------------------------
 Center     Atomic     Atomic              Coordinates (Angstroms)
 Number     Number      Type              X           Y           Z
 ---------------------------------------------------------------------
    1          8             0        3.410440   -0.653140   -0.017230
    2          8             0       -0.825440   -0.881490    0.780120
    3         20             0        1.222050   -1.492880    0.010780
    4         15             0        3.170260    0.867260   -0.010200
    5          8             0        1.613070    1.041310    0.015020
    6          8             0       -0.817470   -0.878280   -0.775610
    7         20             0       -3.075210   -0.694410   -0.009270
    8          8             0       -2.875400    1.415870   -0.004840
    9         20             0       -0.726610    1.519130    0.007160
 ---------------------------------------------------------------------
                    Distance matrix (angstroms):
                    1          2          3          4          5
     1  O    0.000000
     2  O    4.316317   0.000000
     3  Ca   2.344141   2.271100   0.000000
     4  P    1.539270   4.432646   3.060429   0.000000
     5  O    2.470372   3.198260   2.564183   1.567090   0.000000
     6  O    4.301285   1.555754   2.270635   4.419814   3.196474
     7  Ca   6.485786   2.391569   4.370858   6.437757   4.999328
     8  O    6.617608   3.177477   5.024954   6.070503   4.504115
     9  Ca   4.672744   2.523928   3.587408   3.951055   2.387986
                    6          7          8          9
     6  O    0.000000
     7  Ca   2.391333   0.000000
     8  O    3.176836   2.119723   0.000000
     9  Ca   2.523600   3.227375   2.151303   0.000000
 Stoichiometry    Ca3O5P(1+)
 Framework group  C1[X(Ca3O5P)]
 Deg. of freedom    21
 Full point group                 C1
 Largest Abelian subgroup         C1      NOp   1
 Largest concise Abelian subgroup C1      NOp   1
                         Standard orientation:                         
 ---------------------------------------------------------------------
 Center     Atomic     Atomic              Coordinates (Angstroms)
 Number     Number      Type              X           Y           Z
 ---------------------------------------------------------------------
    1          8             0        3.410439   -0.653137   -0.017231
    2          8             0       -0.825440   -0.881489    0.780119
    3         20             0        1.222050   -1.492878    0.010779
    4         15             0        3.170259    0.867263   -0.010201
    5          8             0        1.613069    1.041312    0.015019
    6          8             0       -0.817470   -0.878279   -0.775611
    7         20             0       -3.075210   -0.694410   -0.009271
    8          8             0       -2.875402    1.415870   -0.004841
    9         20             0       -0.726612    1.519131    0.007159
 ---------------------------------------------------------------------
 Rotational constants (GHZ):      1.5587543      0.4316389      0.3470294
 Standard basis: 6-31+G(d,p) (6D, 7F)
 There are   199 symmetry adapted basis functions of A   symmetry.
 Integral buffers will be    131072 words long.
 Raffenetti 2 integral format.
 Two-electron integral symmetry is turned on.
   199 basis functions,   456 primitive gaussians,   199 cartesian basis functions
    57 alpha electrons       57 beta electrons
       nuclear repulsion energy       978.3288099747 Hartrees.
 NAtoms=    9 NActive=    9 NUniq=    9 SFac= 7.50D-01 NAtFMM=   80 NAOKFM=F Big=F
 One-electron integrals computed using PRISM.
 NBasis=   199 RedAO= T  NBF=   199
 NBsUse=   199 1.00D-06 NBFU=   199
 Harris functional with IExCor=  402 diagonalized for initial guess.
 ExpMin= 7.10D-03 ExpMax= 3.53D+04 ExpMxC= 5.30D+03 IAcc=3 IRadAn=         5 AccDes= 0.00D+00
 HarFok:  IExCor= 402 AccDes= 0.00D+00 IRadAn=         5 IDoV=1
 ScaDFX=  1.000000  1.000000  1.000000  1.000000
 Initial guess orbital symmetries:
       Occupied  (A) (A) (A) (A) (A) (A) (A) (A) (A) (A) (A) (A)
                 (A) (A) (A) (A) (A) (A) (A) (A) (A) (A) (A) (A)
                 (A) (A) (A) (A) (A) (A) (A) (A) (A) (A) (A) (A)
                 (A) (A) (A) (A) (A) (A) (A) (A) (A) (A) (A) (A)
                 (A) (A) (A) (A) (A) (A) (A) (A) (A)
       Virtual   (A) (A) (A) (A) (A) (A) (A) (A) (A) (A) (A) (A)
                 (A) (A) (A) (A) (A) (A) (A) (A) (A) (A) (A) (A)
                 (A) (A) (A) (A) (A) (A) (A) (A) (A) (A) (A) (A)
                 (A) (A) (A) (A) (A) (A) (A) (A) (A) (A) (A) (A)
                 (A) (A) (A) (A) (A) (A) (A) (A) (A) (A) (A) (A)
                 (A) (A) (A) (A) (A) (A) (A) (A) (A) (A) (A) (A)
                 (A) (A) (A) (A) (A) (A) (A) (A) (A) (A) (A) (A)
                 (A) (A) (A) (A) (A) (A) (A) (A) (A) (A) (A) (A)
                 (A) (A) (A) (A) (A) (A) (A) (A) (A) (A) (A) (A)
                 (A) (A) (A) (A) (A) (A) (A) (A) (A) (A) (A) (A)
                 (A) (A) (A) (A) (A) (A) (A) (A) (A) (A) (A) (A)
                 (A) (A) (A) (A) (A) (A) (A) (A) (A) (A)
 The electronic state of the initial guess is 1-A.
 Requested convergence on RMS density matrix=1.00D-04 within 128 cycles.
 Requested convergence on MAX density matrix=1.00D-02.
 Requested convergence on             energy=1.00D-02.
 No special actions if energy rises.
 EnCoef did     3 forward-backward iterations
 SCF Done:  E(RB+HF-LYP) =  -2750.19922428     A.U. after    8 cycles
             Convg  =    0.8782D-04             -V/T =  2.0029
             S**2   =   0.0000

 **********************************************************************

            Population analysis using the SCF density.

 **********************************************************************

 Orbital symmetries:
       Occupied  (A) (A) (A) (A) (A) (A) (A) (A) (A) (A) (A) (A)
                 (A) (A) (A) (A) (A) (A) (A) (A) (A) (A) (A) (A)
                 (A) (A) (A) (A) (A) (A) (A) (A) (A) (A) (A) (A)
                 (A) (A) (A) (A) (A) (A) (A) (A) (A) (A) (A) (A)
                 (A) (A) (A) (A) (A) (A) (A) (A) (A)
       Virtual   (A) (A) (A) (A) (A) (A) (A) (A) (A) (A) (A) (A)
                 (A) (A) (A) (A) (A) (A) (A) (A) (A) (A) (A) (A)
                 (A) (A) (A) (A) (A) (A) (A) (A) (A) (A) (A) (A)
                 (A) (A) (A) (A) (A) (A) (A) (A) (A) (A) (A) (A)
                 (A) (A) (A) (A) (A) (A) (A) (A) (A) (A) (A) (A)
                 (A) (A) (A) (A) (A) (A) (A) (A) (A) (A) (A) (A)
                 (A) (A) (A) (A) (A) (A) (A) (A) (A) (A) (A) (A)
                 (A) (A) (A) (A) (A) (A) (A) (A) (A) (A) (A) (A)
                 (A) (A) (A) (A) (A) (A) (A) (A) (A) (A) (A) (A)
                 (A) (A) (A) (A) (A) (A) (A) (A) (A) (A) (A) (A)
                 (A) (A) (A) (A) (A) (A) (A) (A) (A) (A) (A) (A)
                 (A) (A) (A) (A) (A) (A) (A) (A) (A) (A)
 The electronic state is 1-A.
 Alpha  occ. eigenvalues -- -145.53306-145.48100-145.46504 -77.31647 -19.29957
 Alpha  occ. eigenvalues --  -19.29138 -19.27662 -19.27656 -19.10313 -15.60152
 Alpha  occ. eigenvalues --  -15.54937 -15.53363 -12.73388 -12.73383 -12.73218
 Alpha  occ. eigenvalues --  -12.68156 -12.68120 -12.68041 -12.66617 -12.66581
 Alpha  occ. eigenvalues --  -12.66412  -6.77271  -4.93703  -4.93471  -4.93053
 Alpha  occ. eigenvalues --   -1.97336  -1.92135  -1.90672  -1.25318  -1.25147
 Alpha  occ. eigenvalues --   -1.25008  -1.20359  -1.19790  -1.19239  -1.18533
 Alpha  occ. eigenvalues --   -1.18454  -1.17871  -1.15547  -1.10911  -1.09761
 Alpha  occ. eigenvalues --   -0.91297  -0.84521  -0.68928  -0.57895  -0.55266
 Alpha  occ. eigenvalues --   -0.54477  -0.51225  -0.50449  -0.49466  -0.46899
 Alpha  occ. eigenvalues --   -0.45453  -0.42696  -0.38854  -0.36721  -0.30147
 Alpha  occ. eigenvalues --   -0.28564  -0.28510
 Alpha virt. eigenvalues --   -0.21597  -0.19568  -0.17911  -0.15029  -0.15016
 Alpha virt. eigenvalues --   -0.11257  -0.10533  -0.09853  -0.09290  -0.08795
 Alpha virt. eigenvalues --   -0.08671  -0.08136  -0.07318  -0.06845  -0.06404
 Alpha virt. eigenvalues --   -0.05272  -0.05161  -0.04773  -0.04394  -0.04325
 Alpha virt. eigenvalues --   -0.04067  -0.03928  -0.03832  -0.03754  -0.03163
 Alpha virt. eigenvalues --   -0.02886  -0.02819  -0.02756  -0.02036  -0.00680
 Alpha virt. eigenvalues --    0.01190   0.02367   0.03015   0.03130   0.03556
 Alpha virt. eigenvalues --    0.04610   0.04767   0.05247   0.05720   0.05971
 Alpha virt. eigenvalues --    0.06042   0.07069   0.07147   0.08136   0.08647
 Alpha virt. eigenvalues --    0.09105   0.09290   0.10063   0.10524   0.11194
 Alpha virt. eigenvalues --    0.12804   0.12907   0.14763   0.15006   0.16230
 Alpha virt. eigenvalues --    0.16446   0.16537   0.17566   0.18108   0.20908
 Alpha virt. eigenvalues --    0.21382   0.22318   0.22836   0.23450   0.24456
 Alpha virt. eigenvalues --    0.26191   0.28123   0.28794   0.29844   0.31209
 Alpha virt. eigenvalues --    0.31315   0.33449   0.35766   0.37585   0.39304
 Alpha virt. eigenvalues --    0.42532   0.43240   0.45400   0.47274   0.47380
 Alpha virt. eigenvalues --    0.51486   0.53831   0.56500   0.60332   0.61238
 Alpha virt. eigenvalues --    0.63756   0.84701   0.89722   0.94106   0.99232
 Alpha virt. eigenvalues --    1.04399   1.06949   1.08619   1.10105   1.11231
 Alpha virt. eigenvalues --    1.11311   1.14309   1.15316   1.17554   1.19304
 Alpha virt. eigenvalues --    1.19833   1.21057   1.24055   1.29912   1.34428
 Alpha virt. eigenvalues --    1.35816   1.41107   1.46711   1.47085   1.53212
 Alpha virt. eigenvalues --    1.54185   1.60404   1.65380   1.66150   1.66519
 Alpha virt. eigenvalues --    1.69461   1.73035   1.74264   1.76444   1.78971
 Alpha virt. eigenvalues --    1.82254   1.83816   1.84175   1.86181   1.87440
 Alpha virt. eigenvalues --    1.89437   1.92623   1.95938   2.01017   2.04342
 Alpha virt. eigenvalues --    2.16448   2.17793   2.17881   2.50711   2.67326
 Alpha virt. eigenvalues --    3.00508   3.38858   3.87244   3.89012   4.00817
 Alpha virt. eigenvalues --    4.08738   4.08981
          Condensed to atoms (all electrons):
              1          2          3          4          5          6
     1  O    8.529744  -0.001346   0.079223   0.111022  -0.074533  -0.001158
     2  O   -0.001346   8.576411   0.094799  -0.004054  -0.000366  -0.050290
     3  Ca   0.079223   0.094799  18.244088  -0.018417   0.022379   0.094486
     4  P    0.111022  -0.004054  -0.018417  14.415672  -0.159670  -0.004253
     5  O   -0.074533  -0.000366   0.022379  -0.159670   8.920950  -0.000538
     6  O   -0.001158  -0.050290   0.094486  -0.004253  -0.000538   8.577086
     7  Ca   0.001055   0.050928  -0.016942  -0.012389   0.005501   0.050791
     8  O    0.000000   0.000595   0.001298  -0.001399  -0.005203   0.000559
     9  Ca   0.003475   0.027459  -0.004141  -0.006718   0.034079   0.027822
              7          8          9
     1  O    0.001055   0.000000   0.003475
     2  O    0.050928   0.000595   0.027459
     3  Ca  -0.016942   0.001298  -0.004141
     4  P   -0.012389  -0.001399  -0.006718
     5  O    0.005501  -0.005203   0.034079
     6  O    0.050791   0.000559   0.027822
     7  Ca  18.361533   0.224095  -0.027430
     8  O    0.224095   8.679307   0.224546
     9  Ca  -0.027430   0.224546  18.364681
 Mulliken atomic charges:
              1
     1  O   -0.647482
     2  O   -0.694137
     3  Ca   1.503228
     4  P    0.680206
     5  O   -0.742598
     6  O   -0.694505
     7  Ca   1.362858
     8  O   -1.123797
     9  Ca   1.356227
 Sum of Mulliken charges=   1.00000
 Atomic charges with hydrogens summed into heavy atoms:
              1
     1  O   -0.647482
     2  O   -0.694137
     3  Ca   1.503228
     4  P    0.680206
     5  O   -0.742598
     6  O   -0.694505
     7  Ca   1.362858
     8  O   -1.123797
     9  Ca   1.356227
 Sum of Mulliken charges=   1.00000
 Electronic spatial extent (au):  <R**2>=  2764.5749
 Charge=     1.0000 electrons
 Dipole moment (field-independent basis, Debye):
    X=     0.3574    Y=    -7.6456    Z=     0.0603  Tot=     7.6542
 Quadrupole moment (field-independent basis, Debye-Ang):
   XX=   -63.4573   YY=   -57.0396   ZZ=   -77.2577
   XY=    23.1544   XZ=     0.2699   YZ=    -0.0353
 Traceless Quadrupole moment (field-independent basis, Debye-Ang):
   XX=     2.4609   YY=     8.8786   ZZ=   -11.3395
   XY=    23.1544   XZ=     0.2699   YZ=    -0.0353
 Octapole moment (field-independent basis, Debye-Ang**2):
  XXX=  -107.5315  YYY=   -38.0395  ZZZ=     0.1606  XYY=    27.7331
  XXY=  -109.5696  XXZ=     0.1070  XZZ=     2.9015  YZZ=    -3.5021
  YYZ=     0.3915  XYZ=    -0.7818
 Hexadecapole moment (field-independent basis, Debye-Ang**3):
 XXXX= -2335.8022 YYYY=  -569.8038 ZZZZ=  -129.6353 XXXY=   483.7415
 XXXZ=     3.8390 YYYX=     2.7928 YYYZ=     0.0373 ZZZX=     0.5767
 ZZZY=     0.0534 XXYY=  -575.9095 XXZZ=  -421.9262 YYZZ=  -130.1013
 XXYZ=     0.1807 YYXZ=     0.3974 ZZXY=     6.1341
 N-N= 9.783288099747D+02 E-N=-8.456653718004D+03  KE= 2.742193744409D+03
 Merz-Kollman atomic radii used.
 Read replacement radii for each type of atom:
 Rad(20) =   1.188000000000D+00
 Atom Element Radius
    1     8    1.40
    2     8    1.40
    3    20    1.19
    4    15    1.80
    5     8    1.40
    6     8    1.40
    7    20    1.19
    8     8    1.40
    9    20    1.19

 **********************************************************************

            Electrostatic Properties Using The SCF Density

 **********************************************************************

       Atomic Center    1 is at   3.410439 -0.653137 -0.017231
       Atomic Center    2 is at  -0.825440 -0.881489  0.780119
       Atomic Center    3 is at   1.222050 -1.492878  0.010779
       Atomic Center    4 is at   3.170259  0.867263 -0.010201
       Atomic Center    5 is at   1.613069  1.041312  0.015019
       Atomic Center    6 is at  -0.817470 -0.878279 -0.775611
       Atomic Center    7 is at  -3.075210 -0.694410 -0.009271
       Atomic Center    8 is at  -2.875402  1.415870 -0.004841
       Atomic Center    9 is at  -0.726612  1.519131  0.007159
     878 points will be used for fitting atomic charges
 Fitting point charges to eletrostatic potential
 Charges from ESP fit, RMS=   0.00500 RRMS=   0.03340:
 Charge=   1.00000 Dipole=     0.0832    -7.7120     0.0554 Tot=     7.7126
              1
     1  O   -0.647491
     2  O   -0.868641
     3  Ca   1.731216
     4  P    0.595186
     5  O   -0.760716
     6  O   -0.867579
     7  Ca   1.630924
     8  O   -1.477698
     9  Ca   1.664799
 -----------------------------------------------------------------

              Electrostatic Properties (Atomic Units)

 -----------------------------------------------------------------
    Center     Electric         -------- Electric Field --------
               Potential          X             Y             Z
 -----------------------------------------------------------------
    1 Atom    -22.175278
    2 Atom    -22.188279
    3 Atom    -80.007390
    4 Atom    -53.900343
    5 Atom    -22.165625
    6 Atom    -22.188341
    7 Atom    -80.060494
    8 Atom    -22.360291
    9 Atom    -80.075535
 -----------------------------------------------------------------
 1\1\GINC-N033\SP\RB3LYP\6-31+G(d,p)\Ca3O5P1(1+)\TIMN\12-Jun-2015\0\\# 
 b3lyp/6-31+G(d,p) int=ultrafine pop=(ReadRadii,MK)\\mol_17.29.18.pdbc_
 plusQ.z58598.zip.xyz\\1,1\O,0,3.41044,-0.65314,-0.01723\O,0,-0.82544,-
 0.88149,0.78012\Ca,0,1.22205,-1.49288,0.01078\P,0,3.17026,0.86726,-0.0
 102\O,0,1.61307,1.04131,0.01502\O,0,-0.81747,-0.87828,-0.77561\Ca,0,-3
 .07521,-0.69441,-0.00927\O,0,-2.8754,1.41587,-0.00484\Ca,0,-0.72661,1.
 51913,0.00716\\Version=EM64T-G03RevE.01\State=1-A\HF=-2750.1992243\RMS
 D=8.782e-05\Thermal=0.\Dipole=0.1406276,-3.0080108,0.0237207\PG=C01 [X
 (Ca3O5P1)]\\@


 My opinions may have changed, but not the fact that I am right.
                       -- Ashleigh Brilliant
 Job cpu time:  0 days  0 hours  1 minutes 55.8 seconds.
 File lengths (MBytes):  RWF=     36 Int=      0 D2E=      0 Chk=     11 Scr=      1
 Normal termination of Gaussian 03 at Fri Jun 12 18:11:37 2015.
