 Entering Gaussian System, Link 0=/home/timn/tmp/g03.e01/g03
 Input=mol_16.4.25.pdbc_plusQ.out.z51575.zip.xyz.gjf
 Output=mol_16.4.25.pdbc_plusQ.out.z51575.zip.xyz.out
 Initial command:
 /home/timn/tmp/g03.e01/l1.exe /home/timn/tmp/g03.e01/Gau-19162.inp -scrdir=/home/timn/tmp/g03.e01/
 Default is to use a total of   2 processors:
                                2 via shared-memory
                                1 via Linda
 Entering Link 1 = /home/timn/tmp/g03.e01/l1.exe PID=     19165.
  
 Copyright (c) 1988,1990,1992,1993,1995,1998,2003,2004,2007, Gaussian, Inc.
                  All Rights Reserved.
  
 This is the Gaussian(R) 03 program.  It is based on the
 the Gaussian(R) 98 system (copyright 1998, Gaussian, Inc.),
 the Gaussian(R) 94 system (copyright 1995, Gaussian, Inc.),
 the Gaussian 92(TM) system (copyright 1992, Gaussian, Inc.),
 the Gaussian 90(TM) system (copyright 1990, Gaussian, Inc.),
 the Gaussian 88(TM) system (copyright 1988, Gaussian, Inc.),
 the Gaussian 86(TM) system (copyright 1986, Carnegie Mellon
 University), and the Gaussian 82(TM) system (copyright 1983,
 Carnegie Mellon University). Gaussian is a federally registered
 trademark of Gaussian, Inc.
  
 This software contains proprietary and confidential information,
 including trade secrets, belonging to Gaussian, Inc.
  
 This software is provided under written license and may be
 used, copied, transmitted, or stored only in accord with that
 written license.
  
 The following legend is applicable only to US Government
 contracts under FAR:
  
                    RESTRICTED RIGHTS LEGEND
  
 Use, reproduction and disclosure by the US Government is
 subject to restrictions as set forth in subparagraphs (a)
 and (c) of the Commercial Computer Software - Restricted
 Rights clause in FAR 52.227-19.
  
 Gaussian, Inc.
 340 Quinnipiac St., Bldg. 40, Wallingford CT 06492
  
  
 ---------------------------------------------------------------
 Warning -- This program may not be used in any manner that
 competes with the business of Gaussian, Inc. or will provide
 assistance to any competitor of Gaussian, Inc.  The licensee
 of this program is prohibited from giving any competitor of
 Gaussian, Inc. access to this program.  By using this program,
 the user acknowledges that Gaussian, Inc. is engaged in the
 business of creating and licensing software in the field of
 computational chemistry and represents and warrants to the
 licensee that it is not a competitor of Gaussian, Inc. and that
 it will not use this program in any manner prohibited above.
 ---------------------------------------------------------------
  

 Cite this work as:
 Gaussian 03, Revision E.01,
 M. J. Frisch, G. W. Trucks, H. B. Schlegel, G. E. Scuseria, 
 M. A. Robb, J. R. Cheeseman, J. A. Montgomery, Jr., T. Vreven, 
 K. N. Kudin, J. C. Burant, J. M. Millam, S. S. Iyengar, J. Tomasi, 
 V. Barone, B. Mennucci, M. Cossi, G. Scalmani, N. Rega, 
 G. A. Petersson, H. Nakatsuji, M. Hada, M. Ehara, K. Toyota, 
 R. Fukuda, J. Hasegawa, M. Ishida, T. Nakajima, Y. Honda, O. Kitao, 
 H. Nakai, M. Klene, X. Li, J. E. Knox, H. P. Hratchian, J. B. Cross, 
 V. Bakken, C. Adamo, J. Jaramillo, R. Gomperts, R. E. Stratmann, 
 O. Yazyev, A. J. Austin, R. Cammi, C. Pomelli, J. W. Ochterski, 
 P. Y. Ayala, K. Morokuma, G. A. Voth, P. Salvador, J. J. Dannenberg, 
 V. G. Zakrzewski, S. Dapprich, A. D. Daniels, M. C. Strain, 
 O. Farkas, D. K. Malick, A. D. Rabuck, K. Raghavachari, 
 J. B. Foresman, J. V. Ortiz, Q. Cui, A. G. Baboul, S. Clifford, 
 J. Cioslowski, B. B. Stefanov, G. Liu, A. Liashenko, P. Piskorz, 
 I. Komaromi, R. L. Martin, D. J. Fox, T. Keith, M. A. Al-Laham, 
 C. Y. Peng, A. Nanayakkara, M. Challacombe, P. M. W. Gill, 
 B. Johnson, W. Chen, M. W. Wong, C. Gonzalez, and J. A. Pople, 
 Gaussian, Inc., Wallingford CT, 2004.
 
 ******************************************
 Gaussian 03:  EM64T-G03RevE.01 11-Sep-2007
                12-Jun-2015 
 ******************************************
 %nproc=2
 Will use up to    2 processors via shared memory.
 Default route:  MP2=Direct MaxDisk=2000MB
 ----------------------------------------------------
 # b3lyp/6-31+G(d,p) int=ultrafine pop=(ReadRadii,MK)
 ----------------------------------------------------

 Warning!  SCF SP cutoffs with diffuse functions may be unreliable.
 Consider SCF=Tight

 1/38=1/1;
 2/17=6,18=5,40=1/2;
 3/5=1,6=6,7=111,11=2,16=1,25=1,30=1,74=-5,75=5/1,2,3;
 4//1;
 5/5=2,32=1,38=5/2;
 6/7=2,8=2,9=2,10=2,15=8,20=101,28=1/1,2;
 99/5=1,9=1/99;
 -----------------------------------------
 mol_16.4.25.pdbc_plusQ.out.z51575.zip.xyz
 -----------------------------------------
 Symbolic Z-matrix:
 Charge =  1 Multiplicity = 1
 O                    -1.44211  -1.27351   0.0001 
 O                     1.71171   0.0001    0.78733 
 Ca                    0.76149   1.85843  -0.00031 
 P                    -2.31976  -0.00019   0.00032 
 O                    -1.44225   1.27337  -0.00081 
 Ca                    0.76177  -1.85828  -0.00055 
 O                     1.71406   0.00003  -0.78507 
 
                          Input orientation:                          
 ---------------------------------------------------------------------
 Center     Atomic     Atomic              Coordinates (Angstroms)
 Number     Number      Type              X           Y           Z
 ---------------------------------------------------------------------
    1          8             0       -1.442110   -1.273510    0.000100
    2          8             0        1.711710    0.000100    0.787330
    3         20             0        0.761490    1.858430   -0.000310
    4         15             0       -2.319760   -0.000190    0.000320
    5          8             0       -1.442250    1.273370   -0.000810
    6         20             0        0.761770   -1.858280   -0.000550
    7          8             0        1.714060    0.000030   -0.785070
 ---------------------------------------------------------------------
                    Distance matrix (angstroms):
                    1          2          3          4          5
     1  O    0.000000
     2  O    3.491188   0.000000
     3  Ca   3.829478   2.230849   0.000000
     4  P    1.546484   4.107570   3.598412   0.000000
     5  O    2.546880   3.491396   2.280080   1.546603   0.000000
     6  Ca   2.280141   2.230856   3.716710   3.598378   3.829482
     7  O    3.492822   1.572402   2.230894   4.109567   3.492671
                    6          7
     6  Ca   0.000000
     7  O    2.230615   0.000000
 Stoichiometry    Ca2O4P(1+)
 Framework group  C1[X(Ca2O4P)]
 Deg. of freedom    15
 Full point group                 C1
 Largest Abelian subgroup         C1      NOp   1
 Largest concise Abelian subgroup C1      NOp   1
                         Standard orientation:                         
 ---------------------------------------------------------------------
 Center     Atomic     Atomic              Coordinates (Angstroms)
 Number     Number      Type              X           Y           Z
 ---------------------------------------------------------------------
    1          8             0       -1.442140   -1.273478    0.000100
    2          8             0        1.711709    0.000060    0.787330
    3         20             0        0.761532    1.858412   -0.000310
    4         15             0       -2.319761   -0.000138    0.000320
    5          8             0       -1.442222    1.273402   -0.000810
    6         20             0        0.761727   -1.858298   -0.000550
    7          8             0        1.714059   -0.000010   -0.785070
 ---------------------------------------------------------------------
 Rotational constants (GHZ):      1.4536174      1.2853734      0.7206316
 Standard basis: 6-31+G(d,p) (6D, 7F)
 There are   153 symmetry adapted basis functions of A   symmetry.
 Integral buffers will be    131072 words long.
 Raffenetti 2 integral format.
 Two-electron integral symmetry is turned on.
   153 basis functions,   344 primitive gaussians,   153 cartesian basis functions
    43 alpha electrons       43 beta electrons
       nuclear repulsion energy       602.1516417389 Hartrees.
 NAtoms=    7 NActive=    7 NUniq=    7 SFac= 7.50D-01 NAtFMM=   80 NAOKFM=F Big=F
 One-electron integrals computed using PRISM.
 NBasis=   153 RedAO= T  NBF=   153
 NBsUse=   153 1.00D-06 NBFU=   153
 Harris functional with IExCor=  402 diagonalized for initial guess.
 ExpMin= 7.10D-03 ExpMax= 3.53D+04 ExpMxC= 5.30D+03 IAcc=3 IRadAn=         5 AccDes= 0.00D+00
 HarFok:  IExCor= 402 AccDes= 0.00D+00 IRadAn=         5 IDoV=1
 ScaDFX=  1.000000  1.000000  1.000000  1.000000
 Initial guess orbital symmetries:
       Occupied  (A) (A) (A) (A) (A) (A) (A) (A) (A) (A) (A) (A)
                 (A) (A) (A) (A) (A) (A) (A) (A) (A) (A) (A) (A)
                 (A) (A) (A) (A) (A) (A) (A) (A) (A) (A) (A) (A)
                 (A) (A) (A) (A) (A) (A) (A)
       Virtual   (A) (A) (A) (A) (A) (A) (A) (A) (A) (A) (A) (A)
                 (A) (A) (A) (A) (A) (A) (A) (A) (A) (A) (A) (A)
                 (A) (A) (A) (A) (A) (A) (A) (A) (A) (A) (A) (A)
                 (A) (A) (A) (A) (A) (A) (A) (A) (A) (A) (A) (A)
                 (A) (A) (A) (A) (A) (A) (A) (A) (A) (A) (A) (A)
                 (A) (A) (A) (A) (A) (A) (A) (A) (A) (A) (A) (A)
                 (A) (A) (A) (A) (A) (A) (A) (A) (A) (A) (A) (A)
                 (A) (A) (A) (A) (A) (A) (A) (A) (A) (A) (A) (A)
                 (A) (A) (A) (A) (A) (A) (A) (A) (A) (A) (A) (A)
                 (A) (A)
 The electronic state of the initial guess is 1-A.
 Requested convergence on RMS density matrix=1.00D-04 within 128 cycles.
 Requested convergence on MAX density matrix=1.00D-02.
 Requested convergence on             energy=1.00D-02.
 No special actions if energy rises.
 SCF Done:  E(RB+HF-LYP) =  -1997.33372449     A.U. after    6 cycles
             Convg  =    0.4413D-04             -V/T =  2.0031
             S**2   =   0.0000

 **********************************************************************

            Population analysis using the SCF density.

 **********************************************************************

 Orbital symmetries:
       Occupied  (A) (A) (A) (A) (A) (A) (A) (A) (A) (A) (A) (A)
                 (A) (A) (A) (A) (A) (A) (A) (A) (A) (A) (A) (A)
                 (A) (A) (A) (A) (A) (A) (A) (A) (A) (A) (A) (A)
                 (A) (A) (A) (A) (A) (A) (A)
       Virtual   (A) (A) (A) (A) (A) (A) (A) (A) (A) (A) (A) (A)
                 (A) (A) (A) (A) (A) (A) (A) (A) (A) (A) (A) (A)
                 (A) (A) (A) (A) (A) (A) (A) (A) (A) (A) (A) (A)
                 (A) (A) (A) (A) (A) (A) (A) (A) (A) (A) (A) (A)
                 (A) (A) (A) (A) (A) (A) (A) (A) (A) (A) (A) (A)
                 (A) (A) (A) (A) (A) (A) (A) (A) (A) (A) (A) (A)
                 (A) (A) (A) (A) (A) (A) (A) (A) (A) (A) (A) (A)
                 (A) (A) (A) (A) (A) (A) (A) (A) (A) (A) (A) (A)
                 (A) (A) (A) (A) (A) (A) (A) (A) (A) (A) (A) (A)
                 (A) (A)
 The electronic state is 1-A.
 Alpha  occ. eigenvalues -- -145.53245-145.53243 -77.30158 -19.27951 -19.27945
 Alpha  occ. eigenvalues --  -19.25611 -19.25561 -15.60091 -15.60090 -12.73306
 Alpha  occ. eigenvalues --  -12.73305 -12.73288 -12.73287 -12.73206 -12.73204
 Alpha  occ. eigenvalues --   -6.75640  -4.92079  -4.91864  -4.91420  -1.97234
 Alpha  occ. eigenvalues --   -1.97208  -1.25763  -1.24804  -1.24790  -1.24724
 Alpha  occ. eigenvalues --   -1.24723  -1.24301  -1.13922  -1.08552  -1.08248
 Alpha  occ. eigenvalues --   -0.89519  -0.67702  -0.57279  -0.52820  -0.52598
 Alpha  occ. eigenvalues --   -0.48992  -0.47944  -0.46118  -0.45759  -0.43898
 Alpha  occ. eigenvalues --   -0.40697  -0.37190  -0.34164
 Alpha virt. eigenvalues --   -0.20456  -0.19849  -0.19631  -0.14480  -0.11367
 Alpha virt. eigenvalues --   -0.11279  -0.10319  -0.09665  -0.09042  -0.07375
 Alpha virt. eigenvalues --   -0.07215  -0.06431  -0.05961  -0.05215  -0.04856
 Alpha virt. eigenvalues --   -0.04431  -0.04388  -0.04082  -0.03997  -0.03872
 Alpha virt. eigenvalues --   -0.03337  -0.02376   0.00222   0.01114   0.02012
 Alpha virt. eigenvalues --    0.02950   0.03328   0.03645   0.04214   0.05048
 Alpha virt. eigenvalues --    0.05150   0.05191   0.06784   0.07028   0.07279
 Alpha virt. eigenvalues --    0.07477   0.08122   0.08220   0.12231   0.13582
 Alpha virt. eigenvalues --    0.14154   0.14771   0.16276   0.16815   0.16922
 Alpha virt. eigenvalues --    0.18690   0.20336   0.21718   0.24410   0.26748
 Alpha virt. eigenvalues --    0.28311   0.29469   0.31801   0.32155   0.32490
 Alpha virt. eigenvalues --    0.36023   0.36757   0.40430   0.43970   0.45547
 Alpha virt. eigenvalues --    0.48020   0.56604   0.57826   0.60210   0.65643
 Alpha virt. eigenvalues --    0.71382   0.87017   0.90194   0.94382   1.03572
 Alpha virt. eigenvalues --    1.05865   1.07986   1.08400   1.12010   1.12329
 Alpha virt. eigenvalues --    1.14818   1.15164   1.17899   1.20710   1.23942
 Alpha virt. eigenvalues --    1.28603   1.38351   1.43010   1.46782   1.50566
 Alpha virt. eigenvalues --    1.50930   1.58060   1.66235   1.68023   1.70615
 Alpha virt. eigenvalues --    1.71276   1.75770   1.80032   1.81228   1.82389
 Alpha virt. eigenvalues --    1.84416   1.85986   1.86062   1.92951   2.09476
 Alpha virt. eigenvalues --    2.16198   2.16963   2.53551   2.67525   3.00300
 Alpha virt. eigenvalues --    3.38477   3.83797   3.90581   3.97511   4.05865
          Condensed to atoms (all electrons):
              1          2          3          4          5          6
     1  O    8.815407   0.002573   0.002344  -0.094547  -0.086002   0.067438
     2  O    0.002573   8.516221   0.105870  -0.004348   0.002558   0.105817
     3  Ca   0.002344   0.105870  18.210006  -0.019111   0.067462  -0.016658
     4  P   -0.094547  -0.004348  -0.019111  14.567312  -0.094383  -0.019110
     5  O   -0.086002   0.002558   0.067462  -0.094383   8.815278   0.002344
     6  Ca   0.067438   0.105817  -0.016658  -0.019110   0.002344  18.210042
     7  O    0.002529  -0.059674   0.106040  -0.004429   0.002543   0.106113
              7
     1  O    0.002529
     2  O   -0.059674
     3  Ca   0.106040
     4  P   -0.004429
     5  O    0.002543
     6  Ca   0.106113
     7  O    8.514993
 Mulliken atomic charges:
              1
     1  O   -0.709742
     2  O   -0.669018
     3  Ca   1.544045
     4  P    0.668616
     5  O   -0.709801
     6  Ca   1.544014
     7  O   -0.668115
 Sum of Mulliken charges=   1.00000
 Atomic charges with hydrogens summed into heavy atoms:
              1
     1  O   -0.709742
     2  O   -0.669018
     3  Ca   1.544045
     4  P    0.668616
     5  O   -0.709801
     6  Ca   1.544014
     7  O   -0.668115
 Sum of Mulliken charges=   1.00000
 Electronic spatial extent (au):  <R**2>=  1378.2118
 Charge=     1.0000 electrons
 Dipole moment (field-independent basis, Debye):
    X=     3.1442    Y=     0.0005    Z=    -0.0145  Tot=     3.1442
 Quadrupole moment (field-independent basis, Debye-Ang):
   XX=   -66.4961   YY=    -8.8702   ZZ=   -58.2532
   XY=    -0.0015   XZ=    -0.0205   YZ=     0.0080
 Traceless Quadrupole moment (field-independent basis, Debye-Ang):
   XX=   -21.9563   YY=    35.6696   ZZ=   -13.7133
   XY=    -0.0015   XZ=    -0.0205   YZ=     0.0080
 Octapole moment (field-independent basis, Debye-Ang**2):
  XXX=    -6.8927  YYY=     0.0124  ZZZ=    -0.0360  XYY=    70.8762
  XXY=    -0.0071  XXZ=    -0.0221  XZZ=    -1.4134  YZZ=    -0.0002
  YYZ=    -0.0250  XYZ=    -0.0035
 Hexadecapole moment (field-independent basis, Debye-Ang**3):
 XXXX=  -942.6759 YYYY=  -329.5136 ZZZZ=  -103.9584 XXXY=    -0.0058
 XXXZ=     0.0080 YYYX=    -0.0063 YYYZ=     0.0323 ZZZX=    -0.0521
 ZZZY=     0.0122 XXYY=  -220.6875 XXZZ=  -174.4441 YYZZ=  -103.3926
 XXYZ=     0.0127 YYXZ=    -0.0287 ZZXY=    -0.0009
 N-N= 6.021516417389D+02 E-N=-5.923739619479D+03  KE= 1.991110791803D+03
 Merz-Kollman atomic radii used.
 Read replacement radii for each type of atom:
 Rad(20) =   1.188000000000D+00
 Atom Element Radius
    1     8    1.40
    2     8    1.40
    3    20    1.19
    4    15    1.80
    5     8    1.40
    6    20    1.19
    7     8    1.40

 **********************************************************************

            Electrostatic Properties Using The SCF Density

 **********************************************************************

       Atomic Center    1 is at  -1.442140 -1.273478  0.000100
       Atomic Center    2 is at   1.711709  0.000060  0.787330
       Atomic Center    3 is at   0.761532  1.858412 -0.000310
       Atomic Center    4 is at  -2.319761 -0.000138  0.000320
       Atomic Center    5 is at  -1.442222  1.273402 -0.000810
       Atomic Center    6 is at   0.761727 -1.858298 -0.000550
       Atomic Center    7 is at   1.714059 -0.000010 -0.785070
     713 points will be used for fitting atomic charges
 Fitting point charges to eletrostatic potential
 Charges from ESP fit, RMS=   0.00428 RRMS=   0.02802:
 Charge=   1.00000 Dipole=     2.9979     0.0005    -0.0140 Tot=     2.9979
              1
     1  O   -0.751694
     2  O   -0.787579
     3  Ca   1.722171
     4  P    0.633745
     5  O   -0.751718
     6  Ca   1.722164
     7  O   -0.787090
 -----------------------------------------------------------------

              Electrostatic Properties (Atomic Units)

 -----------------------------------------------------------------
    Center     Electric         -------- Electric Field --------
               Potential          X             Y             Z
 -----------------------------------------------------------------
    1 Atom    -22.184213
    2 Atom    -22.214868
    3 Atom    -80.007963
    4 Atom    -53.916390
    5 Atom    -22.184105
    6 Atom    -80.007981
    7 Atom    -22.213259
 -----------------------------------------------------------------
 1\1\GINC-N026\SP\RB3LYP\6-31+G(d,p)\Ca2O4P1(1+)\TIMN\12-Jun-2015\0\\# 
 b3lyp/6-31+G(d,p) int=ultrafine pop=(ReadRadii,MK)\\mol_16.4.25.pdbc_p
 lusQ.out.z51575.zip.xyz\\1,1\O,0,-1.44211,-1.27351,0.0001\O,0,1.71171,
 0.0001,0.78733\Ca,0,0.76149,1.85843,-0.00031\P,0,-2.31976,-0.00019,0.0
 0032\O,0,-1.44225,1.27337,-0.00081\Ca,0,0.76177,-1.85828,-0.00055\O,0,
 1.71406,0.00003,-0.78507\\Version=EM64T-G03RevE.01\State=1-A\HF=-1997.
 3337245\RMSD=4.413e-05\Thermal=0.\Dipole=1.2370289,0.0002369,-0.005700
 5\PG=C01 [X(Ca2O4P1)]\\@


 THERE'S SMALL CHOICE IN A BOWL OF ROTTEN APPLES.
                     SHAKESPEARE
 Job cpu time:  0 days  0 hours  0 minutes 45.1 seconds.
 File lengths (MBytes):  RWF=     28 Int=      0 D2E=      0 Chk=     10 Scr=      1
 Normal termination of Gaussian 03 at Fri Jun 12 17:48:08 2015.
