 Entering Gaussian System, Link 0=/home/timn/tmp/g03.e01/g03
 Input=mol_17.25.50.pdbcccc_plusQ.z58356.zip.xyz.gjf
 Output=mol_17.25.50.pdbcccc_plusQ.z58356.zip.xyz.out
 Initial command:
 /home/timn/tmp/g03.e01/l1.exe /home/timn/tmp/g03.e01/Gau-13125.inp -scrdir=/home/timn/tmp/g03.e01/
 Default is to use a total of   2 processors:
                                2 via shared-memory
                                1 via Linda
 Entering Link 1 = /home/timn/tmp/g03.e01/l1.exe PID=     13126.
  
 Copyright (c) 1988,1990,1992,1993,1995,1998,2003,2004,2007, Gaussian, Inc.
                  All Rights Reserved.
  
 This is the Gaussian(R) 03 program.  It is based on the
 the Gaussian(R) 98 system (copyright 1998, Gaussian, Inc.),
 the Gaussian(R) 94 system (copyright 1995, Gaussian, Inc.),
 the Gaussian 92(TM) system (copyright 1992, Gaussian, Inc.),
 the Gaussian 90(TM) system (copyright 1990, Gaussian, Inc.),
 the Gaussian 88(TM) system (copyright 1988, Gaussian, Inc.),
 the Gaussian 86(TM) system (copyright 1986, Carnegie Mellon
 University), and the Gaussian 82(TM) system (copyright 1983,
 Carnegie Mellon University). Gaussian is a federally registered
 trademark of Gaussian, Inc.
  
 This software contains proprietary and confidential information,
 including trade secrets, belonging to Gaussian, Inc.
  
 This software is provided under written license and may be
 used, copied, transmitted, or stored only in accord with that
 written license.
  
 The following legend is applicable only to US Government
 contracts under FAR:
  
                    RESTRICTED RIGHTS LEGEND
  
 Use, reproduction and disclosure by the US Government is
 subject to restrictions as set forth in subparagraphs (a)
 and (c) of the Commercial Computer Software - Restricted
 Rights clause in FAR 52.227-19.
  
 Gaussian, Inc.
 340 Quinnipiac St., Bldg. 40, Wallingford CT 06492
  
  
 ---------------------------------------------------------------
 Warning -- This program may not be used in any manner that
 competes with the business of Gaussian, Inc. or will provide
 assistance to any competitor of Gaussian, Inc.  The licensee
 of this program is prohibited from giving any competitor of
 Gaussian, Inc. access to this program.  By using this program,
 the user acknowledges that Gaussian, Inc. is engaged in the
 business of creating and licensing software in the field of
 computational chemistry and represents and warrants to the
 licensee that it is not a competitor of Gaussian, Inc. and that
 it will not use this program in any manner prohibited above.
 ---------------------------------------------------------------
  

 Cite this work as:
 Gaussian 03, Revision E.01,
 M. J. Frisch, G. W. Trucks, H. B. Schlegel, G. E. Scuseria, 
 M. A. Robb, J. R. Cheeseman, J. A. Montgomery, Jr., T. Vreven, 
 K. N. Kudin, J. C. Burant, J. M. Millam, S. S. Iyengar, J. Tomasi, 
 V. Barone, B. Mennucci, M. Cossi, G. Scalmani, N. Rega, 
 G. A. Petersson, H. Nakatsuji, M. Hada, M. Ehara, K. Toyota, 
 R. Fukuda, J. Hasegawa, M. Ishida, T. Nakajima, Y. Honda, O. Kitao, 
 H. Nakai, M. Klene, X. Li, J. E. Knox, H. P. Hratchian, J. B. Cross, 
 V. Bakken, C. Adamo, J. Jaramillo, R. Gomperts, R. E. Stratmann, 
 O. Yazyev, A. J. Austin, R. Cammi, C. Pomelli, J. W. Ochterski, 
 P. Y. Ayala, K. Morokuma, G. A. Voth, P. Salvador, J. J. Dannenberg, 
 V. G. Zakrzewski, S. Dapprich, A. D. Daniels, M. C. Strain, 
 O. Farkas, D. K. Malick, A. D. Rabuck, K. Raghavachari, 
 J. B. Foresman, J. V. Ortiz, Q. Cui, A. G. Baboul, S. Clifford, 
 J. Cioslowski, B. B. Stefanov, G. Liu, A. Liashenko, P. Piskorz, 
 I. Komaromi, R. L. Martin, D. J. Fox, T. Keith, M. A. Al-Laham, 
 C. Y. Peng, A. Nanayakkara, M. Challacombe, P. M. W. Gill, 
 B. Johnson, W. Chen, M. W. Wong, C. Gonzalez, and J. A. Pople, 
 Gaussian, Inc., Wallingford CT, 2004.
 
 ******************************************
 Gaussian 03:  EM64T-G03RevE.01 11-Sep-2007
                12-Jun-2015 
 ******************************************
 %nproc=2
 Will use up to    2 processors via shared memory.
 Default route:  MP2=Direct MaxDisk=2000MB
 ----------------------------------------------------
 # b3lyp/6-31+G(d,p) int=ultrafine pop=(ReadRadii,MK)
 ----------------------------------------------------

 Warning!  SCF SP cutoffs with diffuse functions may be unreliable.
 Consider SCF=Tight

 1/38=1/1;
 2/17=6,18=5,40=1/2;
 3/5=1,6=6,7=111,11=2,16=1,25=1,30=1,74=-5,75=5/1,2,3;
 4//1;
 5/5=2,32=1,38=5/2;
 6/7=2,8=2,9=2,10=2,15=8,20=101,28=1/1,2;
 99/5=1,9=1/99;
 -----------------------------------------
 mol_17.25.50.pdbcccc_plusQ.z58356.zip.xyz
 -----------------------------------------
 Symbolic Z-matrix:
 Charge =  1 Multiplicity = 1
 O                    -1.94437  -1.2588    0.45887 
 O                    -3.01297  -0.40097   1.1311 
 P                    -0.41584  -0.53025   0.71666 
 Ca                   -2.7841    0.36237  -0.91905 
 Ca                    1.27772   1.98789   0.30129 
 O                    -0.64902   0.8454   -0.28558 
 O                     2.96631   0.76238  -0.08052 
 Ca                    2.68695  -1.32475  -0.35474 
 O                     0.46833  -1.51757  -0.13635 
 
                          Input orientation:                          
 ---------------------------------------------------------------------
 Center     Atomic     Atomic              Coordinates (Angstroms)
 Number     Number      Type              X           Y           Z
 ---------------------------------------------------------------------
    1          8             0       -1.944370   -1.258800    0.458870
    2          8             0       -3.012970   -0.400970    1.131100
    3         15             0       -0.415840   -0.530250    0.716660
    4         20             0       -2.784100    0.362370   -0.919050
    5         20             0        1.277720    1.987890    0.301290
    6          8             0       -0.649020    0.845400   -0.285580
    7          8             0        2.966310    0.762380   -0.080520
    8         20             0        2.686950   -1.324750   -0.354740
    9          8             0        0.468330   -1.517570   -0.136350
 ---------------------------------------------------------------------
                    Distance matrix (angstroms):
                    1          2          3          4          5
     1  O    0.000000
     2  O    1.526326   0.000000
     3  P    1.712789   2.633165   0.000000
     4  Ca   2.287357   2.199587   3.013465   0.000000
     5  Ca   4.576865   4.980488   3.062957   4.542018   0.000000
     6  O    2.580658   3.024678   1.717926   2.278853   2.315605
     7  O    5.337686   6.210732   3.707469   5.824977   2.121082
     8  Ca   4.702705   5.962397   3.377341   5.753017   3.659220
     9  O    2.498474   3.869454   1.576129   3.837329   3.624209
                    6          7          8          9
     6  O    0.000000
     7  O    3.622092   0.000000
     8  Ca   3.980330   2.123523   0.000000
     9  O    2.618085   3.382483   2.237666   0.000000
 Stoichiometry    Ca3O5P(1+)
 Framework group  C1[X(Ca3O5P)]
 Deg. of freedom    21
 Full point group                 C1
 Largest Abelian subgroup         C1      NOp   1
 Largest concise Abelian subgroup C1      NOp   1
                         Standard orientation:                         
 ---------------------------------------------------------------------
 Center     Atomic     Atomic              Coordinates (Angstroms)
 Number     Number      Type              X           Y           Z
 ---------------------------------------------------------------------
    1          8             0       -1.944372   -1.258797    0.458869
    2          8             0       -3.012971   -0.400966    1.131099
    3         15             0       -0.415841   -0.530249    0.716659
    4         20             0       -2.784100    0.362374   -0.919051
    5         20             0        1.277722    1.987889    0.301289
    6          8             0       -0.649019    0.845401   -0.285581
    7          8             0        2.966311    0.762376   -0.080521
    8         20             0        2.686948   -1.324753   -0.354741
    9          8             0        0.468328   -1.517570   -0.136351
 ---------------------------------------------------------------------
 Rotational constants (GHZ):      1.2286051      0.4555494      0.3735191
 Standard basis: 6-31+G(d,p) (6D, 7F)
 There are   199 symmetry adapted basis functions of A   symmetry.
 Integral buffers will be    131072 words long.
 Raffenetti 2 integral format.
 Two-electron integral symmetry is turned on.
   199 basis functions,   456 primitive gaussians,   199 cartesian basis functions
    57 alpha electrons       57 beta electrons
       nuclear repulsion energy       977.0350234658 Hartrees.
 NAtoms=    9 NActive=    9 NUniq=    9 SFac= 7.50D-01 NAtFMM=   80 NAOKFM=F Big=F
 One-electron integrals computed using PRISM.
 NBasis=   199 RedAO= T  NBF=   199
 NBsUse=   199 1.00D-06 NBFU=   199
 Harris functional with IExCor=  402 diagonalized for initial guess.
 ExpMin= 7.10D-03 ExpMax= 3.53D+04 ExpMxC= 5.30D+03 IAcc=3 IRadAn=         5 AccDes= 0.00D+00
 HarFok:  IExCor= 402 AccDes= 0.00D+00 IRadAn=         5 IDoV=1
 ScaDFX=  1.000000  1.000000  1.000000  1.000000
 Initial guess orbital symmetries:
       Occupied  (A) (A) (A) (A) (A) (A) (A) (A) (A) (A) (A) (A)
                 (A) (A) (A) (A) (A) (A) (A) (A) (A) (A) (A) (A)
                 (A) (A) (A) (A) (A) (A) (A) (A) (A) (A) (A) (A)
                 (A) (A) (A) (A) (A) (A) (A) (A) (A) (A) (A) (A)
                 (A) (A) (A) (A) (A) (A) (A) (A) (A)
       Virtual   (A) (A) (A) (A) (A) (A) (A) (A) (A) (A) (A) (A)
                 (A) (A) (A) (A) (A) (A) (A) (A) (A) (A) (A) (A)
                 (A) (A) (A) (A) (A) (A) (A) (A) (A) (A) (A) (A)
                 (A) (A) (A) (A) (A) (A) (A) (A) (A) (A) (A) (A)
                 (A) (A) (A) (A) (A) (A) (A) (A) (A) (A) (A) (A)
                 (A) (A) (A) (A) (A) (A) (A) (A) (A) (A) (A) (A)
                 (A) (A) (A) (A) (A) (A) (A) (A) (A) (A) (A) (A)
                 (A) (A) (A) (A) (A) (A) (A) (A) (A) (A) (A) (A)
                 (A) (A) (A) (A) (A) (A) (A) (A) (A) (A) (A) (A)
                 (A) (A) (A) (A) (A) (A) (A) (A) (A) (A) (A) (A)
                 (A) (A) (A) (A) (A) (A) (A) (A) (A) (A) (A) (A)
                 (A) (A) (A) (A) (A) (A) (A) (A) (A) (A)
 The electronic state of the initial guess is 1-A.
 Requested convergence on RMS density matrix=1.00D-04 within 128 cycles.
 Requested convergence on MAX density matrix=1.00D-02.
 Requested convergence on             energy=1.00D-02.
 No special actions if energy rises.
 EnCoef did     3 forward-backward iterations
 EnCoef did   100 forward-backward iterations
 SCF Done:  E(RB+HF-LYP) =  -2750.12385966     A.U. after    9 cycles
             Convg  =    0.4974D-04             -V/T =  2.0029
             S**2   =   0.0000

 **********************************************************************

            Population analysis using the SCF density.

 **********************************************************************

 Orbital symmetries:
       Occupied  (A) (A) (A) (A) (A) (A) (A) (A) (A) (A) (A) (A)
                 (A) (A) (A) (A) (A) (A) (A) (A) (A) (A) (A) (A)
                 (A) (A) (A) (A) (A) (A) (A) (A) (A) (A) (A) (A)
                 (A) (A) (A) (A) (A) (A) (A) (A) (A) (A) (A) (A)
                 (A) (A) (A) (A) (A) (A) (A) (A) (A)
       Virtual   (A) (A) (A) (A) (A) (A) (A) (A) (A) (A) (A) (A)
                 (A) (A) (A) (A) (A) (A) (A) (A) (A) (A) (A) (A)
                 (A) (A) (A) (A) (A) (A) (A) (A) (A) (A) (A) (A)
                 (A) (A) (A) (A) (A) (A) (A) (A) (A) (A) (A) (A)
                 (A) (A) (A) (A) (A) (A) (A) (A) (A) (A) (A) (A)
                 (A) (A) (A) (A) (A) (A) (A) (A) (A) (A) (A) (A)
                 (A) (A) (A) (A) (A) (A) (A) (A) (A) (A) (A) (A)
                 (A) (A) (A) (A) (A) (A) (A) (A) (A) (A) (A) (A)
                 (A) (A) (A) (A) (A) (A) (A) (A) (A) (A) (A) (A)
                 (A) (A) (A) (A) (A) (A) (A) (A) (A) (A) (A) (A)
                 (A) (A) (A) (A) (A) (A) (A) (A) (A) (A) (A) (A)
                 (A) (A) (A) (A) (A) (A) (A) (A) (A) (A)
 The electronic state is 1-A.
 Alpha  occ. eigenvalues -- -145.52461-145.49020-145.48651 -77.25667 -19.27822
 Alpha  occ. eigenvalues --  -19.22837 -19.22138 -19.21059 -19.12477 -15.59292
 Alpha  occ. eigenvalues --  -15.55906 -15.55547 -12.72515 -12.72455 -12.72416
 Alpha  occ. eigenvalues --  -12.69156 -12.69101 -12.68961 -12.68797 -12.68719
 Alpha  occ. eigenvalues --  -12.68617  -6.70818  -4.87215  -4.87158  -4.86610
 Alpha  occ. eigenvalues --   -1.96470  -1.93143  -1.92785  -1.24744  -1.23995
 Alpha  occ. eigenvalues --   -1.23682  -1.21016  -1.20803  -1.20626  -1.20376
 Alpha  occ. eigenvalues --   -1.20121  -1.19561  -1.12444  -1.05474  -1.01514
 Alpha  occ. eigenvalues --   -0.89722  -0.86718  -0.63915  -0.53425  -0.51605
 Alpha  occ. eigenvalues --   -0.50595  -0.47028  -0.44589  -0.42847  -0.41261
 Alpha  occ. eigenvalues --   -0.38430  -0.33903  -0.32804  -0.32485  -0.31766
 Alpha  occ. eigenvalues --   -0.30861  -0.30583
 Alpha virt. eigenvalues --   -0.20706  -0.18577  -0.17493  -0.12515  -0.12232
 Alpha virt. eigenvalues --   -0.10367  -0.09894  -0.09383  -0.08639  -0.08230
 Alpha virt. eigenvalues --   -0.07493  -0.07341  -0.07103  -0.05903  -0.05761
 Alpha virt. eigenvalues --   -0.05299  -0.04962  -0.04664  -0.04349  -0.03952
 Alpha virt. eigenvalues --   -0.03832  -0.03814  -0.03390  -0.03151  -0.03009
 Alpha virt. eigenvalues --   -0.02889  -0.01768  -0.00415   0.00352   0.00962
 Alpha virt. eigenvalues --    0.02305   0.03253   0.03790   0.04214   0.04337
 Alpha virt. eigenvalues --    0.04824   0.05003   0.05485   0.05952   0.06538
 Alpha virt. eigenvalues --    0.06714   0.07341   0.07774   0.08420   0.09490
 Alpha virt. eigenvalues --    0.09868   0.10223   0.11076   0.11268   0.11861
 Alpha virt. eigenvalues --    0.12376   0.12960   0.14487   0.14813   0.16940
 Alpha virt. eigenvalues --    0.17636   0.18281   0.19965   0.21739   0.21827
 Alpha virt. eigenvalues --    0.23283   0.24703   0.25260   0.25809   0.26643
 Alpha virt. eigenvalues --    0.27714   0.28450   0.29555   0.31030   0.31915
 Alpha virt. eigenvalues --    0.32693   0.33397   0.37176   0.37476   0.38652
 Alpha virt. eigenvalues --    0.41368   0.43221   0.45122   0.47775   0.51444
 Alpha virt. eigenvalues --    0.53416   0.60320   0.60955   0.64305   0.66841
 Alpha virt. eigenvalues --    0.73900   0.80070   0.86649   0.92349   0.96937
 Alpha virt. eigenvalues --    1.02507   1.12376   1.13357   1.14327   1.15159
 Alpha virt. eigenvalues --    1.16668   1.17304   1.19232   1.20015   1.22067
 Alpha virt. eigenvalues --    1.22682   1.25714   1.27691   1.29459   1.31627
 Alpha virt. eigenvalues --    1.37646   1.45648   1.48884   1.54193   1.57194
 Alpha virt. eigenvalues --    1.58051   1.59631   1.68738   1.73420   1.74938
 Alpha virt. eigenvalues --    1.75217   1.76890   1.79716   1.82169   1.84642
 Alpha virt. eigenvalues --    1.84884   1.85210   1.88041   1.90355   1.90975
 Alpha virt. eigenvalues --    1.94308   1.96130   1.97369   2.03028   2.03307
 Alpha virt. eigenvalues --    2.23378   2.25610   2.35376   2.47579   2.68625
 Alpha virt. eigenvalues --    3.09650   3.51660   3.96260   3.98233   4.04435
 Alpha virt. eigenvalues --    4.11544   4.21277
          Condensed to atoms (all electrons):
              1          2          3          4          5          6
     1  O    8.460459   0.006003  -0.114451   0.041596   0.014308  -0.019802
     2  O    0.006003   8.381344  -0.078909   0.164377   0.002972   0.053672
     3  P   -0.114451  -0.078909  15.713493  -0.010923  -0.072273  -0.614179
     4  Ca   0.041596   0.164377  -0.010923  18.281328  -0.008770   0.065552
     5  Ca   0.014308   0.002972  -0.072273  -0.008770  18.290971   0.097478
     6  O   -0.019802   0.053672  -0.614179   0.065552   0.097478   9.306868
     7  O    0.002466   0.000409  -0.036746   0.000104   0.228708   0.010453
     8  Ca   0.005520   0.002115  -0.042177  -0.001869  -0.008801   0.014038
     9  O    0.104823  -0.001926  -0.556678   0.004747   0.032558   0.125487
              7          8          9
     1  O    0.002466   0.005520   0.104823
     2  O    0.000409   0.002115  -0.001926
     3  P   -0.036746  -0.042177  -0.556678
     4  Ca   0.000104  -0.001869   0.004747
     5  Ca   0.228708  -0.008801   0.032558
     6  O    0.010453   0.014038   0.125487
     7  O    8.757340   0.216391   0.007875
     8  Ca   0.216391  18.273617   0.099941
     9  O    0.007875   0.099941   9.066400
 Mulliken atomic charges:
              1
     1  O   -0.500922
     2  O   -0.530057
     3  P    0.812843
     4  Ca   1.463857
     5  Ca   1.422849
     6  O   -1.039568
     7  O   -1.186999
     8  Ca   1.441225
     9  O   -0.883227
 Sum of Mulliken charges=   1.00000
 Atomic charges with hydrogens summed into heavy atoms:
              1
     1  O   -0.500922
     2  O   -0.530057
     3  P    0.812843
     4  Ca   1.463857
     5  Ca   1.422849
     6  O   -1.039568
     7  O   -1.186999
     8  Ca   1.441225
     9  O   -0.883227
 Sum of Mulliken charges=   1.00000
 Electronic spatial extent (au):  <R**2>=  2685.8094
 Charge=     1.0000 electrons
 Dipole moment (field-independent basis, Debye):
    X=     0.3940    Y=     5.2302    Z=    -8.2450  Tot=     9.7719
 Quadrupole moment (field-independent basis, Debye-Ang):
   XX=   -42.2227   YY=   -46.7536   ZZ=   -72.5136
   XY=   -32.6901   XZ=    26.1388   YZ=     7.1048
 Traceless Quadrupole moment (field-independent basis, Debye-Ang):
   XX=    11.6073   YY=     7.0763   ZZ=   -18.6836
   XY=   -32.6901   XZ=    26.1388   YZ=     7.1048
 Octapole moment (field-independent basis, Debye-Ang**2):
  XXX=   -81.2936  YYY=    67.7328  ZZZ=   -34.3929  XYY=    68.9522
  XXY=   -53.4503  XXZ=  -105.9718  XZZ=    -7.3034  YZZ=     5.5261
  YYZ=     0.5535  XYZ=    20.2477
 Hexadecapole moment (field-independent basis, Debye-Ang**3):
 XXXX= -1872.3370 YYYY=  -505.1670 ZZZZ=  -258.6869 XXXY=  -495.2724
 XXXZ=   259.7782 YYYX=   -32.3390 YYYZ=    38.1364 ZZZX=    71.9944
 ZZZY=    16.6040 XXYY=  -319.4499 XXZZ=  -336.8263 YYZZ=  -139.0814
 XXYZ=    38.4860 YYXZ=    20.3964 ZZXY=   -32.8188
 N-N= 9.770350234658D+02 E-N=-8.456022377099D+03  KE= 2.742141851819D+03
 Merz-Kollman atomic radii used.
 Read replacement radii for each type of atom:
 Rad(20) =   1.188000000000D+00
 Atom Element Radius
    1     8    1.40
    2     8    1.40
    3    15    1.80
    4    20    1.19
    5    20    1.19
    6     8    1.40
    7     8    1.40
    8    20    1.19
    9     8    1.40

 **********************************************************************

            Electrostatic Properties Using The SCF Density

 **********************************************************************

       Atomic Center    1 is at  -1.944372 -1.258797  0.458869
       Atomic Center    2 is at  -3.012971 -0.400966  1.131099
       Atomic Center    3 is at  -0.415841 -0.530249  0.716659
       Atomic Center    4 is at  -2.784100  0.362374 -0.919051
       Atomic Center    5 is at   1.277722  1.987889  0.301289
       Atomic Center    6 is at  -0.649019  0.845401 -0.285581
       Atomic Center    7 is at   2.966311  0.762376 -0.080521
       Atomic Center    8 is at   2.686948 -1.324753 -0.354741
       Atomic Center    9 is at   0.468328 -1.517570 -0.136351
     799 points will be used for fitting atomic charges
 Fitting point charges to eletrostatic potential
 Charges from ESP fit, RMS=   0.00717 RRMS=   0.04580:
 Charge=   1.00000 Dipole=     0.4128     5.2673    -8.5089 Tot=    10.0158
              1
     1  O   -0.124935
     2  O   -0.656479
     3  P    0.126002
     4  Ca   1.622257
     5  Ca   1.654363
     6  O   -1.046250
     7  O   -1.509494
     8  Ca   1.659185
     9  O   -0.724649
 -----------------------------------------------------------------

              Electrostatic Properties (Atomic Units)

 -----------------------------------------------------------------
    Center     Electric         -------- Electric Field --------
               Potential          X             Y             Z
 -----------------------------------------------------------------
    1 Atom    -22.191595
    2 Atom    -22.252238
    3 Atom    -53.956713
    4 Atom    -80.016166
    5 Atom    -80.050923
    6 Atom    -22.234252
    7 Atom    -22.338398
    8 Atom    -80.055050
    9 Atom    -22.253367
 -----------------------------------------------------------------
 1\1\GINC-N031\SP\RB3LYP\6-31+G(d,p)\Ca3O5P1(1+)\TIMN\12-Jun-2015\0\\# 
 b3lyp/6-31+G(d,p) int=ultrafine pop=(ReadRadii,MK)\\mol_17.25.50.pdbcc
 cc_plusQ.z58356.zip.xyz\\1,1\O,0,-1.94437,-1.2588,0.45887\O,0,-3.01297
 ,-0.40097,1.1311\P,0,-0.41584,-0.53025,0.71666\Ca,0,-2.7841,0.36237,-0
 .91905\Ca,0,1.27772,1.98789,0.30129\O,0,-0.64902,0.8454,-0.28558\O,0,2
 .96631,0.76238,-0.08052\Ca,0,2.68695,-1.32475,-0.35474\O,0,0.46833,-1.
 51757,-0.13635\\Version=EM64T-G03RevE.01\State=1-A\HF=-2750.1238597\RM
 SD=4.974e-05\Thermal=0.\Dipole=0.1550012,2.0577102,-3.2438446\PG=C01 [
 X(Ca3O5P1)]\\@


 Life may have no meaning.  Or even worse, it may have a
 meaning of which I disapprove.
                                 -- Ashleigh Brilliant
 Job cpu time:  0 days  0 hours  2 minutes 12.8 seconds.
 File lengths (MBytes):  RWF=     36 Int=      0 D2E=      0 Chk=     11 Scr=      1
 Normal termination of Gaussian 03 at Fri Jun 12 17:58:43 2015.
