 Entering Gaussian System, Link 0=/home/timn/tmp/g03.e01/g03
 Input=mol_16.4.58.pdbcc_plusQ.out.z51608.zip.xyz.gjf
 Output=mol_16.4.58.pdbcc_plusQ.out.z51608.zip.xyz.out
 Initial command:
 /home/timn/tmp/g03.e01/l1.exe /home/timn/tmp/g03.e01/Gau-14108.inp -scrdir=/home/timn/tmp/g03.e01/
 Default is to use a total of   2 processors:
                                2 via shared-memory
                                1 via Linda
 Entering Link 1 = /home/timn/tmp/g03.e01/l1.exe PID=     14109.
  
 Copyright (c) 1988,1990,1992,1993,1995,1998,2003,2004,2007, Gaussian, Inc.
                  All Rights Reserved.
  
 This is the Gaussian(R) 03 program.  It is based on the
 the Gaussian(R) 98 system (copyright 1998, Gaussian, Inc.),
 the Gaussian(R) 94 system (copyright 1995, Gaussian, Inc.),
 the Gaussian 92(TM) system (copyright 1992, Gaussian, Inc.),
 the Gaussian 90(TM) system (copyright 1990, Gaussian, Inc.),
 the Gaussian 88(TM) system (copyright 1988, Gaussian, Inc.),
 the Gaussian 86(TM) system (copyright 1986, Carnegie Mellon
 University), and the Gaussian 82(TM) system (copyright 1983,
 Carnegie Mellon University). Gaussian is a federally registered
 trademark of Gaussian, Inc.
  
 This software contains proprietary and confidential information,
 including trade secrets, belonging to Gaussian, Inc.
  
 This software is provided under written license and may be
 used, copied, transmitted, or stored only in accord with that
 written license.
  
 The following legend is applicable only to US Government
 contracts under FAR:
  
                    RESTRICTED RIGHTS LEGEND
  
 Use, reproduction and disclosure by the US Government is
 subject to restrictions as set forth in subparagraphs (a)
 and (c) of the Commercial Computer Software - Restricted
 Rights clause in FAR 52.227-19.
  
 Gaussian, Inc.
 340 Quinnipiac St., Bldg. 40, Wallingford CT 06492
  
  
 ---------------------------------------------------------------
 Warning -- This program may not be used in any manner that
 competes with the business of Gaussian, Inc. or will provide
 assistance to any competitor of Gaussian, Inc.  The licensee
 of this program is prohibited from giving any competitor of
 Gaussian, Inc. access to this program.  By using this program,
 the user acknowledges that Gaussian, Inc. is engaged in the
 business of creating and licensing software in the field of
 computational chemistry and represents and warrants to the
 licensee that it is not a competitor of Gaussian, Inc. and that
 it will not use this program in any manner prohibited above.
 ---------------------------------------------------------------
  

 Cite this work as:
 Gaussian 03, Revision E.01,
 M. J. Frisch, G. W. Trucks, H. B. Schlegel, G. E. Scuseria, 
 M. A. Robb, J. R. Cheeseman, J. A. Montgomery, Jr., T. Vreven, 
 K. N. Kudin, J. C. Burant, J. M. Millam, S. S. Iyengar, J. Tomasi, 
 V. Barone, B. Mennucci, M. Cossi, G. Scalmani, N. Rega, 
 G. A. Petersson, H. Nakatsuji, M. Hada, M. Ehara, K. Toyota, 
 R. Fukuda, J. Hasegawa, M. Ishida, T. Nakajima, Y. Honda, O. Kitao, 
 H. Nakai, M. Klene, X. Li, J. E. Knox, H. P. Hratchian, J. B. Cross, 
 V. Bakken, C. Adamo, J. Jaramillo, R. Gomperts, R. E. Stratmann, 
 O. Yazyev, A. J. Austin, R. Cammi, C. Pomelli, J. W. Ochterski, 
 P. Y. Ayala, K. Morokuma, G. A. Voth, P. Salvador, J. J. Dannenberg, 
 V. G. Zakrzewski, S. Dapprich, A. D. Daniels, M. C. Strain, 
 O. Farkas, D. K. Malick, A. D. Rabuck, K. Raghavachari, 
 J. B. Foresman, J. V. Ortiz, Q. Cui, A. G. Baboul, S. Clifford, 
 J. Cioslowski, B. B. Stefanov, G. Liu, A. Liashenko, P. Piskorz, 
 I. Komaromi, R. L. Martin, D. J. Fox, T. Keith, M. A. Al-Laham, 
 C. Y. Peng, A. Nanayakkara, M. Challacombe, P. M. W. Gill, 
 B. Johnson, W. Chen, M. W. Wong, C. Gonzalez, and J. A. Pople, 
 Gaussian, Inc., Wallingford CT, 2004.
 
 ******************************************
 Gaussian 03:  EM64T-G03RevE.01 11-Sep-2007
                12-Jun-2015 
 ******************************************
 %nproc=2
 Will use up to    2 processors via shared memory.
 Default route:  MP2=Direct MaxDisk=2000MB
 ----------------------------------------------------
 # b3lyp/6-31+G(d,p) int=ultrafine pop=(ReadRadii,MK)
 ----------------------------------------------------

 Warning!  SCF SP cutoffs with diffuse functions may be unreliable.
 Consider SCF=Tight

 1/38=1/1;
 2/17=6,18=5,40=1/2;
 3/5=1,6=6,7=111,11=2,16=1,25=1,30=1,74=-5,75=5/1,2,3;
 4//1;
 5/5=2,32=1,38=5/2;
 6/7=2,8=2,9=2,10=2,15=8,20=101,28=1/1,2;
 99/5=1,9=1/99;
 ------------------------------------------
 mol_16.4.58.pdbcc_plusQ.out.z51608.zip.xyz
 ------------------------------------------
 Symbolic Z-matrix:
 Charge =  1 Multiplicity = 1
 O                     0.04455   1.6732   -0.01987 
 O                     3.36842  -0.32498   0.85733 
 O                     3.58643  -0.05557  -0.38387 
 Ca                    1.22215  -0.41168  -0.24217 
 P                    -1.437     2.03874   0.01944 
 Ca                   -2.67971  -1.0441    0.12716 
 O                    -0.66113  -1.47583  -0.20252 
 
                          Input orientation:                          
 ---------------------------------------------------------------------
 Center     Atomic     Atomic              Coordinates (Angstroms)
 Number     Number      Type              X           Y           Z
 ---------------------------------------------------------------------
    1          8             0        0.044550    1.673200   -0.019870
    2          8             0        3.368420   -0.324980    0.857330
    3          8             0        3.586430   -0.055570   -0.383870
    4         20             0        1.222150   -0.411680   -0.242170
    5         15             0       -1.437000    2.038740    0.019440
    6         20             0       -2.679710   -1.044100    0.127160
    7          8             0       -0.661130   -1.475830   -0.202520
 ---------------------------------------------------------------------
                    Distance matrix (angstroms):
                    1          2          3          4          5
     1  O    0.000000
     2  O    3.976219   0.000000
     3  O    3.958037   1.288677   0.000000
     4  Ca   2.404763   2.413067   2.395144   0.000000
     5  P    1.526485   5.420451   5.457439   3.625476   0.000000
     6  Ca   3.850575   6.134343   6.364185   3.969996   3.325633
     7  O    3.232296   4.322616   4.482387   2.163500   3.606029
                    6          7
     6  Ca   0.000000
     7  O    2.090393   0.000000
 Stoichiometry    Ca2O4P(1+)
 Framework group  C1[X(Ca2O4P)]
 Deg. of freedom    15
 Full point group                 C1
 Largest Abelian subgroup         C1      NOp   1
 Largest concise Abelian subgroup C1      NOp   1
                         Standard orientation:                         
 ---------------------------------------------------------------------
 Center     Atomic     Atomic              Coordinates (Angstroms)
 Number     Number      Type              X           Y           Z
 ---------------------------------------------------------------------
    1          8             0        0.044552    1.673199   -0.019870
    2          8             0        3.368420   -0.324984    0.857330
    3          8             0        3.586430   -0.055574   -0.383870
    4         20             0        1.222150   -0.411682   -0.242170
    5         15             0       -1.436997    2.038741    0.019440
    6         20             0       -2.679711   -1.044098    0.127160
    7          8             0       -0.661131   -1.475830   -0.202520
 ---------------------------------------------------------------------
 Rotational constants (GHZ):      1.8167791      0.6143402      0.4744205
 Standard basis: 6-31+G(d,p) (6D, 7F)
 There are   153 symmetry adapted basis functions of A   symmetry.
 Integral buffers will be    131072 words long.
 Raffenetti 2 integral format.
 Two-electron integral symmetry is turned on.
   153 basis functions,   344 primitive gaussians,   153 cartesian basis functions
    43 alpha electrons       43 beta electrons
       nuclear repulsion energy       531.0047771401 Hartrees.
 NAtoms=    7 NActive=    7 NUniq=    7 SFac= 7.50D-01 NAtFMM=   80 NAOKFM=F Big=F
 One-electron integrals computed using PRISM.
 NBasis=   153 RedAO= T  NBF=   153
 NBsUse=   153 1.00D-06 NBFU=   153
 Harris functional with IExCor=  402 diagonalized for initial guess.
 ExpMin= 7.10D-03 ExpMax= 3.53D+04 ExpMxC= 5.30D+03 IAcc=3 IRadAn=         5 AccDes= 0.00D+00
 HarFok:  IExCor= 402 AccDes= 0.00D+00 IRadAn=         5 IDoV=1
 ScaDFX=  1.000000  1.000000  1.000000  1.000000
 Initial guess orbital symmetries:
       Occupied  (A) (A) (A) (A) (A) (A) (A) (A) (A) (A) (A) (A)
                 (A) (A) (A) (A) (A) (A) (A) (A) (A) (A) (A) (A)
                 (A) (A) (A) (A) (A) (A) (A) (A) (A) (A) (A) (A)
                 (A) (A) (A) (A) (A) (A) (A)
       Virtual   (A) (A) (A) (A) (A) (A) (A) (A) (A) (A) (A) (A)
                 (A) (A) (A) (A) (A) (A) (A) (A) (A) (A) (A) (A)
                 (A) (A) (A) (A) (A) (A) (A) (A) (A) (A) (A) (A)
                 (A) (A) (A) (A) (A) (A) (A) (A) (A) (A) (A) (A)
                 (A) (A) (A) (A) (A) (A) (A) (A) (A) (A) (A) (A)
                 (A) (A) (A) (A) (A) (A) (A) (A) (A) (A) (A) (A)
                 (A) (A) (A) (A) (A) (A) (A) (A) (A) (A) (A) (A)
                 (A) (A) (A) (A) (A) (A) (A) (A) (A) (A) (A) (A)
                 (A) (A) (A) (A) (A) (A) (A) (A) (A) (A) (A) (A)
                 (A) (A)
 The electronic state of the initial guess is 1-A.
 Requested convergence on RMS density matrix=1.00D-04 within 128 cycles.
 Requested convergence on MAX density matrix=1.00D-02.
 Requested convergence on             energy=1.00D-02.
 No special actions if energy rises.
 EnCoef did     7 forward-backward iterations
 EnCoef did     7 forward-backward iterations
 EnCoef did   100 forward-backward iterations
 EnCoef did   100 forward-backward iterations
 EnCoef did   100 forward-backward iterations
 EnCoef did    10 forward-backward iterations
 EnCoef did   100 forward-backward iterations
 EnCoef did   100 forward-backward iterations
 EnCoef did   100 forward-backward iterations
 EnCoef did   100 forward-backward iterations
 EnCoef did   100 forward-backward iterations
 SCF Done:  E(RB+HF-LYP) =  -1997.07602724     A.U. after   16 cycles
             Convg  =    0.4854D-04             -V/T =  2.0030
             S**2   =   0.0000

 **********************************************************************

            Population analysis using the SCF density.

 **********************************************************************

 Orbital symmetries:
       Occupied  (A) (A) (A) (A) (A) (A) (A) (A) (A) (A) (A) (A)
                 (A) (A) (A) (A) (A) (A) (A) (A) (A) (A) (A) (A)
                 (A) (A) (A) (A) (A) (A) (A) (A) (A) (A) (A) (A)
                 (A) (A) (A) (A) (A) (A) (A)
       Virtual   (A) (A) (A) (A) (A) (A) (A) (A) (A) (A) (A) (A)
                 (A) (A) (A) (A) (A) (A) (A) (A) (A) (A) (A) (A)
                 (A) (A) (A) (A) (A) (A) (A) (A) (A) (A) (A) (A)
                 (A) (A) (A) (A) (A) (A) (A) (A) (A) (A) (A) (A)
                 (A) (A) (A) (A) (A) (A) (A) (A) (A) (A) (A) (A)
                 (A) (A) (A) (A) (A) (A) (A) (A) (A) (A) (A) (A)
                 (A) (A) (A) (A) (A) (A) (A) (A) (A) (A) (A) (A)
                 (A) (A) (A) (A) (A) (A) (A) (A) (A) (A) (A) (A)
                 (A) (A) (A) (A) (A) (A) (A) (A) (A) (A) (A) (A)
                 (A) (A)
 The electronic state is 1-A.
 Alpha  occ. eigenvalues -- -145.55860-145.49154 -77.31377 -19.37977 -19.37882
 Alpha  occ. eigenvalues --  -19.33606 -19.17383 -15.62740 -15.56057 -12.75966
 Alpha  occ. eigenvalues --  -12.75929 -12.75821 -12.69313 -12.69271 -12.69112
 Alpha  occ. eigenvalues --   -6.77600  -4.94209  -4.93663  -4.93218  -1.99799
 Alpha  occ. eigenvalues --   -1.93358  -1.31915  -1.27443  -1.27174  -1.26638
 Alpha  occ. eigenvalues --   -1.21364  -1.21204  -1.19990  -1.15958  -0.91520
 Alpha  occ. eigenvalues --   -0.91041  -0.71046  -0.61211  -0.58885  -0.58435
 Alpha  occ. eigenvalues --   -0.55317  -0.53874  -0.53124  -0.37896  -0.37540
 Alpha  occ. eigenvalues --   -0.35513  -0.35459  -0.32757
 Alpha virt. eigenvalues --   -0.30653  -0.27837  -0.23518  -0.16572  -0.15181
 Alpha virt. eigenvalues --   -0.14252  -0.11938  -0.11306  -0.09815  -0.08738
 Alpha virt. eigenvalues --   -0.07396  -0.06389  -0.06062  -0.05879  -0.05445
 Alpha virt. eigenvalues --   -0.05158  -0.04790  -0.04118  -0.03842  -0.03727
 Alpha virt. eigenvalues --   -0.02921  -0.01600  -0.00941   0.00022   0.01277
 Alpha virt. eigenvalues --    0.01967   0.02145   0.02536   0.03125   0.03350
 Alpha virt. eigenvalues --    0.04398   0.05291   0.05613   0.05886   0.06697
 Alpha virt. eigenvalues --    0.07366   0.07434   0.09470   0.11075   0.11265
 Alpha virt. eigenvalues --    0.11924   0.13358   0.13745   0.15076   0.15488
 Alpha virt. eigenvalues --    0.16412   0.16967   0.19388   0.22023   0.22854
 Alpha virt. eigenvalues --    0.25263   0.26317   0.29111   0.30328   0.31057
 Alpha virt. eigenvalues --    0.32083   0.34017   0.35475   0.38252   0.38800
 Alpha virt. eigenvalues --    0.45517   0.46669   0.49504   0.53942   0.55341
 Alpha virt. eigenvalues --    0.62904   0.70571   0.85625   0.90864   0.96972
 Alpha virt. eigenvalues --    1.02089   1.03438   1.04274   1.05122   1.07139
 Alpha virt. eigenvalues --    1.09190   1.11805   1.14742   1.16733   1.18675
 Alpha virt. eigenvalues --    1.27660   1.33722   1.36475   1.38524   1.42212
 Alpha virt. eigenvalues --    1.44250   1.49970   1.54155   1.63521   1.68724
 Alpha virt. eigenvalues --    1.74433   1.78439   1.79550   1.80436   1.81795
 Alpha virt. eigenvalues --    1.82831   1.85222   1.87288   1.93612   2.08425
 Alpha virt. eigenvalues --    2.20248   2.38980   2.42266   2.59178   2.91331
 Alpha virt. eigenvalues --    3.30344   3.81566   3.83883   3.93250   4.00775
          Condensed to atoms (all electrons):
              1          2          3          4          5          6
     1  O    8.501298   0.004158  -0.002721   0.001623  -0.006230  -0.036244
     2  O    0.004158   7.952459   0.145137   0.069300  -0.001309   0.002611
     3  O   -0.002721   0.145137   7.951277   0.080208  -0.000477  -0.000602
     4  Ca   0.001623   0.069300   0.080208  18.280920   0.028017  -0.006037
     5  P   -0.006230  -0.001309  -0.000477   0.028017  14.549047   0.164382
     6  Ca  -0.036244   0.002611  -0.000602  -0.006037   0.164382  18.385810
     7  O    0.013894   0.003198  -0.002111   0.177010  -0.032351   0.228491
              7
     1  O    0.013894
     2  O    0.003198
     3  O   -0.002111
     4  Ca   0.177010
     5  P   -0.032351
     6  Ca   0.228491
     7  O    8.719291
 Mulliken atomic charges:
              1
     1  O   -0.475780
     2  O   -0.175554
     3  O   -0.170711
     4  Ca   1.368959
     5  P    0.298921
     6  Ca   1.261589
     7  O   -1.107423
 Sum of Mulliken charges=   1.00000
 Atomic charges with hydrogens summed into heavy atoms:
              1
     1  O   -0.475780
     2  O   -0.175554
     3  O   -0.170711
     4  Ca   1.368959
     5  P    0.298921
     6  Ca   1.261589
     7  O   -1.107423
 Sum of Mulliken charges=   1.00000
 Electronic spatial extent (au):  <R**2>=  2025.7731
 Charge=     1.0000 electrons
 Dipole moment (field-independent basis, Debye):
    X=   -12.8899    Y=    -1.8485    Z=    -0.1485  Tot=    13.0226
 Quadrupole moment (field-independent basis, Debye-Ang):
   XX=   -20.5538   YY=   -60.2277   ZZ=   -56.1323
   XY=     8.8165   XZ=    -6.6134   YZ=    -1.2200
 Traceless Quadrupole moment (field-independent basis, Debye-Ang):
   XX=    25.0841   YY=   -14.5897   ZZ=   -10.4944
   XY=     8.8165   XZ=    -6.6134   YZ=    -1.2200
 Octapole moment (field-independent basis, Debye-Ang**2):
  XXX=  -193.4276  YYY=   -12.4224  ZZZ=    -1.3462  XYY=   -18.4671
  XXY=   -61.0999  XXZ=    -0.7005  XZZ=    -4.8117  YZZ=    -2.1877
  YYZ=     4.8041  XYZ=     6.6393
 Hexadecapole moment (field-independent basis, Debye-Ang**3):
 XXXX= -1452.4379 YYYY=  -693.3694 ZZZZ=   -96.9724 XXXY=   202.0177
 XXXZ=   -37.0190 YYYX=    43.4074 YYYZ=    -3.4346 ZZZX=   -13.7083
 ZZZY=    -3.0810 XXYY=  -289.5870 XXZZ=  -283.1007 YYZZ=  -118.3588
 XXYZ=    -3.5019 YYXZ=   -10.5893 ZZXY=    10.0177
 N-N= 5.310047771401D+02 E-N=-5.780173111486D+03  KE= 1.991008590088D+03
 Merz-Kollman atomic radii used.
 Read replacement radii for each type of atom:
 Rad(20) =   1.188000000000D+00
 Atom Element Radius
    1     8    1.40
    2     8    1.40
    3     8    1.40
    4    20    1.19
    5    15    1.80
    6    20    1.19
    7     8    1.40

 **********************************************************************

            Electrostatic Properties Using The SCF Density

 **********************************************************************

       Atomic Center    1 is at   0.044552  1.673199 -0.019870
       Atomic Center    2 is at   3.368420 -0.324984  0.857330
       Atomic Center    3 is at   3.586430 -0.055574 -0.383870
       Atomic Center    4 is at   1.222150 -0.411682 -0.242170
       Atomic Center    5 is at  -1.436997  2.038741  0.019440
       Atomic Center    6 is at  -2.679711 -1.044098  0.127160
       Atomic Center    7 is at  -0.661131 -1.475830 -0.202520
     846 points will be used for fitting atomic charges
 Fitting point charges to eletrostatic potential
 Charges from ESP fit, RMS=   0.00806 RRMS=   0.05451:
 Charge=   1.00000 Dipole=   -13.1167    -2.0665    -0.0821 Tot=    13.2788
              1
     1  O   -0.367406
     2  O   -0.216042
     3  O   -0.192957
     4  Ca   1.547600
     5  P    0.128195
     6  Ca   1.454180
     7  O   -1.353570
 -----------------------------------------------------------------

              Electrostatic Properties (Atomic Units)

 -----------------------------------------------------------------
    Center     Electric         -------- Electric Field --------
               Potential          X             Y             Z
 -----------------------------------------------------------------
    1 Atom    -22.124483
    2 Atom    -22.108503
    3 Atom    -22.107860
    4 Atom    -80.050262
    5 Atom    -53.899288
    6 Atom    -79.981916
    7 Atom    -22.287986
 -----------------------------------------------------------------
 1\1\GINC-N029\SP\RB3LYP\6-31+G(d,p)\Ca2O4P1(1+)\TIMN\12-Jun-2015\0\\# 
 b3lyp/6-31+G(d,p) int=ultrafine pop=(ReadRadii,MK)\\mol_16.4.58.pdbcc_
 plusQ.out.z51608.zip.xyz\\1,1\O,0,0.04455,1.6732,-0.01987\O,0,3.36842,
 -0.32498,0.85733\O,0,3.58643,-0.05557,-0.38387\Ca,0,1.22215,-0.41168,-
 0.24217\P,0,-1.437,2.03874,0.01944\Ca,0,-2.67971,-1.0441,0.12716\O,0,-
 0.66113,-1.47583,-0.20252\\Version=EM64T-G03RevE.01\State=1-A\HF=-1997
 .0760272\RMSD=4.854e-05\Thermal=0.\Dipole=-5.0712739,-0.7272715,-0.058
 4218\PG=C01 [X(Ca2O4P1)]\\@


 PATIENCE IS THE ABILITY TO IDLE YOUR MOTOR WHEN
 YOU FEEL LIKE STRIPPING YOUR GEARS.
 Job cpu time:  0 days  0 hours  1 minutes 36.0 seconds.
 File lengths (MBytes):  RWF=     28 Int=      0 D2E=      0 Chk=     10 Scr=      1
 Normal termination of Gaussian 03 at Fri Jun 12 17:49:29 2015.
