 Entering Gaussian System, Link 0=/home/timn/tmp/g03.e01/g03
 Input=mol_17.22.36.pdbccc_plusQ.z58190.zip.xyz.gjf
 Output=mol_17.22.36.pdbccc_plusQ.z58190.zip.xyz.out
 Initial command:
 /home/timn/tmp/g03.e01/l1.exe /home/timn/tmp/g03.e01/Gau-17984.inp -scrdir=/home/timn/tmp/g03.e01/
 Default is to use a total of   2 processors:
                                2 via shared-memory
                                1 via Linda
 Entering Link 1 = /home/timn/tmp/g03.e01/l1.exe PID=     17985.
  
 Copyright (c) 1988,1990,1992,1993,1995,1998,2003,2004,2007, Gaussian, Inc.
                  All Rights Reserved.
  
 This is the Gaussian(R) 03 program.  It is based on the
 the Gaussian(R) 98 system (copyright 1998, Gaussian, Inc.),
 the Gaussian(R) 94 system (copyright 1995, Gaussian, Inc.),
 the Gaussian 92(TM) system (copyright 1992, Gaussian, Inc.),
 the Gaussian 90(TM) system (copyright 1990, Gaussian, Inc.),
 the Gaussian 88(TM) system (copyright 1988, Gaussian, Inc.),
 the Gaussian 86(TM) system (copyright 1986, Carnegie Mellon
 University), and the Gaussian 82(TM) system (copyright 1983,
 Carnegie Mellon University). Gaussian is a federally registered
 trademark of Gaussian, Inc.
  
 This software contains proprietary and confidential information,
 including trade secrets, belonging to Gaussian, Inc.
  
 This software is provided under written license and may be
 used, copied, transmitted, or stored only in accord with that
 written license.
  
 The following legend is applicable only to US Government
 contracts under FAR:
  
                    RESTRICTED RIGHTS LEGEND
  
 Use, reproduction and disclosure by the US Government is
 subject to restrictions as set forth in subparagraphs (a)
 and (c) of the Commercial Computer Software - Restricted
 Rights clause in FAR 52.227-19.
  
 Gaussian, Inc.
 340 Quinnipiac St., Bldg. 40, Wallingford CT 06492
  
  
 ---------------------------------------------------------------
 Warning -- This program may not be used in any manner that
 competes with the business of Gaussian, Inc. or will provide
 assistance to any competitor of Gaussian, Inc.  The licensee
 of this program is prohibited from giving any competitor of
 Gaussian, Inc. access to this program.  By using this program,
 the user acknowledges that Gaussian, Inc. is engaged in the
 business of creating and licensing software in the field of
 computational chemistry and represents and warrants to the
 licensee that it is not a competitor of Gaussian, Inc. and that
 it will not use this program in any manner prohibited above.
 ---------------------------------------------------------------
  

 Cite this work as:
 Gaussian 03, Revision E.01,
 M. J. Frisch, G. W. Trucks, H. B. Schlegel, G. E. Scuseria, 
 M. A. Robb, J. R. Cheeseman, J. A. Montgomery, Jr., T. Vreven, 
 K. N. Kudin, J. C. Burant, J. M. Millam, S. S. Iyengar, J. Tomasi, 
 V. Barone, B. Mennucci, M. Cossi, G. Scalmani, N. Rega, 
 G. A. Petersson, H. Nakatsuji, M. Hada, M. Ehara, K. Toyota, 
 R. Fukuda, J. Hasegawa, M. Ishida, T. Nakajima, Y. Honda, O. Kitao, 
 H. Nakai, M. Klene, X. Li, J. E. Knox, H. P. Hratchian, J. B. Cross, 
 V. Bakken, C. Adamo, J. Jaramillo, R. Gomperts, R. E. Stratmann, 
 O. Yazyev, A. J. Austin, R. Cammi, C. Pomelli, J. W. Ochterski, 
 P. Y. Ayala, K. Morokuma, G. A. Voth, P. Salvador, J. J. Dannenberg, 
 V. G. Zakrzewski, S. Dapprich, A. D. Daniels, M. C. Strain, 
 O. Farkas, D. K. Malick, A. D. Rabuck, K. Raghavachari, 
 J. B. Foresman, J. V. Ortiz, Q. Cui, A. G. Baboul, S. Clifford, 
 J. Cioslowski, B. B. Stefanov, G. Liu, A. Liashenko, P. Piskorz, 
 I. Komaromi, R. L. Martin, D. J. Fox, T. Keith, M. A. Al-Laham, 
 C. Y. Peng, A. Nanayakkara, M. Challacombe, P. M. W. Gill, 
 B. Johnson, W. Chen, M. W. Wong, C. Gonzalez, and J. A. Pople, 
 Gaussian, Inc., Wallingford CT, 2004.
 
 ******************************************
 Gaussian 03:  EM64T-G03RevE.01 11-Sep-2007
                12-Jun-2015 
 ******************************************
 %nproc=2
 Will use up to    2 processors via shared memory.
 Default route:  MP2=Direct MaxDisk=2000MB
 ----------------------------------------------------
 # b3lyp/6-31+G(d,p) int=ultrafine pop=(ReadRadii,MK)
 ----------------------------------------------------

 Warning!  SCF SP cutoffs with diffuse functions may be unreliable.
 Consider SCF=Tight

 1/38=1/1;
 2/17=6,18=5,40=1/2;
 3/5=1,6=6,7=111,11=2,16=1,25=1,30=1,74=-5,75=5/1,2,3;
 4//1;
 5/5=2,32=1,38=5/2;
 6/7=2,8=2,9=2,10=2,15=8,20=101,28=1/1,2;
 99/5=1,9=1/99;
 ----------------------------------------
 mol_17.22.36.pdbccc_plusQ.z58190.zip.xyz
 ----------------------------------------
 Symbolic Z-matrix:
 Charge =  1 Multiplicity = 1
 O                     1.61293   1.04048   0.00141 
 P                     3.1703    0.86689  -0.00067 
 Ca                    1.22147  -1.49297   0.00108 
 O                     3.4104   -0.65332  -0.00195 
 O                    -0.82149  -0.87972  -0.77773 
 O                    -0.82195  -0.87963   0.7778 
 Ca                   -3.07516  -0.6944   -0.00069 
 O                    -2.87479   1.4156   -0.00031 
 Ca                   -0.72607   1.51984   0.00043 
 
                          Input orientation:                          
 ---------------------------------------------------------------------
 Center     Atomic     Atomic              Coordinates (Angstroms)
 Number     Number      Type              X           Y           Z
 ---------------------------------------------------------------------
    1          8             0        1.612930    1.040480    0.001410
    2         15             0        3.170300    0.866890   -0.000670
    3         20             0        1.221470   -1.492970    0.001080
    4          8             0        3.410400   -0.653320   -0.001950
    5          8             0       -0.821490   -0.879720   -0.777730
    6          8             0       -0.821950   -0.879630    0.777800
    7         20             0       -3.075160   -0.694400   -0.000690
    8          8             0       -2.874790    1.415600   -0.000310
    9         20             0       -0.726070    1.519840    0.000430
 ---------------------------------------------------------------------
                    Distance matrix (angstroms):
                    1          2          3          4          5
     1  O    0.000000
     2  P    1.567016   0.000000
     3  Ca   2.563515   3.060536   0.000000
     4  O    2.469791   1.539054   2.344448   0.000000
     5  O    3.196972   4.425930   2.270750   4.308362   0.000000
     6  O    3.196599   4.426557   2.270472   4.309526   1.555530
     7  Ca   4.998800   6.437655   4.370211   6.485690   2.391059
     8  O    4.503371   6.069942   5.023856   6.616951   3.176306
     9  Ca   2.387616   3.950702   3.587469   4.672581   2.524386
                    6          7          8          9
     6  O    0.000000
     7  Ca   2.391090   0.000000
     8  O    3.176112   2.119492   0.000000
     9  Ca   2.524075   3.228170   2.151247   0.000000
 Stoichiometry    Ca3O5P(1+)
 Framework group  C1[X(Ca3O5P)]
 Deg. of freedom    21
 Full point group                 C1
 Largest Abelian subgroup         C1      NOp   1
 Largest concise Abelian subgroup C1      NOp   1
                         Standard orientation:                         
 ---------------------------------------------------------------------
 Center     Atomic     Atomic              Coordinates (Angstroms)
 Number     Number      Type              X           Y           Z
 ---------------------------------------------------------------------
    1          8             0        1.612929    1.040480    0.001409
    2         15             0        3.170299    0.866890   -0.000671
    3         20             0        1.221469   -1.492970    0.001079
    4          8             0        3.410399   -0.653320   -0.001951
    5          8             0       -0.821491   -0.879720   -0.777731
    6          8             0       -0.821951   -0.879630    0.777799
    7         20             0       -3.075161   -0.694400   -0.000691
    8          8             0       -2.874791    1.415600   -0.000311
    9         20             0       -0.726071    1.519840    0.000429
 ---------------------------------------------------------------------
 Rotational constants (GHZ):      1.5587471      0.4317030      0.3470576
 Standard basis: 6-31+G(d,p) (6D, 7F)
 There are   199 symmetry adapted basis functions of A   symmetry.
 Integral buffers will be    131072 words long.
 Raffenetti 2 integral format.
 Two-electron integral symmetry is turned on.
   199 basis functions,   456 primitive gaussians,   199 cartesian basis functions
    57 alpha electrons       57 beta electrons
       nuclear repulsion energy       978.3754366187 Hartrees.
 NAtoms=    9 NActive=    9 NUniq=    9 SFac= 7.50D-01 NAtFMM=   80 NAOKFM=F Big=F
 One-electron integrals computed using PRISM.
 NBasis=   199 RedAO= T  NBF=   199
 NBsUse=   199 1.00D-06 NBFU=   199
 Harris functional with IExCor=  402 diagonalized for initial guess.
 ExpMin= 7.10D-03 ExpMax= 3.53D+04 ExpMxC= 5.30D+03 IAcc=3 IRadAn=         5 AccDes= 0.00D+00
 HarFok:  IExCor= 402 AccDes= 0.00D+00 IRadAn=         5 IDoV=1
 ScaDFX=  1.000000  1.000000  1.000000  1.000000
 Initial guess orbital symmetries:
       Occupied  (A) (A) (A) (A) (A) (A) (A) (A) (A) (A) (A) (A)
                 (A) (A) (A) (A) (A) (A) (A) (A) (A) (A) (A) (A)
                 (A) (A) (A) (A) (A) (A) (A) (A) (A) (A) (A) (A)
                 (A) (A) (A) (A) (A) (A) (A) (A) (A) (A) (A) (A)
                 (A) (A) (A) (A) (A) (A) (A) (A) (A)
       Virtual   (A) (A) (A) (A) (A) (A) (A) (A) (A) (A) (A) (A)
                 (A) (A) (A) (A) (A) (A) (A) (A) (A) (A) (A) (A)
                 (A) (A) (A) (A) (A) (A) (A) (A) (A) (A) (A) (A)
                 (A) (A) (A) (A) (A) (A) (A) (A) (A) (A) (A) (A)
                 (A) (A) (A) (A) (A) (A) (A) (A) (A) (A) (A) (A)
                 (A) (A) (A) (A) (A) (A) (A) (A) (A) (A) (A) (A)
                 (A) (A) (A) (A) (A) (A) (A) (A) (A) (A) (A) (A)
                 (A) (A) (A) (A) (A) (A) (A) (A) (A) (A) (A) (A)
                 (A) (A) (A) (A) (A) (A) (A) (A) (A) (A) (A) (A)
                 (A) (A) (A) (A) (A) (A) (A) (A) (A) (A) (A) (A)
                 (A) (A) (A) (A) (A) (A) (A) (A) (A) (A) (A) (A)
                 (A) (A) (A) (A) (A) (A) (A) (A) (A) (A)
 The electronic state of the initial guess is 1-A.
 Requested convergence on RMS density matrix=1.00D-04 within 128 cycles.
 Requested convergence on MAX density matrix=1.00D-02.
 Requested convergence on             energy=1.00D-02.
 No special actions if energy rises.
 EnCoef did     3 forward-backward iterations
 SCF Done:  E(RB+HF-LYP) =  -2750.19922775     A.U. after    8 cycles
             Convg  =    0.8775D-04             -V/T =  2.0029
             S**2   =   0.0000

 **********************************************************************

            Population analysis using the SCF density.

 **********************************************************************

 Orbital symmetries:
       Occupied  (A) (A) (A) (A) (A) (A) (A) (A) (A) (A) (A) (A)
                 (A) (A) (A) (A) (A) (A) (A) (A) (A) (A) (A) (A)
                 (A) (A) (A) (A) (A) (A) (A) (A) (A) (A) (A) (A)
                 (A) (A) (A) (A) (A) (A) (A) (A) (A) (A) (A) (A)
                 (A) (A) (A) (A) (A) (A) (A) (A) (A)
       Virtual   (A) (A) (A) (A) (A) (A) (A) (A) (A) (A) (A) (A)
                 (A) (A) (A) (A) (A) (A) (A) (A) (A) (A) (A) (A)
                 (A) (A) (A) (A) (A) (A) (A) (A) (A) (A) (A) (A)
                 (A) (A) (A) (A) (A) (A) (A) (A) (A) (A) (A) (A)
                 (A) (A) (A) (A) (A) (A) (A) (A) (A) (A) (A) (A)
                 (A) (A) (A) (A) (A) (A) (A) (A) (A) (A) (A) (A)
                 (A) (A) (A) (A) (A) (A) (A) (A) (A) (A) (A) (A)
                 (A) (A) (A) (A) (A) (A) (A) (A) (A) (A) (A) (A)
                 (A) (A) (A) (A) (A) (A) (A) (A) (A) (A) (A) (A)
                 (A) (A) (A) (A) (A) (A) (A) (A) (A) (A) (A) (A)
                 (A) (A) (A) (A) (A) (A) (A) (A) (A) (A) (A) (A)
                 (A) (A) (A) (A) (A) (A) (A) (A) (A) (A)
 The electronic state is 1-A.
 Alpha  occ. eigenvalues -- -145.53300-145.48091-145.46504 -77.31644 -19.29954
 Alpha  occ. eigenvalues --  -19.29134 -19.27654 -19.27649 -19.10308 -15.60145
 Alpha  occ. eigenvalues --  -15.54928 -15.53363 -12.73381 -12.73377 -12.73211
 Alpha  occ. eigenvalues --  -12.68147 -12.68111 -12.68032 -12.66617 -12.66581
 Alpha  occ. eigenvalues --  -12.66412  -6.77268  -4.93701  -4.93468  -4.93050
 Alpha  occ. eigenvalues --   -1.97330  -1.92127  -1.90672  -1.25313  -1.25143
 Alpha  occ. eigenvalues --   -1.25003  -1.20352  -1.19782  -1.19232  -1.18532
 Alpha  occ. eigenvalues --   -1.18453  -1.17871  -1.15551  -1.10911  -1.09761
 Alpha  occ. eigenvalues --   -0.91288  -0.84517  -0.68927  -0.57895  -0.55269
 Alpha  occ. eigenvalues --   -0.54480  -0.51223  -0.50446  -0.49464  -0.46898
 Alpha  occ. eigenvalues --   -0.45450  -0.42697  -0.38846  -0.36713  -0.30145
 Alpha  occ. eigenvalues --   -0.28560  -0.28507
 Alpha virt. eigenvalues --   -0.21594  -0.19566  -0.17908  -0.15031  -0.15008
 Alpha virt. eigenvalues --   -0.11255  -0.10530  -0.09853  -0.09285  -0.08794
 Alpha virt. eigenvalues --   -0.08672  -0.08135  -0.07317  -0.06845  -0.06402
 Alpha virt. eigenvalues --   -0.05269  -0.05161  -0.04774  -0.04392  -0.04325
 Alpha virt. eigenvalues --   -0.04067  -0.03927  -0.03833  -0.03755  -0.03163
 Alpha virt. eigenvalues --   -0.02885  -0.02820  -0.02756  -0.02037  -0.00681
 Alpha virt. eigenvalues --    0.01191   0.02371   0.03020   0.03129   0.03558
 Alpha virt. eigenvalues --    0.04612   0.04769   0.05250   0.05724   0.05975
 Alpha virt. eigenvalues --    0.06045   0.07075   0.07151   0.08139   0.08649
 Alpha virt. eigenvalues --    0.09111   0.09290   0.10067   0.10526   0.11196
 Alpha virt. eigenvalues --    0.12841   0.12876   0.14786   0.14994   0.16234
 Alpha virt. eigenvalues --    0.16462   0.16526   0.17571   0.18112   0.20915
 Alpha virt. eigenvalues --    0.21388   0.22317   0.22849   0.23438   0.24461
 Alpha virt. eigenvalues --    0.26196   0.28125   0.28803   0.29848   0.31220
 Alpha virt. eigenvalues --    0.31307   0.33454   0.35771   0.37590   0.39307
 Alpha virt. eigenvalues --    0.42553   0.43244   0.45404   0.47294   0.47382
 Alpha virt. eigenvalues --    0.51498   0.53835   0.56501   0.60333   0.61238
 Alpha virt. eigenvalues --    0.63763   0.84711   0.89742   0.94118   0.99257
 Alpha virt. eigenvalues --    1.04401   1.06951   1.08638   1.10106   1.11261
 Alpha virt. eigenvalues --    1.11289   1.14323   1.15316   1.17585   1.19318
 Alpha virt. eigenvalues --    1.19829   1.21079   1.24064   1.29916   1.34430
 Alpha virt. eigenvalues --    1.35821   1.41123   1.46713   1.47084   1.53200
 Alpha virt. eigenvalues --    1.54230   1.60418   1.65375   1.66159   1.66532
 Alpha virt. eigenvalues --    1.69486   1.73055   1.74303   1.76455   1.78983
 Alpha virt. eigenvalues --    1.82219   1.83847   1.84155   1.86192   1.87447
 Alpha virt. eigenvalues --    1.89442   1.92633   1.95955   2.01028   2.04357
 Alpha virt. eigenvalues --    2.16476   2.17781   2.17903   2.50727   2.67358
 Alpha virt. eigenvalues --    3.00528   3.38859   3.87252   3.89015   4.00837
 Alpha virt. eigenvalues --    4.08750   4.08989
          Condensed to atoms (all electrons):
              1          2          3          4          5          6
     1  O    8.921123  -0.159702   0.022365  -0.074576  -0.000430  -0.000441
     2  P   -0.159702  14.415623  -0.018414   0.111170  -0.004154  -0.004158
     3  Ca   0.022365  -0.018414  18.244146   0.079162   0.094649   0.094658
     4  O   -0.074576   0.111170   0.079162   8.529650  -0.001247  -0.001263
     5  O   -0.000430  -0.004154   0.094649  -0.001247   8.576914  -0.050446
     6  O   -0.000441  -0.004158   0.094658  -0.001263  -0.050446   8.576840
     7  Ca   0.005511  -0.012385  -0.016946   0.001043   0.050861   0.050875
     8  O   -0.005217  -0.001402   0.001302   0.000000   0.000559   0.000582
     9  Ca   0.034092  -0.006753  -0.004130   0.003498   0.027634   0.027611
              7          8          9
     1  O    0.005511  -0.005217   0.034092
     2  P   -0.012385  -0.001402  -0.006753
     3  Ca  -0.016946   0.001302  -0.004130
     4  O    0.001043   0.000000   0.003498
     5  O    0.050861   0.000559   0.027634
     6  O    0.050875   0.000582   0.027611
     7  Ca  18.361397   0.224094  -0.027331
     8  O    0.224094   8.679421   0.224589
     9  Ca  -0.027331   0.224589  18.364362
 Mulliken atomic charges:
              1
     1  O   -0.742726
     2  P    0.680176
     3  Ca   1.503208
     4  O   -0.647438
     5  O   -0.694341
     6  O   -0.694258
     7  Ca   1.362881
     8  O   -1.123928
     9  Ca   1.356427
 Sum of Mulliken charges=   1.00000
 Atomic charges with hydrogens summed into heavy atoms:
              1
     1  O   -0.742726
     2  P    0.680176
     3  Ca   1.503208
     4  O   -0.647438
     5  O   -0.694341
     6  O   -0.694258
     7  Ca   1.362881
     8  O   -1.123928
     9  Ca   1.356427
 Sum of Mulliken charges=   1.00000
 Electronic spatial extent (au):  <R**2>=  2764.2954
 Charge=     1.0000 electrons
 Dipole moment (field-independent basis, Debye):
    X=     0.3569    Y=    -7.6396    Z=     0.0071  Tot=     7.6479
 Quadrupole moment (field-independent basis, Debye-Ang):
   XX=   -63.4535   YY=   -57.0166   ZZ=   -77.2562
   XY=    23.1557   XZ=     0.0277   YZ=    -0.0125
 Traceless Quadrupole moment (field-independent basis, Debye-Ang):
   XX=     2.4553   YY=     8.8922   ZZ=   -11.3474
   XY=    23.1557   XZ=     0.0277   YZ=    -0.0125
 Octapole moment (field-independent basis, Debye-Ang**2):
  XXX=  -107.5983  YYY=   -37.9832  ZZZ=     0.0166  XYY=    27.7113
  XXY=  -109.5211  XXZ=     0.0276  XZZ=     2.9073  YZZ=    -3.4970
  YYZ=     0.0343  XYZ=    -0.0692
 Hexadecapole moment (field-independent basis, Debye-Ang**3):
 XXXX= -2335.1753 YYYY=  -569.6730 ZZZZ=  -129.5788 XXXY=   483.6293
 XXXZ=     0.3597 YYYX=     2.7923 YYYZ=    -0.0313 ZZZX=     0.0520
 ZZZY=    -0.0125 XXYY=  -575.8635 XXZZ=  -421.8503 YYZZ=  -130.0878
 XXYZ=    -0.0307 YYXZ=     0.0375 ZZXY=     6.1375
 N-N= 9.783754366187D+02 E-N=-8.456752840212D+03  KE= 2.742195382339D+03
 Merz-Kollman atomic radii used.
 Read replacement radii for each type of atom:
 Rad(20) =   1.188000000000D+00
 Atom Element Radius
    1     8    1.40
    2    15    1.80
    3    20    1.19
    4     8    1.40
    5     8    1.40
    6     8    1.40
    7    20    1.19
    8     8    1.40
    9    20    1.19

 **********************************************************************

            Electrostatic Properties Using The SCF Density

 **********************************************************************

       Atomic Center    1 is at   1.612929  1.040480  0.001409
       Atomic Center    2 is at   3.170299  0.866890 -0.000671
       Atomic Center    3 is at   1.221469 -1.492970  0.001079
       Atomic Center    4 is at   3.410399 -0.653320 -0.001951
       Atomic Center    5 is at  -0.821491 -0.879720 -0.777731
       Atomic Center    6 is at  -0.821951 -0.879630  0.777799
       Atomic Center    7 is at  -3.075161 -0.694400 -0.000691
       Atomic Center    8 is at  -2.874791  1.415600 -0.000311
       Atomic Center    9 is at  -0.726071  1.519840  0.000429
     878 points will be used for fitting atomic charges
 Fitting point charges to eletrostatic potential
 Charges from ESP fit, RMS=   0.00499 RRMS=   0.03332:
 Charge=   1.00000 Dipole=     0.0806    -7.7061     0.0071 Tot=     7.7066
              1
     1  O   -0.762616
     2  P    0.596356
     3  Ca   1.731695
     4  O   -0.647912
     5  O   -0.868091
     6  O   -0.868314
     7  Ca   1.631147
     8  O   -1.478150
     9  Ca   1.665886
 -----------------------------------------------------------------

              Electrostatic Properties (Atomic Units)

 -----------------------------------------------------------------
    Center     Electric         -------- Electric Field --------
               Potential          X             Y             Z
 -----------------------------------------------------------------
    1 Atom    -22.165655
    2 Atom    -53.900379
    3 Atom    -80.007452
    4 Atom    -22.175303
    5 Atom    -22.188399
    6 Atom    -22.188395
    7 Atom    -80.060586
    8 Atom    -22.360349
    9 Atom    -80.075533
 -----------------------------------------------------------------
 1\1\GINC-N021\SP\RB3LYP\6-31+G(d,p)\Ca3O5P1(1+)\TIMN\12-Jun-2015\0\\# 
 b3lyp/6-31+G(d,p) int=ultrafine pop=(ReadRadii,MK)\\mol_17.22.36.pdbcc
 c_plusQ.z58190.zip.xyz\\1,1\O,0,1.61293,1.04048,0.00141\P,0,3.1703,0.8
 6689,-0.00067\Ca,0,1.22147,-1.49297,0.00108\O,0,3.4104,-0.65332,-0.001
 95\O,0,-0.82149,-0.87972,-0.77773\O,0,-0.82195,-0.87963,0.7778\Ca,0,-3
 .07516,-0.6944,-0.00069\O,0,-2.87479,1.4156,-0.00031\Ca,0,-0.72607,1.5
 1984,0.00043\\Version=EM64T-G03RevE.01\State=1-A\HF=-2750.1992277\RMSD
 =8.775e-05\Thermal=0.\Dipole=0.1404187,-3.0056329,0.002797\PG=C01 [X(C
 a3O5P1)]\\@


 ACCORDING TO HEN3RY, LIFE IS MUCH LIKE A SEWER........
 YOU GET OUT OF IT JUST WHAT YOU PUT INTO IT...........
                         TOM LEHRER - (THE 3 IS SILENT)
 Job cpu time:  0 days  0 hours  1 minutes 55.2 seconds.
 File lengths (MBytes):  RWF=     36 Int=      0 D2E=      0 Chk=     11 Scr=      1
 Normal termination of Gaussian 03 at Fri Jun 12 17:50:35 2015.
