 Entering Gaussian System, Link 0=/home/timn/tmp/g03.e01/g03
 Input=mol_17.28.4.pdbcc_plusQ.z58574.zip.xyz.gjf
 Output=mol_17.28.4.pdbcc_plusQ.z58574.zip.xyz.out
 Initial command:
 /home/timn/tmp/g03.e01/l1.exe /home/timn/tmp/g03.e01/Gau-15191.inp -scrdir=/home/timn/tmp/g03.e01/
 Default is to use a total of   2 processors:
                                2 via shared-memory
                                1 via Linda
 Entering Link 1 = /home/timn/tmp/g03.e01/l1.exe PID=     15192.
  
 Copyright (c) 1988,1990,1992,1993,1995,1998,2003,2004,2007, Gaussian, Inc.
                  All Rights Reserved.
  
 This is the Gaussian(R) 03 program.  It is based on the
 the Gaussian(R) 98 system (copyright 1998, Gaussian, Inc.),
 the Gaussian(R) 94 system (copyright 1995, Gaussian, Inc.),
 the Gaussian 92(TM) system (copyright 1992, Gaussian, Inc.),
 the Gaussian 90(TM) system (copyright 1990, Gaussian, Inc.),
 the Gaussian 88(TM) system (copyright 1988, Gaussian, Inc.),
 the Gaussian 86(TM) system (copyright 1986, Carnegie Mellon
 University), and the Gaussian 82(TM) system (copyright 1983,
 Carnegie Mellon University). Gaussian is a federally registered
 trademark of Gaussian, Inc.
  
 This software contains proprietary and confidential information,
 including trade secrets, belonging to Gaussian, Inc.
  
 This software is provided under written license and may be
 used, copied, transmitted, or stored only in accord with that
 written license.
  
 The following legend is applicable only to US Government
 contracts under FAR:
  
                    RESTRICTED RIGHTS LEGEND
  
 Use, reproduction and disclosure by the US Government is
 subject to restrictions as set forth in subparagraphs (a)
 and (c) of the Commercial Computer Software - Restricted
 Rights clause in FAR 52.227-19.
  
 Gaussian, Inc.
 340 Quinnipiac St., Bldg. 40, Wallingford CT 06492
  
  
 ---------------------------------------------------------------
 Warning -- This program may not be used in any manner that
 competes with the business of Gaussian, Inc. or will provide
 assistance to any competitor of Gaussian, Inc.  The licensee
 of this program is prohibited from giving any competitor of
 Gaussian, Inc. access to this program.  By using this program,
 the user acknowledges that Gaussian, Inc. is engaged in the
 business of creating and licensing software in the field of
 computational chemistry and represents and warrants to the
 licensee that it is not a competitor of Gaussian, Inc. and that
 it will not use this program in any manner prohibited above.
 ---------------------------------------------------------------
  

 Cite this work as:
 Gaussian 03, Revision E.01,
 M. J. Frisch, G. W. Trucks, H. B. Schlegel, G. E. Scuseria, 
 M. A. Robb, J. R. Cheeseman, J. A. Montgomery, Jr., T. Vreven, 
 K. N. Kudin, J. C. Burant, J. M. Millam, S. S. Iyengar, J. Tomasi, 
 V. Barone, B. Mennucci, M. Cossi, G. Scalmani, N. Rega, 
 G. A. Petersson, H. Nakatsuji, M. Hada, M. Ehara, K. Toyota, 
 R. Fukuda, J. Hasegawa, M. Ishida, T. Nakajima, Y. Honda, O. Kitao, 
 H. Nakai, M. Klene, X. Li, J. E. Knox, H. P. Hratchian, J. B. Cross, 
 V. Bakken, C. Adamo, J. Jaramillo, R. Gomperts, R. E. Stratmann, 
 O. Yazyev, A. J. Austin, R. Cammi, C. Pomelli, J. W. Ochterski, 
 P. Y. Ayala, K. Morokuma, G. A. Voth, P. Salvador, J. J. Dannenberg, 
 V. G. Zakrzewski, S. Dapprich, A. D. Daniels, M. C. Strain, 
 O. Farkas, D. K. Malick, A. D. Rabuck, K. Raghavachari, 
 J. B. Foresman, J. V. Ortiz, Q. Cui, A. G. Baboul, S. Clifford, 
 J. Cioslowski, B. B. Stefanov, G. Liu, A. Liashenko, P. Piskorz, 
 I. Komaromi, R. L. Martin, D. J. Fox, T. Keith, M. A. Al-Laham, 
 C. Y. Peng, A. Nanayakkara, M. Challacombe, P. M. W. Gill, 
 B. Johnson, W. Chen, M. W. Wong, C. Gonzalez, and J. A. Pople, 
 Gaussian, Inc., Wallingford CT, 2004.
 
 ******************************************
 Gaussian 03:  EM64T-G03RevE.01 11-Sep-2007
                12-Jun-2015 
 ******************************************
 %nproc=2
 Will use up to    2 processors via shared memory.
 Default route:  MP2=Direct MaxDisk=2000MB
 ----------------------------------------------------
 # b3lyp/6-31+G(d,p) int=ultrafine pop=(ReadRadii,MK)
 ----------------------------------------------------

 Warning!  SCF SP cutoffs with diffuse functions may be unreliable.
 Consider SCF=Tight

 1/38=1/1;
 2/17=6,18=5,40=1/2;
 3/5=1,6=6,7=111,11=2,16=1,25=1,30=1,74=-5,75=5/1,2,3;
 4//1;
 5/5=2,32=1,38=5/2;
 6/7=2,8=2,9=2,10=2,15=8,20=101,28=1/1,2;
 99/5=1,9=1/99;
 --------------------------------------
 mol_17.28.4.pdbcc_plusQ.z58574.zip.xyz
 --------------------------------------
 Symbolic Z-matrix:
 Charge =  1 Multiplicity = 1
 O                    -0.00763   1.27525   1.19792 
 O                     0.22019  -0.00014  -1.48116 
 Ca                   -1.01027   1.75373  -0.86035 
 O                    -2.04476   0.0015    0.36221 
 Ca                   -1.0136   -1.75196  -0.86124 
 P                    -0.92492   0.00016   1.54492 
 Ca                    1.8506   -0.00188   0.2064 
 O                    -0.00988  -1.27638   1.19721 
 O                     4.00945  -0.00023  -0.38491 
 
                          Input orientation:                          
 ---------------------------------------------------------------------
 Center     Atomic     Atomic              Coordinates (Angstroms)
 Number     Number      Type              X           Y           Z
 ---------------------------------------------------------------------
    1          8             0       -0.007630    1.275250    1.197920
    2          8             0        0.220190   -0.000140   -1.481160
    3         20             0       -1.010270    1.753730   -0.860350
    4          8             0       -2.044760    0.001500    0.362210
    5         20             0       -1.013600   -1.751960   -0.861240
    6         15             0       -0.924920    0.000160    1.544920
    7         20             0        1.850600   -0.001880    0.206400
    8          8             0       -0.009880   -1.276380    1.197210
    9          8             0        4.009450   -0.000230   -0.384910
 ---------------------------------------------------------------------
                    Distance matrix (angstroms):
                    1          2          3          4          5
     1  O    0.000000
     2  O    2.975902   0.000000
     3  Ca   2.338954   2.230582   0.000000
     4  O    2.543767   2.920276   2.373843   0.000000
     5  Ca   3.796856   2.230563   3.505692   2.373761   0.000000
     6  P    1.608628   3.235496   2.977854   1.628756   2.977817
     7  Ca   2.463167   2.346508   3.522031   3.898476   3.522255
     8  O    2.551631   2.975800   3.796828   2.543804   2.338984
     9  O    4.502125   3.944649   5.338540   6.100135   5.341019
                    6          7          8          9
     6  P    0.000000
     7  Ca   3.081420   0.000000
     8  O    1.608650   2.463218   0.000000
     9  O    5.298325   2.238366   4.504073   0.000000
 Stoichiometry    Ca3O5P(1+)
 Framework group  C1[X(Ca3O5P)]
 Deg. of freedom    21
 Full point group                 C1
 Largest Abelian subgroup         C1      NOp   1
 Largest concise Abelian subgroup C1      NOp   1
                         Standard orientation:                         
 ---------------------------------------------------------------------
 Center     Atomic     Atomic              Coordinates (Angstroms)
 Number     Number      Type              X           Y           Z
 ---------------------------------------------------------------------
    1          8             0       -0.007628    1.275248    1.197919
    2          8             0        0.220192   -0.000142   -1.481161
    3         20             0       -1.010268    1.753728   -0.860351
    4          8             0       -2.044758    0.001498    0.362209
    5         20             0       -1.013598   -1.751962   -0.861241
    6         15             0       -0.924918    0.000158    1.544919
    7         20             0        1.850602   -0.001882    0.206399
    8          8             0       -0.009878   -1.276382    1.197209
    9          8             0        4.009452   -0.000232   -0.384911
 ---------------------------------------------------------------------
 Rotational constants (GHZ):      0.9758046      0.6395096      0.5824853
 Standard basis: 6-31+G(d,p) (6D, 7F)
 There are   199 symmetry adapted basis functions of A   symmetry.
 Integral buffers will be    131072 words long.
 Raffenetti 2 integral format.
 Two-electron integral symmetry is turned on.
   199 basis functions,   456 primitive gaussians,   199 cartesian basis functions
    57 alpha electrons       57 beta electrons
       nuclear repulsion energy      1052.0395566030 Hartrees.
 NAtoms=    9 NActive=    9 NUniq=    9 SFac= 7.50D-01 NAtFMM=   80 NAOKFM=F Big=F
 One-electron integrals computed using PRISM.
 NBasis=   199 RedAO= T  NBF=   199
 NBsUse=   199 1.00D-06 NBFU=   199
 Harris functional with IExCor=  402 diagonalized for initial guess.
 ExpMin= 7.10D-03 ExpMax= 3.53D+04 ExpMxC= 5.30D+03 IAcc=3 IRadAn=         5 AccDes= 0.00D+00
 HarFok:  IExCor= 402 AccDes= 0.00D+00 IRadAn=         5 IDoV=1
 ScaDFX=  1.000000  1.000000  1.000000  1.000000
 Initial guess orbital symmetries:
       Occupied  (A) (A) (A) (A) (A) (A) (A) (A) (A) (A) (A) (A)
                 (A) (A) (A) (A) (A) (A) (A) (A) (A) (A) (A) (A)
                 (A) (A) (A) (A) (A) (A) (A) (A) (A) (A) (A) (A)
                 (A) (A) (A) (A) (A) (A) (A) (A) (A) (A) (A) (A)
                 (A) (A) (A) (A) (A) (A) (A) (A) (A)
       Virtual   (A) (A) (A) (A) (A) (A) (A) (A) (A) (A) (A) (A)
                 (A) (A) (A) (A) (A) (A) (A) (A) (A) (A) (A) (A)
                 (A) (A) (A) (A) (A) (A) (A) (A) (A) (A) (A) (A)
                 (A) (A) (A) (A) (A) (A) (A) (A) (A) (A) (A) (A)
                 (A) (A) (A) (A) (A) (A) (A) (A) (A) (A) (A) (A)
                 (A) (A) (A) (A) (A) (A) (A) (A) (A) (A) (A) (A)
                 (A) (A) (A) (A) (A) (A) (A) (A) (A) (A) (A) (A)
                 (A) (A) (A) (A) (A) (A) (A) (A) (A) (A) (A) (A)
                 (A) (A) (A) (A) (A) (A) (A) (A) (A) (A) (A) (A)
                 (A) (A) (A) (A) (A) (A) (A) (A) (A) (A) (A) (A)
                 (A) (A) (A) (A) (A) (A) (A) (A) (A) (A) (A) (A)
                 (A) (A) (A) (A) (A) (A) (A) (A) (A) (A)
 The electronic state of the initial guess is 1-A.
 Requested convergence on RMS density matrix=1.00D-04 within 128 cycles.
 Requested convergence on MAX density matrix=1.00D-02.
 Requested convergence on             energy=1.00D-02.
 No special actions if energy rises.
 EnCoef did     8 forward-backward iterations
 EnCoef did     5 forward-backward iterations
 EnCoef did     4 forward-backward iterations
 EnCoef did     7 forward-backward iterations
 EnCoef did     8 forward-backward iterations
 EnCoef did     4 forward-backward iterations
 EnCoef did    23 forward-backward iterations
 EnCoef did    16 forward-backward iterations
 EnCoef did   100 forward-backward iterations
 EnCoef did   100 forward-backward iterations
 EnCoef did     2 forward-backward iterations
 EnCoef did     2 forward-backward iterations
 EnCoef did     1 forward-backward iterations
 SCF Done:  E(RB+HF-LYP) =  -2750.13169608     A.U. after   18 cycles
             Convg  =    0.8389D-04             -V/T =  2.0029
             S**2   =   0.0000

 **********************************************************************

            Population analysis using the SCF density.

 **********************************************************************

 Orbital symmetries:
       Occupied  (A) (A) (A) (A) (A) (A) (A) (A) (A) (A) (A) (A)
                 (A) (A) (A) (A) (A) (A) (A) (A) (A) (A) (A) (A)
                 (A) (A) (A) (A) (A) (A) (A) (A) (A) (A) (A) (A)
                 (A) (A) (A) (A) (A) (A) (A) (A) (A) (A) (A) (A)
                 (A) (A) (A) (A) (A) (A) (A) (A) (A)
       Virtual   (A) (A) (A) (A) (A) (A) (A) (A) (A) (A) (A) (A)
                 (A) (A) (A) (A) (A) (A) (A) (A) (A) (A) (A) (A)
                 (A) (A) (A) (A) (A) (A) (A) (A) (A) (A) (A) (A)
                 (A) (A) (A) (A) (A) (A) (A) (A) (A) (A) (A) (A)
                 (A) (A) (A) (A) (A) (A) (A) (A) (A) (A) (A) (A)
                 (A) (A) (A) (A) (A) (A) (A) (A) (A) (A) (A) (A)
                 (A) (A) (A) (A) (A) (A) (A) (A) (A) (A) (A) (A)
                 (A) (A) (A) (A) (A) (A) (A) (A) (A) (A) (A) (A)
                 (A) (A) (A) (A) (A) (A) (A) (A) (A) (A) (A) (A)
                 (A) (A) (A) (A) (A) (A) (A) (A) (A) (A) (A) (A)
                 (A) (A) (A) (A) (A) (A) (A) (A) (A) (A) (A) (A)
                 (A) (A) (A) (A) (A) (A) (A) (A) (A) (A)
 The electronic state is 1-A.
 Alpha  occ. eigenvalues -- -145.54372-145.54368-145.46597 -77.31609 -19.27365
 Alpha  occ. eigenvalues --  -19.26996 -19.26993 -19.24473 -19.20314 -15.61167
 Alpha  occ. eigenvalues --  -15.61164 -15.53504 -12.74377 -12.74376 -12.74343
 Alpha  occ. eigenvalues --  -12.74342 -12.74302 -12.74301 -12.66757 -12.66708
 Alpha  occ. eigenvalues --  -12.66561  -6.76676  -4.93010  -4.92992  -4.92703
 Alpha  occ. eigenvalues --   -1.98340  -1.98302  -1.90923  -1.26508  -1.26016
 Alpha  occ. eigenvalues --   -1.25954  -1.25701  -1.25624  -1.25166  -1.18954
 Alpha  occ. eigenvalues --   -1.18822  -1.18453  -1.13863  -1.07085  -1.07042
 Alpha  occ. eigenvalues --   -0.94953  -0.93751  -0.67348  -0.56559  -0.56346
 Alpha  occ. eigenvalues --   -0.54260  -0.49235  -0.48808  -0.44124  -0.43967
 Alpha  occ. eigenvalues --   -0.43252  -0.40126  -0.39692  -0.37985  -0.37054
 Alpha  occ. eigenvalues --   -0.36105  -0.33479
 Alpha virt. eigenvalues --   -0.31048  -0.22194  -0.20830  -0.15135  -0.13386
 Alpha virt. eigenvalues --   -0.13011  -0.12151  -0.11853  -0.09007  -0.08141
 Alpha virt. eigenvalues --   -0.07783  -0.06995  -0.06902  -0.06235  -0.05588
 Alpha virt. eigenvalues --   -0.05558  -0.05363  -0.04748  -0.04616  -0.04579
 Alpha virt. eigenvalues --   -0.03891  -0.03859  -0.03528  -0.03241  -0.03088
 Alpha virt. eigenvalues --   -0.02682  -0.01986  -0.00953  -0.00386   0.00668
 Alpha virt. eigenvalues --    0.01143   0.01950   0.02513   0.03222   0.03575
 Alpha virt. eigenvalues --    0.04018   0.04026   0.04721   0.04723   0.04763
 Alpha virt. eigenvalues --    0.04887   0.05273   0.05789   0.07583   0.07637
 Alpha virt. eigenvalues --    0.08774   0.08919   0.09349   0.09981   0.11992
 Alpha virt. eigenvalues --    0.12237   0.13252   0.14375   0.16345   0.17000
 Alpha virt. eigenvalues --    0.17636   0.18376   0.18432   0.19547   0.20238
 Alpha virt. eigenvalues --    0.20722   0.21382   0.22039   0.22465   0.23783
 Alpha virt. eigenvalues --    0.25135   0.28580   0.29560   0.29923   0.31133
 Alpha virt. eigenvalues --    0.31733   0.31959   0.33906   0.36399   0.36990
 Alpha virt. eigenvalues --    0.38163   0.42976   0.43516   0.47787   0.51065
 Alpha virt. eigenvalues --    0.51246   0.52553   0.58623   0.58802   0.67002
 Alpha virt. eigenvalues --    0.78683   0.82380   0.84547   0.92840   0.93075
 Alpha virt. eigenvalues --    1.10771   1.11017   1.11919   1.13504   1.13595
 Alpha virt. eigenvalues --    1.14533   1.17368   1.18065   1.19243   1.20595
 Alpha virt. eigenvalues --    1.21291   1.23529   1.24474   1.28276   1.29076
 Alpha virt. eigenvalues --    1.41083   1.42973   1.50513   1.51643   1.57639
 Alpha virt. eigenvalues --    1.65554   1.67575   1.67990   1.68021   1.72093
 Alpha virt. eigenvalues --    1.72795   1.73741   1.73963   1.77142   1.77315
 Alpha virt. eigenvalues --    1.81154   1.84351   1.84764   1.85000   1.86495
 Alpha virt. eigenvalues --    1.87161   1.90666   1.95211   1.96185   2.02501
 Alpha virt. eigenvalues --    2.03339   2.09117   2.16282   2.47429   2.59955
 Alpha virt. eigenvalues --    2.61866   3.46150   3.87642   4.05043   4.09281
 Alpha virt. eigenvalues --    4.09447   4.32834
          Condensed to atoms (all electrons):
              1          2          3          4          5          6
     1  O    8.851818   0.017529   0.053021   0.055917   0.007010  -0.127610
     2  O    0.017529   8.789873   0.128985   0.022791   0.129001   0.016170
     3  Ca   0.053021   0.128985  18.314209   0.058008  -0.028812   0.004432
     4  O    0.055917   0.022791   0.058008   8.918735   0.058078  -0.223899
     5  Ca   0.007010   0.129001  -0.028812   0.058078  18.314239   0.004225
     6  P   -0.127610   0.016170   0.004432  -0.223899   0.004225  14.315499
     7  Ca   0.045931   0.079721  -0.039052   0.006509  -0.039077  -0.015863
     8  O    0.012358   0.017510   0.006999   0.055950   0.053055  -0.127770
     9  O    0.000056  -0.001627   0.007201   0.000215   0.007206  -0.001084
              7          8          9
     1  O    0.045931   0.012358   0.000056
     2  O    0.079721   0.017510  -0.001627
     3  Ca  -0.039052   0.006999   0.007201
     4  O    0.006509   0.055950   0.000215
     5  Ca  -0.039077   0.053055   0.007206
     6  P   -0.015863  -0.127770  -0.001084
     7  Ca  18.408505   0.045806   0.169464
     8  O    0.045806   8.851978   0.000057
     9  O    0.169464   0.000057   8.318324
 Mulliken atomic charges:
              1
     1  O   -0.916030
     2  O   -1.199953
     3  Ca   1.495010
     4  O   -0.952303
     5  Ca   1.495075
     6  P    1.155899
     7  Ca   1.338057
     8  O   -0.915943
     9  O   -0.499812
 Sum of Mulliken charges=   1.00000
 Atomic charges with hydrogens summed into heavy atoms:
              1
     1  O   -0.916030
     2  O   -1.199953
     3  Ca   1.495010
     4  O   -0.952303
     5  Ca   1.495075
     6  P    1.155899
     7  Ca   1.338057
     8  O   -0.915943
     9  O   -0.499812
 Sum of Mulliken charges=   1.00000
 Electronic spatial extent (au):  <R**2>=  2094.0909
 Charge=     1.0000 electrons
 Dipole moment (field-independent basis, Debye):
    X=    -9.7102    Y=     0.0005    Z=    -6.2057  Tot=    11.5238
 Quadrupole moment (field-independent basis, Debye-Ang):
   XX=   -93.0195   YY=   -37.0317   ZZ=   -79.8897
   XY=     0.0095   XZ=    22.7418   YZ=    -0.0052
 Traceless Quadrupole moment (field-independent basis, Debye-Ang):
   XX=   -23.0392   YY=    32.9486   ZZ=    -9.9094
   XY=     0.0095   XZ=    22.7418   YZ=    -0.0052
 Octapole moment (field-independent basis, Debye-Ang**2):
  XXX=  -129.1970  YYY=     0.1622  ZZZ=   -14.4848  XYY=   -57.9862
  XXY=    -0.1487  XXZ=     4.4804  XZZ=   -19.7964  YZZ=    -0.0120
  YYZ=   -66.5592  XYZ=    -0.0664
 Hexadecapole moment (field-independent basis, Debye-Ang**3):
 XXXX= -1938.0641 YYYY=  -384.6699 ZZZZ=  -598.4624 XXXY=     0.1604
 XXXZ=   175.6989 YYYX=     0.0108 YYYZ=    -0.0679 ZZZX=    62.4087
 ZZZY=    -0.0011 XXYY=  -252.6759 XXZZ=  -286.5350 YYZZ=  -159.9485
 XXYZ=     0.0394 YYXZ=    62.8544 ZZXY=     0.0406
 N-N= 1.052039556603D+03 E-N=-8.602542554094D+03  KE= 2.742124692674D+03
 Merz-Kollman atomic radii used.
 Read replacement radii for each type of atom:
 Rad(20) =   1.188000000000D+00
 Atom Element Radius
    1     8    1.40
    2     8    1.40
    3    20    1.19
    4     8    1.40
    5    20    1.19
    6    15    1.80
    7    20    1.19
    8     8    1.40
    9     8    1.40

 **********************************************************************

            Electrostatic Properties Using The SCF Density

 **********************************************************************

       Atomic Center    1 is at  -0.007628  1.275248  1.197919
       Atomic Center    2 is at   0.220192 -0.000142 -1.481161
       Atomic Center    3 is at  -1.010268  1.753728 -0.860351
       Atomic Center    4 is at  -2.044758  0.001498  0.362209
       Atomic Center    5 is at  -1.013598 -1.751962 -0.861241
       Atomic Center    6 is at  -0.924918  0.000158  1.544919
       Atomic Center    7 is at   1.850602 -0.001882  0.206399
       Atomic Center    8 is at  -0.009878 -1.276382  1.197209
       Atomic Center    9 is at   4.009452 -0.000232 -0.384911
     828 points will be used for fitting atomic charges
 Fitting point charges to eletrostatic potential
 Charges from ESP fit, RMS=   0.00529 RRMS=   0.03368:
 Charge=   1.00000 Dipole=    -9.8611     0.0004    -6.3485 Tot=    11.7279
              1
     1  O   -0.855280
     2  O   -1.473519
     3  Ca   1.675631
     4  O   -0.928537
     5  Ca   1.675562
     6  P    0.761151
     7  Ca   1.647954
     8  O   -0.855321
     9  O   -0.647642
 -----------------------------------------------------------------

              Electrostatic Properties (Atomic Units)

 -----------------------------------------------------------------
    Center     Electric         -------- Electric Field --------
               Potential          X             Y             Z
 -----------------------------------------------------------------
    1 Atom    -22.198241
    2 Atom    -22.262907
    3 Atom    -79.998326
    4 Atom    -22.195348
    5 Atom    -79.998329
    6 Atom    -53.901044
    7 Atom    -80.073557
    8 Atom    -22.198283
    9 Atom    -22.213161
 -----------------------------------------------------------------
 1\1\GINC-N029\SP\RB3LYP\6-31+G(d,p)\Ca3O5P1(1+)\TIMN\12-Jun-2015\0\\# 
 b3lyp/6-31+G(d,p) int=ultrafine pop=(ReadRadii,MK)\\mol_17.28.4.pdbcc_
 plusQ.z58574.zip.xyz\\1,1\O,0,-0.00763,1.27525,1.19792\O,0,0.22019,-0.
 00014,-1.48116\Ca,0,-1.01027,1.75373,-0.86035\O,0,-2.04476,0.0015,0.36
 221\Ca,0,-1.0136,-1.75196,-0.86124\P,0,-0.92492,0.00016,1.54492\Ca,0,1
 .8506,-0.00188,0.2064\O,0,-0.00988,-1.27638,1.19721\O,0,4.00945,-0.000
 23,-0.38491\\Version=EM64T-G03RevE.01\State=1-A\HF=-2750.1316961\RMSD=
 8.389e-05\Thermal=0.\Dipole=-3.8202764,0.0002009,-2.4414927\PG=C01 [X(
 Ca3O5P1)]\\@


     ON THE SURVIVAL OF THE FITTEST -
 "STRONG REPRESENTATIVES FROM EACH PAST ERA THRIVE TODAY,
 SUCH AS PROGRAMMING IN THE THIRTY YEAR OLD LANGUAGE KNOWN
 AS FORTRAN, AND EVEN IN THE ANCIENT SCRIPT KNOWN AS DIRECT
 MACHINE CODE. SOME PEOPLE MIGHT LOOK ON SUCH RELICS AS LIVING
 FOSSILS; OTHERS WOULD POINT OUT THAT EVEN A VERY OLD SPECIES
 MIGHT STILL BE FILLING A PARTICULAR ECOLOGICAL NICHE."
     -- ALAN KAY, SCI.AM. SEPTEMBER 1984
 Job cpu time:  0 days  0 hours  4 minutes 32.5 seconds.
 File lengths (MBytes):  RWF=     36 Int=      0 D2E=      0 Chk=     11 Scr=      1
 Normal termination of Gaussian 03 at Fri Jun 12 18:12:12 2015.
