 Entering Gaussian System, Link 0=/home/timn/tmp/g03.e01/g03
 Input=mol_16.4.5.pdbc_plusQ.out.z51610.zip.xyz.gjf
 Output=mol_16.4.5.pdbc_plusQ.out.z51610.zip.xyz.out
 Initial command:
 /home/timn/tmp/g03.e01/l1.exe /home/timn/tmp/g03.e01/Gau-19654.inp -scrdir=/home/timn/tmp/g03.e01/
 Default is to use a total of   2 processors:
                                2 via shared-memory
                                1 via Linda
 Entering Link 1 = /home/timn/tmp/g03.e01/l1.exe PID=     19655.
  
 Copyright (c) 1988,1990,1992,1993,1995,1998,2003,2004,2007, Gaussian, Inc.
                  All Rights Reserved.
  
 This is the Gaussian(R) 03 program.  It is based on the
 the Gaussian(R) 98 system (copyright 1998, Gaussian, Inc.),
 the Gaussian(R) 94 system (copyright 1995, Gaussian, Inc.),
 the Gaussian 92(TM) system (copyright 1992, Gaussian, Inc.),
 the Gaussian 90(TM) system (copyright 1990, Gaussian, Inc.),
 the Gaussian 88(TM) system (copyright 1988, Gaussian, Inc.),
 the Gaussian 86(TM) system (copyright 1986, Carnegie Mellon
 University), and the Gaussian 82(TM) system (copyright 1983,
 Carnegie Mellon University). Gaussian is a federally registered
 trademark of Gaussian, Inc.
  
 This software contains proprietary and confidential information,
 including trade secrets, belonging to Gaussian, Inc.
  
 This software is provided under written license and may be
 used, copied, transmitted, or stored only in accord with that
 written license.
  
 The following legend is applicable only to US Government
 contracts under FAR:
  
                    RESTRICTED RIGHTS LEGEND
  
 Use, reproduction and disclosure by the US Government is
 subject to restrictions as set forth in subparagraphs (a)
 and (c) of the Commercial Computer Software - Restricted
 Rights clause in FAR 52.227-19.
  
 Gaussian, Inc.
 340 Quinnipiac St., Bldg. 40, Wallingford CT 06492
  
  
 ---------------------------------------------------------------
 Warning -- This program may not be used in any manner that
 competes with the business of Gaussian, Inc. or will provide
 assistance to any competitor of Gaussian, Inc.  The licensee
 of this program is prohibited from giving any competitor of
 Gaussian, Inc. access to this program.  By using this program,
 the user acknowledges that Gaussian, Inc. is engaged in the
 business of creating and licensing software in the field of
 computational chemistry and represents and warrants to the
 licensee that it is not a competitor of Gaussian, Inc. and that
 it will not use this program in any manner prohibited above.
 ---------------------------------------------------------------
  

 Cite this work as:
 Gaussian 03, Revision E.01,
 M. J. Frisch, G. W. Trucks, H. B. Schlegel, G. E. Scuseria, 
 M. A. Robb, J. R. Cheeseman, J. A. Montgomery, Jr., T. Vreven, 
 K. N. Kudin, J. C. Burant, J. M. Millam, S. S. Iyengar, J. Tomasi, 
 V. Barone, B. Mennucci, M. Cossi, G. Scalmani, N. Rega, 
 G. A. Petersson, H. Nakatsuji, M. Hada, M. Ehara, K. Toyota, 
 R. Fukuda, J. Hasegawa, M. Ishida, T. Nakajima, Y. Honda, O. Kitao, 
 H. Nakai, M. Klene, X. Li, J. E. Knox, H. P. Hratchian, J. B. Cross, 
 V. Bakken, C. Adamo, J. Jaramillo, R. Gomperts, R. E. Stratmann, 
 O. Yazyev, A. J. Austin, R. Cammi, C. Pomelli, J. W. Ochterski, 
 P. Y. Ayala, K. Morokuma, G. A. Voth, P. Salvador, J. J. Dannenberg, 
 V. G. Zakrzewski, S. Dapprich, A. D. Daniels, M. C. Strain, 
 O. Farkas, D. K. Malick, A. D. Rabuck, K. Raghavachari, 
 J. B. Foresman, J. V. Ortiz, Q. Cui, A. G. Baboul, S. Clifford, 
 J. Cioslowski, B. B. Stefanov, G. Liu, A. Liashenko, P. Piskorz, 
 I. Komaromi, R. L. Martin, D. J. Fox, T. Keith, M. A. Al-Laham, 
 C. Y. Peng, A. Nanayakkara, M. Challacombe, P. M. W. Gill, 
 B. Johnson, W. Chen, M. W. Wong, C. Gonzalez, and J. A. Pople, 
 Gaussian, Inc., Wallingford CT, 2004.
 
 ******************************************
 Gaussian 03:  EM64T-G03RevE.01 11-Sep-2007
                12-Jun-2015 
 ******************************************
 %nproc=2
 Will use up to    2 processors via shared memory.
 Default route:  MP2=Direct MaxDisk=2000MB
 ----------------------------------------------------
 # b3lyp/6-31+G(d,p) int=ultrafine pop=(ReadRadii,MK)
 ----------------------------------------------------

 Warning!  SCF SP cutoffs with diffuse functions may be unreliable.
 Consider SCF=Tight

 1/38=1/1;
 2/17=6,18=5,40=1/2;
 3/5=1,6=6,7=111,11=2,16=1,25=1,30=1,74=-5,75=5/1,2,3;
 4//1;
 5/5=2,32=1,38=5/2;
 6/7=2,8=2,9=2,10=2,15=8,20=101,28=1/1,2;
 99/5=1,9=1/99;
 ----------------------------------------
 mol_16.4.5.pdbc_plusQ.out.z51610.zip.xyz
 ----------------------------------------
 Symbolic Z-matrix:
 Charge =  1 Multiplicity = 1
 O                     1.49129  -1.19278  -0.00065 
 P                     2.50535   0.00442   0.00029 
 Ca                    0.00659   1.8164   -0.00034 
 O                    -1.16614   0.22043   1.20221 
 O                    -2.03725   0.41728   0.00084 
 O                    -1.16744   0.22052  -1.20183 
 Ca                   -0.73378  -1.68589  -0.00011 
 
                          Input orientation:                          
 ---------------------------------------------------------------------
 Center     Atomic     Atomic              Coordinates (Angstroms)
 Number     Number      Type              X           Y           Z
 ---------------------------------------------------------------------
    1          8             0        1.491290   -1.192780   -0.000650
    2         15             0        2.505350    0.004420    0.000290
    3         20             0        0.006590    1.816400   -0.000340
    4          8             0       -1.166140    0.220430    1.202210
    5          8             0       -2.037250    0.417280    0.000840
    6          8             0       -1.167440    0.220520   -1.201830
    7         20             0       -0.733780   -1.685890   -0.000110
 ---------------------------------------------------------------------
                    Distance matrix (angstroms):
                    1          2          3          4          5
     1  O    0.000000
     2  P    1.568951   0.000000
     3  Ca   3.355518   3.086596   0.000000
     4  O    3.241291   3.869252   2.317012   0.000000
     5  O    3.878516   4.561323   2.476857   1.496954   0.000000
     6  O    3.241774   3.870553   2.317058   2.404040   1.497230
     7  Ca   2.279056   3.653644   3.579690   2.294900   2.474340
                    6          7
     6  O    0.000000
     7  Ca   2.294905   0.000000
 Stoichiometry    Ca2O4P(1+)
 Framework group  C1[X(Ca2O4P)]
 Deg. of freedom    15
 Full point group                 C1
 Largest Abelian subgroup         C1      NOp   1
 Largest concise Abelian subgroup C1      NOp   1
                         Standard orientation:                         
 ---------------------------------------------------------------------
 Center     Atomic     Atomic              Coordinates (Angstroms)
 Number     Number      Type              X           Y           Z
 ---------------------------------------------------------------------
    1          8             0        1.491291   -1.192778   -0.000649
    2         15             0        2.505348    0.004424    0.000291
    3         20             0        0.006584    1.816399   -0.000339
    4          8             0       -1.166142    0.220426    1.202211
    5          8             0       -2.037252    0.417274    0.000841
    6          8             0       -1.167442    0.220516   -1.201829
    7         20             0       -0.733778   -1.685893   -0.000109
 ---------------------------------------------------------------------
 Rotational constants (GHZ):      1.5855066      1.2398056      0.7972087
 Standard basis: 6-31+G(d,p) (6D, 7F)
 There are   153 symmetry adapted basis functions of A   symmetry.
 Integral buffers will be    131072 words long.
 Raffenetti 2 integral format.
 Two-electron integral symmetry is turned on.
   153 basis functions,   344 primitive gaussians,   153 cartesian basis functions
    43 alpha electrons       43 beta electrons
       nuclear repulsion energy       607.8450717643 Hartrees.
 NAtoms=    7 NActive=    7 NUniq=    7 SFac= 7.50D-01 NAtFMM=   80 NAOKFM=F Big=F
 One-electron integrals computed using PRISM.
 NBasis=   153 RedAO= T  NBF=   153
 NBsUse=   153 1.00D-06 NBFU=   153
 Harris functional with IExCor=  402 diagonalized for initial guess.
 ExpMin= 7.10D-03 ExpMax= 3.53D+04 ExpMxC= 5.30D+03 IAcc=3 IRadAn=         5 AccDes= 0.00D+00
 HarFok:  IExCor= 402 AccDes= 0.00D+00 IRadAn=         5 IDoV=1
 ScaDFX=  1.000000  1.000000  1.000000  1.000000
 Initial guess orbital symmetries:
       Occupied  (A) (A) (A) (A) (A) (A) (A) (A) (A) (A) (A) (A)
                 (A) (A) (A) (A) (A) (A) (A) (A) (A) (A) (A) (A)
                 (A) (A) (A) (A) (A) (A) (A) (A) (A) (A) (A) (A)
                 (A) (A) (A) (A) (A) (A) (A)
       Virtual   (A) (A) (A) (A) (A) (A) (A) (A) (A) (A) (A) (A)
                 (A) (A) (A) (A) (A) (A) (A) (A) (A) (A) (A) (A)
                 (A) (A) (A) (A) (A) (A) (A) (A) (A) (A) (A) (A)
                 (A) (A) (A) (A) (A) (A) (A) (A) (A) (A) (A) (A)
                 (A) (A) (A) (A) (A) (A) (A) (A) (A) (A) (A) (A)
                 (A) (A) (A) (A) (A) (A) (A) (A) (A) (A) (A) (A)
                 (A) (A) (A) (A) (A) (A) (A) (A) (A) (A) (A) (A)
                 (A) (A) (A) (A) (A) (A) (A) (A) (A) (A) (A) (A)
                 (A) (A) (A) (A) (A) (A) (A) (A) (A) (A) (A) (A)
                 (A) (A)
 The electronic state of the initial guess is 1-A.
 Requested convergence on RMS density matrix=1.00D-04 within 128 cycles.
 Requested convergence on MAX density matrix=1.00D-02.
 Requested convergence on             energy=1.00D-02.
 No special actions if energy rises.
 EnCoef did   100 forward-backward iterations
 SCF Done:  E(RB+HF-LYP) =  -1997.13669052     A.U. after    9 cycles
             Convg  =    0.2047D-04             -V/T =  2.0030
             S**2   =   0.0000

 **********************************************************************

            Population analysis using the SCF density.

 **********************************************************************

 Orbital symmetries:
       Occupied  (A) (A) (A) (A) (A) (A) (A) (A) (A) (A) (A) (A)
                 (A) (A) (A) (A) (A) (A) (A) (A) (A) (A) (A) (A)
                 (A) (A) (A) (A) (A) (A) (A) (A) (A) (A) (A) (A)
                 (A) (A) (A) (A) (A) (A) (A)
       Virtual   (A) (A) (A) (A) (A) (A) (A) (A) (A) (A) (A) (A)
                 (A) (A) (A) (A) (A) (A) (A) (A) (A) (A) (A) (A)
                 (A) (A) (A) (A) (A) (A) (A) (A) (A) (A) (A) (A)
                 (A) (A) (A) (A) (A) (A) (A) (A) (A) (A) (A) (A)
                 (A) (A) (A) (A) (A) (A) (A) (A) (A) (A) (A) (A)
                 (A) (A) (A) (A) (A) (A) (A) (A) (A) (A) (A) (A)
                 (A) (A) (A) (A) (A) (A) (A) (A) (A) (A) (A) (A)
                 (A) (A) (A) (A) (A) (A) (A) (A) (A) (A) (A) (A)
                 (A) (A) (A) (A) (A) (A) (A) (A) (A) (A) (A) (A)
                 (A) (A)
 The electronic state is 1-A.
 Alpha  occ. eigenvalues -- -145.55218-145.54331 -77.26595 -19.38798 -19.29874
 Alpha  occ. eigenvalues --  -19.29584 -19.29581 -15.61996 -15.61198 -12.75194
 Alpha  occ. eigenvalues --  -12.75184 -12.75156 -12.74403 -12.74383 -12.74321
 Alpha  occ. eigenvalues --   -6.72853  -4.89557  -4.89019  -4.88254  -1.99045
 Alpha  occ. eigenvalues --   -1.98288  -1.29133  -1.26540  -1.26466  -1.25892
 Alpha  occ. eigenvalues --   -1.25688  -1.25593  -1.21278  -1.11805  -1.05520
 Alpha  occ. eigenvalues --   -0.90125  -0.68263  -0.59418  -0.57541  -0.57091
 Alpha  occ. eigenvalues --   -0.52161  -0.50434  -0.49932  -0.45778  -0.43180
 Alpha  occ. eigenvalues --   -0.41416  -0.37827  -0.31027
 Alpha virt. eigenvalues --   -0.25070  -0.21196  -0.20230  -0.15657  -0.13927
 Alpha virt. eigenvalues --   -0.12843  -0.12012  -0.11380  -0.10018  -0.09130
 Alpha virt. eigenvalues --   -0.08036  -0.07151  -0.06853  -0.05850  -0.05616
 Alpha virt. eigenvalues --   -0.05490  -0.04551  -0.04479  -0.03871  -0.03858
 Alpha virt. eigenvalues --   -0.03345  -0.02931  -0.00808   0.00590   0.01050
 Alpha virt. eigenvalues --    0.01513   0.02213   0.02537   0.02590   0.03762
 Alpha virt. eigenvalues --    0.04093   0.04573   0.04760   0.05725   0.06037
 Alpha virt. eigenvalues --    0.06686   0.06863   0.08209   0.11310   0.12103
 Alpha virt. eigenvalues --    0.12793   0.13491   0.14410   0.14525   0.16357
 Alpha virt. eigenvalues --    0.16370   0.19831   0.21404   0.23071   0.23985
 Alpha virt. eigenvalues --    0.26092   0.28462   0.29782   0.30696   0.32296
 Alpha virt. eigenvalues --    0.32928   0.36346   0.39881   0.40208   0.44955
 Alpha virt. eigenvalues --    0.46359   0.49008   0.54463   0.57794   0.57858
 Alpha virt. eigenvalues --    0.63530   0.74398   0.92519   0.92893   1.04546
 Alpha virt. eigenvalues --    1.04702   1.05288   1.07169   1.08345   1.08541
 Alpha virt. eigenvalues --    1.11400   1.15296   1.15785   1.19009   1.19812
 Alpha virt. eigenvalues --    1.23845   1.34597   1.37090   1.42397   1.47330
 Alpha virt. eigenvalues --    1.54311   1.56130   1.61793   1.68896   1.69796
 Alpha virt. eigenvalues --    1.69946   1.78136   1.80626   1.81170   1.82233
 Alpha virt. eigenvalues --    1.86687   1.87369   1.89876   1.91999   2.17820
 Alpha virt. eigenvalues --    2.19775   2.41345   2.54466   2.99506   3.03884
 Alpha virt. eigenvalues --    3.35363   3.86200   3.95861   4.03357   4.25499
          Condensed to atoms (all electrons):
              1          2          3          4          5          6
     1  O    8.748989  -0.185488  -0.066322   0.013858   0.002725   0.013820
     2  P   -0.185488  14.843420   0.244476  -0.018167  -0.004069  -0.018138
     3  Ca  -0.066322   0.244476  18.420877   0.080262   0.028745   0.080311
     4  O    0.013858  -0.018167   0.080262   8.365975   0.068176   0.007903
     5  O    0.002725  -0.004069   0.028745   0.068176   7.903276   0.068171
     6  O    0.013820  -0.018138   0.080311   0.007903   0.068171   8.365909
     7  Ca   0.038828   0.014065  -0.013080   0.082910   0.034129   0.082931
              7
     1  O    0.038828
     2  P    0.014065
     3  Ca  -0.013080
     4  O    0.082910
     5  O    0.034129
     6  O    0.082931
     7  Ca  18.239456
 Mulliken atomic charges:
              1
     1  O   -0.566410
     2  P    0.123900
     3  Ca   1.224730
     4  O   -0.600918
     5  O   -0.101154
     6  O   -0.600908
     7  Ca   1.520760
 Sum of Mulliken charges=   1.00000
 Atomic charges with hydrogens summed into heavy atoms:
              1
     1  O   -0.566410
     2  P    0.123900
     3  Ca   1.224730
     4  O   -0.600918
     5  O   -0.101154
     6  O   -0.600908
     7  Ca   1.520760
 Sum of Mulliken charges=   1.00000
 Electronic spatial extent (au):  <R**2>=  1313.8547
 Charge=     1.0000 electrons
 Dipole moment (field-independent basis, Debye):
    X=    -1.2178    Y=    -0.2340    Z=    -0.0026  Tot=     1.2401
 Quadrupole moment (field-independent basis, Debye-Ang):
   XX=   -67.8303   YY=   -15.9600   ZZ=   -63.7516
   XY=    14.3724   XZ=    -0.0016   YZ=    -0.0051
 Traceless Quadrupole moment (field-independent basis, Debye-Ang):
   XX=   -18.6496   YY=    33.2206   ZZ=   -14.5709
   XY=    14.3724   XZ=    -0.0016   YZ=    -0.0051
 Octapole moment (field-independent basis, Debye-Ang**2):
  XXX=   -28.8235  YYY=     0.5807  ZZZ=    -0.0116  XYY=   -40.3989
  XXY=    -6.3936  XXZ=     0.0002  XZZ=     6.1640  YZZ=    -4.7799
  YYZ=    -0.0091  XYZ=    -0.0041
 Hexadecapole moment (field-independent basis, Debye-Ang**3):
 XXXX=  -983.8592 YYYY=  -318.6261 ZZZZ=  -183.4840 XXXY=    50.5524
 XXXZ=    -0.0664 YYYX=    51.2655 YYYZ=    -0.0201 ZZZX=    -0.0053
 ZZZY=    -0.0053 XXYY=  -232.4472 XXZZ=  -181.3876 YYZZ=  -107.7615
 XXYZ=     0.0016 YYXZ=     0.0043 ZZXY=     7.4932
 N-N= 6.078450717643D+02 E-N=-5.933545554798D+03  KE= 1.991065587976D+03
 Merz-Kollman atomic radii used.
 Read replacement radii for each type of atom:
 Rad(20) =   1.188000000000D+00
 Atom Element Radius
    1     8    1.40
    2    15    1.80
    3    20    1.19
    4     8    1.40
    5     8    1.40
    6     8    1.40
    7    20    1.19

 **********************************************************************

            Electrostatic Properties Using The SCF Density

 **********************************************************************

       Atomic Center    1 is at   1.491291 -1.192778 -0.000649
       Atomic Center    2 is at   2.505348  0.004424  0.000291
       Atomic Center    3 is at   0.006584  1.816399 -0.000339
       Atomic Center    4 is at  -1.166142  0.220426  1.202211
       Atomic Center    5 is at  -2.037252  0.417274  0.000841
       Atomic Center    6 is at  -1.167442  0.220516 -1.201829
       Atomic Center    7 is at  -0.733778 -1.685893 -0.000109
     725 points will be used for fitting atomic charges
 Fitting point charges to eletrostatic potential
 Charges from ESP fit, RMS=   0.00890 RRMS=   0.05742:
 Charge=   1.00000 Dipole=    -1.4065     0.0602    -0.0025 Tot=     1.4078
              1
     1  O   -0.474340
     2  P   -0.070800
     3  Ca   1.392184
     4  O   -0.704762
     5  O   -0.064905
     6  O   -0.704895
     7  Ca   1.627517
 -----------------------------------------------------------------

              Electrostatic Properties (Atomic Units)

 -----------------------------------------------------------------
    Center     Electric         -------- Electric Field --------
               Potential          X             Y             Z
 -----------------------------------------------------------------
    1 Atom    -22.163107
    2 Atom    -53.953597
    3 Atom    -79.998302
    4 Atom    -22.175732
    5 Atom    -22.089214
    6 Atom    -22.175675
    7 Atom    -79.987778
 -----------------------------------------------------------------
 1\1\GINC-N022\SP\RB3LYP\6-31+G(d,p)\Ca2O4P1(1+)\TIMN\12-Jun-2015\0\\# 
 b3lyp/6-31+G(d,p) int=ultrafine pop=(ReadRadii,MK)\\mol_16.4.5.pdbc_pl
 usQ.out.z51610.zip.xyz\\1,1\O,0,1.49129,-1.19278,-0.00065\P,0,2.50535,
 0.00442,0.00029\Ca,0,0.00659,1.8164,-0.00034\O,0,-1.16614,0.22043,1.20
 221\O,0,-2.03725,0.41728,0.00084\O,0,-1.16744,0.22052,-1.20183\Ca,0,-0
 .73378,-1.68589,-0.00011\\Version=EM64T-G03RevE.01\State=1-A\HF=-1997.
 1366905\RMSD=2.047e-05\Thermal=0.\Dipole=-0.479127,-0.0920606,-0.00101
 58\PG=C01 [X(Ca2O4P1)]\\@


 QUHEN THE CAUSS IS TAKEN AWAY THE EFFECT WANISHETH.
 -- PROVERBS AND REASONS OF THE YEAR 1585
           AS REPRINTED IN PAISLEY MAGAZINE 1828.
 Job cpu time:  0 days  0 hours  1 minutes  5.1 seconds.
 File lengths (MBytes):  RWF=     28 Int=      0 D2E=      0 Chk=     10 Scr=      1
 Normal termination of Gaussian 03 at Fri Jun 12 17:49:10 2015.
