 Entering Gaussian System, Link 0=/home/timn/tmp/g03.e01/g03
 Input=mol_17.24.48.pdbc_plusQ.z58301.zip.xyz.gjf
 Output=mol_17.24.48.pdbc_plusQ.z58301.zip.xyz.out
 Initial command:
 /home/timn/tmp/g03.e01/l1.exe /home/timn/tmp/g03.e01/Gau-12939.inp -scrdir=/home/timn/tmp/g03.e01/
 Default is to use a total of   2 processors:
                                2 via shared-memory
                                1 via Linda
 Entering Link 1 = /home/timn/tmp/g03.e01/l1.exe PID=     12940.
  
 Copyright (c) 1988,1990,1992,1993,1995,1998,2003,2004,2007, Gaussian, Inc.
                  All Rights Reserved.
  
 This is the Gaussian(R) 03 program.  It is based on the
 the Gaussian(R) 98 system (copyright 1998, Gaussian, Inc.),
 the Gaussian(R) 94 system (copyright 1995, Gaussian, Inc.),
 the Gaussian 92(TM) system (copyright 1992, Gaussian, Inc.),
 the Gaussian 90(TM) system (copyright 1990, Gaussian, Inc.),
 the Gaussian 88(TM) system (copyright 1988, Gaussian, Inc.),
 the Gaussian 86(TM) system (copyright 1986, Carnegie Mellon
 University), and the Gaussian 82(TM) system (copyright 1983,
 Carnegie Mellon University). Gaussian is a federally registered
 trademark of Gaussian, Inc.
  
 This software contains proprietary and confidential information,
 including trade secrets, belonging to Gaussian, Inc.
  
 This software is provided under written license and may be
 used, copied, transmitted, or stored only in accord with that
 written license.
  
 The following legend is applicable only to US Government
 contracts under FAR:
  
                    RESTRICTED RIGHTS LEGEND
  
 Use, reproduction and disclosure by the US Government is
 subject to restrictions as set forth in subparagraphs (a)
 and (c) of the Commercial Computer Software - Restricted
 Rights clause in FAR 52.227-19.
  
 Gaussian, Inc.
 340 Quinnipiac St., Bldg. 40, Wallingford CT 06492
  
  
 ---------------------------------------------------------------
 Warning -- This program may not be used in any manner that
 competes with the business of Gaussian, Inc. or will provide
 assistance to any competitor of Gaussian, Inc.  The licensee
 of this program is prohibited from giving any competitor of
 Gaussian, Inc. access to this program.  By using this program,
 the user acknowledges that Gaussian, Inc. is engaged in the
 business of creating and licensing software in the field of
 computational chemistry and represents and warrants to the
 licensee that it is not a competitor of Gaussian, Inc. and that
 it will not use this program in any manner prohibited above.
 ---------------------------------------------------------------
  

 Cite this work as:
 Gaussian 03, Revision E.01,
 M. J. Frisch, G. W. Trucks, H. B. Schlegel, G. E. Scuseria, 
 M. A. Robb, J. R. Cheeseman, J. A. Montgomery, Jr., T. Vreven, 
 K. N. Kudin, J. C. Burant, J. M. Millam, S. S. Iyengar, J. Tomasi, 
 V. Barone, B. Mennucci, M. Cossi, G. Scalmani, N. Rega, 
 G. A. Petersson, H. Nakatsuji, M. Hada, M. Ehara, K. Toyota, 
 R. Fukuda, J. Hasegawa, M. Ishida, T. Nakajima, Y. Honda, O. Kitao, 
 H. Nakai, M. Klene, X. Li, J. E. Knox, H. P. Hratchian, J. B. Cross, 
 V. Bakken, C. Adamo, J. Jaramillo, R. Gomperts, R. E. Stratmann, 
 O. Yazyev, A. J. Austin, R. Cammi, C. Pomelli, J. W. Ochterski, 
 P. Y. Ayala, K. Morokuma, G. A. Voth, P. Salvador, J. J. Dannenberg, 
 V. G. Zakrzewski, S. Dapprich, A. D. Daniels, M. C. Strain, 
 O. Farkas, D. K. Malick, A. D. Rabuck, K. Raghavachari, 
 J. B. Foresman, J. V. Ortiz, Q. Cui, A. G. Baboul, S. Clifford, 
 J. Cioslowski, B. B. Stefanov, G. Liu, A. Liashenko, P. Piskorz, 
 I. Komaromi, R. L. Martin, D. J. Fox, T. Keith, M. A. Al-Laham, 
 C. Y. Peng, A. Nanayakkara, M. Challacombe, P. M. W. Gill, 
 B. Johnson, W. Chen, M. W. Wong, C. Gonzalez, and J. A. Pople, 
 Gaussian, Inc., Wallingford CT, 2004.
 
 ******************************************
 Gaussian 03:  EM64T-G03RevE.01 11-Sep-2007
                12-Jun-2015 
 ******************************************
 %nproc=2
 Will use up to    2 processors via shared memory.
 Default route:  MP2=Direct MaxDisk=2000MB
 ----------------------------------------------------
 # b3lyp/6-31+G(d,p) int=ultrafine pop=(ReadRadii,MK)
 ----------------------------------------------------

 Warning!  SCF SP cutoffs with diffuse functions may be unreliable.
 Consider SCF=Tight

 1/38=1/1;
 2/17=6,18=5,40=1/2;
 3/5=1,6=6,7=111,11=2,16=1,25=1,30=1,74=-5,75=5/1,2,3;
 4//1;
 5/5=2,32=1,38=5/2;
 6/7=2,8=2,9=2,10=2,15=8,20=101,28=1/1,2;
 99/5=1,9=1/99;
 --------------------------------------
 mol_17.24.48.pdbc_plusQ.z58301.zip.xyz
 --------------------------------------
 Symbolic Z-matrix:
 Charge =  1 Multiplicity = 1
 O                    -2.06893  -0.00028   1.10362 
 O                    -0.60856  -0.00032   1.52089 
 Ca                   -1.05428   1.67164  -0.13768 
 Ca                   -1.05406  -1.67169  -0.13817 
 O                     1.2376   -1.28504  -0.44134 
 P                     1.06481   0.0003   -1.53104 
 O                     1.23742   1.28532  -0.4409 
 O                    -0.59051   0.00022  -1.65622 
 Ca                    1.62692  -0.00014   1.38971 
 
                          Input orientation:                          
 ---------------------------------------------------------------------
 Center     Atomic     Atomic              Coordinates (Angstroms)
 Number     Number      Type              X           Y           Z
 ---------------------------------------------------------------------
    1          8             0       -2.068930   -0.000280    1.103620
    2          8             0       -0.608560   -0.000320    1.520890
    3         20             0       -1.054280    1.671640   -0.137680
    4         20             0       -1.054060   -1.671690   -0.138170
    5          8             0        1.237600   -1.285040   -0.441340
    6         15             0        1.064810    0.000300   -1.531040
    7          8             0        1.237420    1.285320   -0.440900
    8          8             0       -0.590510    0.000220   -1.656220
    9         20             0        1.626920   -0.000140    1.389710
 ---------------------------------------------------------------------
                    Distance matrix (angstroms):
                    1          2          3          4          5
     1  O    0.000000
     2  O    1.518814   0.000000
     3  Ca   2.316389   2.396867   0.000000
     4  Ca   2.316380   2.396754   3.343330   0.000000
     5  O    3.869192   2.984821   3.753249   2.343740   0.000000
     6  P    4.094113   3.480581   3.037330   3.037309   1.693931
     7  O    3.869142   2.984817   2.343731   3.753190   2.570360
     8  O    3.130885   3.177161   2.305361   2.305350   2.543583
     9  Ca   3.706906   2.239326   3.509502   3.509437   2.270525
                    6          7          8          9
     6  P    0.000000
     7  O    1.693953   0.000000
     8  O    1.660046   2.543583   0.000000
     9  Ca   2.974348   2.270518   3.767584   0.000000
 Stoichiometry    Ca3O5P(1+)
 Framework group  C1[X(Ca3O5P)]
 Deg. of freedom    21
 Full point group                 C1
 Largest Abelian subgroup         C1      NOp   1
 Largest concise Abelian subgroup C1      NOp   1
                         Standard orientation:                         
 ---------------------------------------------------------------------
 Center     Atomic     Atomic              Coordinates (Angstroms)
 Number     Number      Type              X           Y           Z
 ---------------------------------------------------------------------
    1          8             0       -2.068929   -0.000279    1.103620
    2          8             0       -0.608559   -0.000319    1.520890
    3         20             0       -1.054279    1.671641   -0.137680
    4         20             0       -1.054060   -1.671689   -0.138170
    5          8             0        1.237600   -1.285039   -0.441340
    6         15             0        1.064811    0.000301   -1.531040
    7          8             0        1.237421    1.285321   -0.440900
    8          8             0       -0.590509    0.000221   -1.656220
    9         20             0        1.626921   -0.000140    1.389710
 ---------------------------------------------------------------------
 Rotational constants (GHZ):      0.9463458      0.8197024      0.7960254
 Standard basis: 6-31+G(d,p) (6D, 7F)
 There are   199 symmetry adapted basis functions of A   symmetry.
 Integral buffers will be    131072 words long.
 Raffenetti 2 integral format.
 Two-electron integral symmetry is turned on.
   199 basis functions,   456 primitive gaussians,   199 cartesian basis functions
    57 alpha electrons       57 beta electrons
       nuclear repulsion energy      1104.8921995654 Hartrees.
 NAtoms=    9 NActive=    9 NUniq=    9 SFac= 7.50D-01 NAtFMM=   80 NAOKFM=F Big=F
 One-electron integrals computed using PRISM.
 NBasis=   199 RedAO= T  NBF=   199
 NBsUse=   199 1.00D-06 NBFU=   199
 Harris functional with IExCor=  402 diagonalized for initial guess.
 ExpMin= 7.10D-03 ExpMax= 3.53D+04 ExpMxC= 5.30D+03 IAcc=3 IRadAn=         5 AccDes= 0.00D+00
 HarFok:  IExCor= 402 AccDes= 0.00D+00 IRadAn=         5 IDoV=1
 ScaDFX=  1.000000  1.000000  1.000000  1.000000
 Initial guess orbital symmetries:
       Occupied  (A) (A) (A) (A) (A) (A) (A) (A) (A) (A) (A) (A)
                 (A) (A) (A) (A) (A) (A) (A) (A) (A) (A) (A) (A)
                 (A) (A) (A) (A) (A) (A) (A) (A) (A) (A) (A) (A)
                 (A) (A) (A) (A) (A) (A) (A) (A) (A) (A) (A) (A)
                 (A) (A) (A) (A) (A) (A) (A) (A) (A)
       Virtual   (A) (A) (A) (A) (A) (A) (A) (A) (A) (A) (A) (A)
                 (A) (A) (A) (A) (A) (A) (A) (A) (A) (A) (A) (A)
                 (A) (A) (A) (A) (A) (A) (A) (A) (A) (A) (A) (A)
                 (A) (A) (A) (A) (A) (A) (A) (A) (A) (A) (A) (A)
                 (A) (A) (A) (A) (A) (A) (A) (A) (A) (A) (A) (A)
                 (A) (A) (A) (A) (A) (A) (A) (A) (A) (A) (A) (A)
                 (A) (A) (A) (A) (A) (A) (A) (A) (A) (A) (A) (A)
                 (A) (A) (A) (A) (A) (A) (A) (A) (A) (A) (A) (A)
                 (A) (A) (A) (A) (A) (A) (A) (A) (A) (A) (A) (A)
                 (A) (A) (A) (A) (A) (A) (A) (A) (A) (A) (A) (A)
                 (A) (A) (A) (A) (A) (A) (A) (A) (A) (A) (A) (A)
                 (A) (A) (A) (A) (A) (A) (A) (A) (A) (A)
 The electronic state of the initial guess is 1-A.
 Requested convergence on RMS density matrix=1.00D-04 within 128 cycles.
 Requested convergence on MAX density matrix=1.00D-02.
 Requested convergence on             energy=1.00D-02.
 No special actions if energy rises.
 SCF Done:  E(RB+HF-LYP) =  -2750.24881765     A.U. after    7 cycles
             Convg  =    0.5387D-04             -V/T =  2.0029
             S**2   =   0.0000

 **********************************************************************

            Population analysis using the SCF density.

 **********************************************************************

 Orbital symmetries:
       Occupied  (A) (A) (A) (A) (A) (A) (A) (A) (A) (A) (A) (A)
                 (A) (A) (A) (A) (A) (A) (A) (A) (A) (A) (A) (A)
                 (A) (A) (A) (A) (A) (A) (A) (A) (A) (A) (A) (A)
                 (A) (A) (A) (A) (A) (A) (A) (A) (A) (A) (A) (A)
                 (A) (A) (A) (A) (A) (A) (A) (A) (A)
       Virtual   (A) (A) (A) (A) (A) (A) (A) (A) (A) (A) (A) (A)
                 (A) (A) (A) (A) (A) (A) (A) (A) (A) (A) (A) (A)
                 (A) (A) (A) (A) (A) (A) (A) (A) (A) (A) (A) (A)
                 (A) (A) (A) (A) (A) (A) (A) (A) (A) (A) (A) (A)
                 (A) (A) (A) (A) (A) (A) (A) (A) (A) (A) (A) (A)
                 (A) (A) (A) (A) (A) (A) (A) (A) (A) (A) (A) (A)
                 (A) (A) (A) (A) (A) (A) (A) (A) (A) (A) (A) (A)
                 (A) (A) (A) (A) (A) (A) (A) (A) (A) (A) (A) (A)
                 (A) (A) (A) (A) (A) (A) (A) (A) (A) (A) (A) (A)
                 (A) (A) (A) (A) (A) (A) (A) (A) (A) (A) (A) (A)
                 (A) (A) (A) (A) (A) (A) (A) (A) (A) (A) (A) (A)
                 (A) (A) (A) (A) (A) (A) (A) (A) (A) (A)
 The electronic state is 1-A.
 Alpha  occ. eigenvalues -- -145.52395-145.50174-145.50169 -77.25158 -19.25912
 Alpha  occ. eigenvalues --  -19.25461 -19.21787 -19.21786 -19.21336 -15.59154
 Alpha  occ. eigenvalues --  -15.56973 -15.56969 -12.72342 -12.72337 -12.72311
 Alpha  occ. eigenvalues --  -12.70180 -12.70179 -12.70172 -12.70171 -12.70092
 Alpha  occ. eigenvalues --  -12.70091  -6.70246  -4.86600  -4.86592  -4.86031
 Alpha  occ. eigenvalues --   -1.96330  -1.94225  -1.94159  -1.24351  -1.23885
 Alpha  occ. eigenvalues --   -1.23788  -1.22781  -1.22073  -1.21712  -1.21637
 Alpha  occ. eigenvalues --   -1.21518  -1.21219  -1.10022  -1.07325  -1.00854
 Alpha  occ. eigenvalues --   -1.00730  -0.89081  -0.63096  -0.51340  -0.51078
 Alpha  occ. eigenvalues --   -0.50978  -0.49231  -0.48445  -0.46041  -0.43792
 Alpha  occ. eigenvalues --   -0.43557  -0.38834  -0.38643  -0.38612  -0.35303
 Alpha  occ. eigenvalues --   -0.33992  -0.31703
 Alpha virt. eigenvalues --   -0.20306  -0.18386  -0.17629  -0.12786  -0.12605
 Alpha virt. eigenvalues --   -0.10906  -0.09919  -0.09096  -0.08253  -0.07954
 Alpha virt. eigenvalues --   -0.07350  -0.06563  -0.06018  -0.05819  -0.04928
 Alpha virt. eigenvalues --   -0.04869  -0.04857  -0.04686  -0.04487  -0.04308
 Alpha virt. eigenvalues --   -0.04013  -0.03910  -0.03218  -0.02974  -0.02948
 Alpha virt. eigenvalues --   -0.02712  -0.01827  -0.00968   0.00846   0.01987
 Alpha virt. eigenvalues --    0.02245   0.03417   0.04332   0.04542   0.04863
 Alpha virt. eigenvalues --    0.05217   0.05241   0.06160   0.06290   0.07053
 Alpha virt. eigenvalues --    0.07072   0.07096   0.07503   0.07556   0.07796
 Alpha virt. eigenvalues --    0.08496   0.09370   0.10327   0.11206   0.11845
 Alpha virt. eigenvalues --    0.12314   0.14920   0.14937   0.16115   0.17400
 Alpha virt. eigenvalues --    0.18782   0.20649   0.21078   0.21102   0.23263
 Alpha virt. eigenvalues --    0.23561   0.23709   0.24625   0.25786   0.27289
 Alpha virt. eigenvalues --    0.27990   0.29795   0.31571   0.33544   0.33933
 Alpha virt. eigenvalues --    0.34437   0.36044   0.36690   0.38772   0.39282
 Alpha virt. eigenvalues --    0.41194   0.45561   0.46024   0.53526   0.54386
 Alpha virt. eigenvalues --    0.55435   0.62684   0.63180   0.63523   0.66204
 Alpha virt. eigenvalues --    0.81579   0.85420   0.90486   0.93097   0.99249
 Alpha virt. eigenvalues --    1.11601   1.11894   1.15492   1.16016   1.17643
 Alpha virt. eigenvalues --    1.18028   1.19918   1.19984   1.20441   1.22321
 Alpha virt. eigenvalues --    1.22907   1.27527   1.31249   1.33940   1.38914
 Alpha virt. eigenvalues --    1.45505   1.46498   1.49241   1.56987   1.58138
 Alpha virt. eigenvalues --    1.60030   1.64343   1.68052   1.71385   1.73208
 Alpha virt. eigenvalues --    1.76846   1.78163   1.78949   1.81281   1.84883
 Alpha virt. eigenvalues --    1.86385   1.87067   1.89507   1.90279   1.91243
 Alpha virt. eigenvalues --    1.92842   1.93665   1.99380   2.00491   2.11327
 Alpha virt. eigenvalues --    2.21637   2.24603   2.36557   2.52315   2.56766
 Alpha virt. eigenvalues --    3.07037   3.54030   4.03188   4.09903   4.14247
 Alpha virt. eigenvalues --    4.19212   4.32883
          Condensed to atoms (all electrons):
              1          2          3          4          5          6
     1  O    8.577740  -0.101140   0.104070   0.104072  -0.006666   0.003370
     2  O   -0.101140   8.604963   0.038180   0.038189   0.029667  -0.024692
     3  Ca   0.104070   0.038180  18.339524  -0.047949   0.004984   0.017287
     4  Ca   0.104072   0.038189  -0.047949  18.339545   0.060476   0.017292
     5  O   -0.006666   0.029667   0.004984   0.060476   8.964595  -0.177600
     6  P    0.003370  -0.024692   0.017287   0.017292  -0.177600  14.403837
     7  O   -0.006665   0.029663   0.060483   0.004980   0.043454  -0.177589
     8  O    0.001983   0.022444   0.065841   0.065837   0.050098  -0.171421
     9  Ca  -0.033186   0.088431  -0.045059  -0.045063   0.074796   0.026312
              7          8          9
     1  O   -0.006665   0.001983  -0.033186
     2  O    0.029663   0.022444   0.088431
     3  Ca   0.060483   0.065841  -0.045059
     4  Ca   0.004980   0.065837  -0.045063
     5  O    0.043454   0.050098   0.074796
     6  P   -0.177589  -0.171421   0.026312
     7  O    8.964601   0.050097   0.074796
     8  O    0.050097   8.936051   0.013826
     9  Ca   0.074796   0.013826  18.361946
 Mulliken atomic charges:
              1
     1  O   -0.643578
     2  O   -0.725706
     3  Ca   1.462639
     4  Ca   1.462621
     5  O   -1.043804
     6  P    1.083204
     7  O   -1.043820
     8  O   -1.034757
     9  Ca   1.483200
 Sum of Mulliken charges=   1.00000
 Atomic charges with hydrogens summed into heavy atoms:
              1
     1  O   -0.643578
     2  O   -0.725706
     3  Ca   1.462639
     4  Ca   1.462621
     5  O   -1.043804
     6  P    1.083204
     7  O   -1.043820
     8  O   -1.034757
     9  Ca   1.483200
 Sum of Mulliken charges=   1.00000
 Electronic spatial extent (au):  <R**2>=  1729.0874
 Charge=     1.0000 electrons
 Dipole moment (field-independent basis, Debye):
    X=    -0.9315    Y=    -0.0009    Z=     6.2078  Tot=     6.2773
 Quadrupole moment (field-independent basis, Debye-Ang):
   XX=   -63.7177   YY=   -44.2277   ZZ=   -80.5270
   XY=    -0.0065   XZ=    28.3238   YZ=     0.0068
 Traceless Quadrupole moment (field-independent basis, Debye-Ang):
   XX=    -0.8935   YY=    18.5964   ZZ=   -17.7029
   XY=    -0.0065   XZ=    28.3238   YZ=     0.0068
 Octapole moment (field-independent basis, Debye-Ang**2):
  XXX=    20.2350  YYY=    -0.0128  ZZZ=    45.2394  XYY=   -73.7904
  XXY=     0.0061  XXZ=    28.1837  XZZ=    39.2530  YZZ=    -0.0029
  YYZ=     4.9074  XYZ=    -0.0162
 Hexadecapole moment (field-independent basis, Debye-Ang**3):
 XXXX=  -746.1100 YYYY=  -401.4148 ZZZZ=  -673.9130 XXXY=    -0.0347
 XXXZ=   157.8677 YYYX=    -0.0252 YYYZ=     0.0328 ZZZX=   109.8794
 ZZZY=     0.0259 XXYY=  -182.4444 XXZZ=  -218.9241 YYZZ=  -189.6770
 XXYZ=     0.0099 YYXZ=    34.9666 ZZXY=    -0.0078
 N-N= 1.104892199565D+03 E-N=-8.710439785950D+03  KE= 2.742230705735D+03
 Merz-Kollman atomic radii used.
 Read replacement radii for each type of atom:
 Rad(20) =   1.188000000000D+00
 Atom Element Radius
    1     8    1.40
    2     8    1.40
    3    20    1.19
    4    20    1.19
    5     8    1.40
    6    15    1.80
    7     8    1.40
    8     8    1.40
    9    20    1.19

 **********************************************************************

            Electrostatic Properties Using The SCF Density

 **********************************************************************

       Atomic Center    1 is at  -2.068929 -0.000279  1.103620
       Atomic Center    2 is at  -0.608559 -0.000319  1.520890
       Atomic Center    3 is at  -1.054279  1.671641 -0.137680
       Atomic Center    4 is at  -1.054060 -1.671689 -0.138170
       Atomic Center    5 is at   1.237600 -1.285039 -0.441340
       Atomic Center    6 is at   1.064811  0.000301 -1.531040
       Atomic Center    7 is at   1.237421  1.285321 -0.440900
       Atomic Center    8 is at  -0.590509  0.000221 -1.656220
       Atomic Center    9 is at   1.626921 -0.000140  1.389710
     736 points will be used for fitting atomic charges
 Fitting point charges to eletrostatic potential
 Charges from ESP fit, RMS=   0.00664 RRMS=   0.04144:
 Charge=   1.00000 Dipole=    -0.7831    -0.0008     6.0504 Tot=     6.1008
              1
     1  O   -0.689996
     2  O   -0.930776
     3  Ca   1.674956
     4  Ca   1.674952
     5  O   -0.990217
     6  P    0.545353
     7  O   -0.990246
     8  O   -0.945204
     9  Ca   1.651177
 -----------------------------------------------------------------

              Electrostatic Properties (Atomic Units)

 -----------------------------------------------------------------
    Center     Electric         -------- Electric Field --------
               Potential          X             Y             Z
 -----------------------------------------------------------------
    1 Atom    -22.216082
    2 Atom    -22.204666
    3 Atom    -80.039059
    4 Atom    -80.039066
    5 Atom    -22.248509
    6 Atom    -53.962503
    7 Atom    -22.248519
    8 Atom    -22.248695
    9 Atom    -80.016177
 -----------------------------------------------------------------
 1\1\GINC-N034\SP\RB3LYP\6-31+G(d,p)\Ca3O5P1(1+)\TIMN\12-Jun-2015\0\\# 
 b3lyp/6-31+G(d,p) int=ultrafine pop=(ReadRadii,MK)\\mol_17.24.48.pdbc_
 plusQ.z58301.zip.xyz\\1,1\O,0,-2.06893,-0.00028,1.10362\O,0,-0.60856,-
 0.00032,1.52089\Ca,0,-1.05428,1.67164,-0.13768\Ca,0,-1.05406,-1.67169,
 -0.13817\O,0,1.2376,-1.28504,-0.44134\P,0,1.06481,0.0003,-1.53104\O,0,
 1.23742,1.28532,-0.4409\O,0,-0.59051,0.00022,-1.65622\Ca,0,1.62692,-0.
 00014,1.38971\\Version=EM64T-G03RevE.01\State=1-A\HF=-2750.2488177\RMS
 D=5.387e-05\Thermal=0.\Dipole=-0.3664987,-0.0003378,2.4423235\PG=C01 [
 X(Ca3O5P1)]\\@


 IT IS A SIMPLE TASK TO MAKE THINGS COMPLEX,
 BUT A COMPLEX TASK TO MAKE THEM SIMPLE.
 Job cpu time:  0 days  0 hours  1 minutes 56.4 seconds.
 File lengths (MBytes):  RWF=     36 Int=      0 D2E=      0 Chk=     11 Scr=      1
 Normal termination of Gaussian 03 at Fri Jun 12 17:56:25 2015.
