 Entering Gaussian System, Link 0=/home/timn/tmp/g03.e01/g03
 Input=mol_17.26.46.pdbccc_plusQ.z58457.zip.xyz.gjf
 Output=mol_17.26.46.pdbccc_plusQ.z58457.zip.xyz.out
 Initial command:
 /home/timn/tmp/g03.e01/l1.exe /home/timn/tmp/g03.e01/Gau-14335.inp -scrdir=/home/timn/tmp/g03.e01/
 Default is to use a total of   2 processors:
                                2 via shared-memory
                                1 via Linda
 Entering Link 1 = /home/timn/tmp/g03.e01/l1.exe PID=     14336.
  
 Copyright (c) 1988,1990,1992,1993,1995,1998,2003,2004,2007, Gaussian, Inc.
                  All Rights Reserved.
  
 This is the Gaussian(R) 03 program.  It is based on the
 the Gaussian(R) 98 system (copyright 1998, Gaussian, Inc.),
 the Gaussian(R) 94 system (copyright 1995, Gaussian, Inc.),
 the Gaussian 92(TM) system (copyright 1992, Gaussian, Inc.),
 the Gaussian 90(TM) system (copyright 1990, Gaussian, Inc.),
 the Gaussian 88(TM) system (copyright 1988, Gaussian, Inc.),
 the Gaussian 86(TM) system (copyright 1986, Carnegie Mellon
 University), and the Gaussian 82(TM) system (copyright 1983,
 Carnegie Mellon University). Gaussian is a federally registered
 trademark of Gaussian, Inc.
  
 This software contains proprietary and confidential information,
 including trade secrets, belonging to Gaussian, Inc.
  
 This software is provided under written license and may be
 used, copied, transmitted, or stored only in accord with that
 written license.
  
 The following legend is applicable only to US Government
 contracts under FAR:
  
                    RESTRICTED RIGHTS LEGEND
  
 Use, reproduction and disclosure by the US Government is
 subject to restrictions as set forth in subparagraphs (a)
 and (c) of the Commercial Computer Software - Restricted
 Rights clause in FAR 52.227-19.
  
 Gaussian, Inc.
 340 Quinnipiac St., Bldg. 40, Wallingford CT 06492
  
  
 ---------------------------------------------------------------
 Warning -- This program may not be used in any manner that
 competes with the business of Gaussian, Inc. or will provide
 assistance to any competitor of Gaussian, Inc.  The licensee
 of this program is prohibited from giving any competitor of
 Gaussian, Inc. access to this program.  By using this program,
 the user acknowledges that Gaussian, Inc. is engaged in the
 business of creating and licensing software in the field of
 computational chemistry and represents and warrants to the
 licensee that it is not a competitor of Gaussian, Inc. and that
 it will not use this program in any manner prohibited above.
 ---------------------------------------------------------------
  

 Cite this work as:
 Gaussian 03, Revision E.01,
 M. J. Frisch, G. W. Trucks, H. B. Schlegel, G. E. Scuseria, 
 M. A. Robb, J. R. Cheeseman, J. A. Montgomery, Jr., T. Vreven, 
 K. N. Kudin, J. C. Burant, J. M. Millam, S. S. Iyengar, J. Tomasi, 
 V. Barone, B. Mennucci, M. Cossi, G. Scalmani, N. Rega, 
 G. A. Petersson, H. Nakatsuji, M. Hada, M. Ehara, K. Toyota, 
 R. Fukuda, J. Hasegawa, M. Ishida, T. Nakajima, Y. Honda, O. Kitao, 
 H. Nakai, M. Klene, X. Li, J. E. Knox, H. P. Hratchian, J. B. Cross, 
 V. Bakken, C. Adamo, J. Jaramillo, R. Gomperts, R. E. Stratmann, 
 O. Yazyev, A. J. Austin, R. Cammi, C. Pomelli, J. W. Ochterski, 
 P. Y. Ayala, K. Morokuma, G. A. Voth, P. Salvador, J. J. Dannenberg, 
 V. G. Zakrzewski, S. Dapprich, A. D. Daniels, M. C. Strain, 
 O. Farkas, D. K. Malick, A. D. Rabuck, K. Raghavachari, 
 J. B. Foresman, J. V. Ortiz, Q. Cui, A. G. Baboul, S. Clifford, 
 J. Cioslowski, B. B. Stefanov, G. Liu, A. Liashenko, P. Piskorz, 
 I. Komaromi, R. L. Martin, D. J. Fox, T. Keith, M. A. Al-Laham, 
 C. Y. Peng, A. Nanayakkara, M. Challacombe, P. M. W. Gill, 
 B. Johnson, W. Chen, M. W. Wong, C. Gonzalez, and J. A. Pople, 
 Gaussian, Inc., Wallingford CT, 2004.
 
 ******************************************
 Gaussian 03:  EM64T-G03RevE.01 11-Sep-2007
                12-Jun-2015 
 ******************************************
 %nproc=2
 Will use up to    2 processors via shared memory.
 Default route:  MP2=Direct MaxDisk=2000MB
 ----------------------------------------------------
 # b3lyp/6-31+G(d,p) int=ultrafine pop=(ReadRadii,MK)
 ----------------------------------------------------

 Warning!  SCF SP cutoffs with diffuse functions may be unreliable.
 Consider SCF=Tight

 1/38=1/1;
 2/17=6,18=5,40=1/2;
 3/5=1,6=6,7=111,11=2,16=1,25=1,30=1,74=-5,75=5/1,2,3;
 4//1;
 5/5=2,32=1,38=5/2;
 6/7=2,8=2,9=2,10=2,15=8,20=101,28=1/1,2;
 99/5=1,9=1/99;
 ----------------------------------------
 mol_17.26.46.pdbccc_plusQ.z58457.zip.xyz
 ----------------------------------------
 Symbolic Z-matrix:
 Charge =  1 Multiplicity = 1
 O                     1.68753  -1.04      0.00023 
 O                    -2.78777  -1.05556  -0.78401 
 O                    -2.78742  -1.05451   0.78507 
 Ca                   -0.67973  -1.27808   0.0003 
 O                    -0.62511   1.10537  -0.00038 
 O                     3.59216   0.535    -0.00044 
 P                     3.25074  -0.96579  -0.00065 
 Ca                    1.48134   1.56833   0.00074 
 Ca                   -2.87141   1.03798  -0.00075 
 
                          Input orientation:                          
 ---------------------------------------------------------------------
 Center     Atomic     Atomic              Coordinates (Angstroms)
 Number     Number      Type              X           Y           Z
 ---------------------------------------------------------------------
    1          8             0        1.687530   -1.040000    0.000230
    2          8             0       -2.787770   -1.055560   -0.784010
    3          8             0       -2.787420   -1.054510    0.785070
    4         20             0       -0.679730   -1.278080    0.000300
    5          8             0       -0.625110    1.105370   -0.000380
    6          8             0        3.592160    0.535000   -0.000440
    7         15             0        3.250740   -0.965790   -0.000650
    8         20             0        1.481340    1.568330    0.000740
    9         20             0       -2.871410    1.037980   -0.000750
 ---------------------------------------------------------------------
                    Distance matrix (angstroms):
                    1          2          3          4          5
     1  O    0.000000
     2  O    4.543521   0.000000
     3  O    4.543277   1.569080   0.000000
     4  Ca   2.379202   2.260197   2.260134   0.000000
     5  O    3.154507   3.156072   3.155566   2.384076   0.000000
     6  O    2.471486   6.621735   6.621375   4.640722   4.255665
     7  P    1.564971   6.089771   6.089713   3.942857   4.394533
     8  Ca   2.616467   5.072074   5.071171   3.573832   2.156725
     9  Ca   5.010183   2.236828   2.236757   3.188667   2.247311
                    6          7          8          9
     6  O    0.000000
     7  P    1.539136   0.000000
     8  Ca   2.350177   3.090719   0.000000
     9  Ca   6.483111   6.441725   4.384941   0.000000
 Stoichiometry    Ca3O5P(1+)
 Framework group  C1[X(Ca3O5P)]
 Deg. of freedom    21
 Full point group                 C1
 Largest Abelian subgroup         C1      NOp   1
 Largest concise Abelian subgroup C1      NOp   1
                         Standard orientation:                         
 ---------------------------------------------------------------------
 Center     Atomic     Atomic              Coordinates (Angstroms)
 Number     Number      Type              X           Y           Z
 ---------------------------------------------------------------------
    1          8             0        1.687528   -1.040001    0.000232
    2          8             0       -2.787772   -1.055562   -0.784008
    3          8             0       -2.787422   -1.054512    0.785072
    4         20             0       -0.679731   -1.278082    0.000302
    5          8             0       -0.625112    1.105368   -0.000378
    6          8             0        3.592158    0.535000   -0.000438
    7         15             0        3.250738   -0.965790   -0.000648
    8         20             0        1.481337    1.568329    0.000742
    9         20             0       -2.871412    1.037978   -0.000748
 ---------------------------------------------------------------------
 Rotational constants (GHZ):      1.5211970      0.3919531      0.3194091
 Standard basis: 6-31+G(d,p) (6D, 7F)
 There are   199 symmetry adapted basis functions of A   symmetry.
 Integral buffers will be    131072 words long.
 Raffenetti 2 integral format.
 Two-electron integral symmetry is turned on.
   199 basis functions,   456 primitive gaussians,   199 cartesian basis functions
    57 alpha electrons       57 beta electrons
       nuclear repulsion energy       956.5181671291 Hartrees.
 NAtoms=    9 NActive=    9 NUniq=    9 SFac= 7.50D-01 NAtFMM=   80 NAOKFM=F Big=F
 One-electron integrals computed using PRISM.
 NBasis=   199 RedAO= T  NBF=   199
 NBsUse=   199 1.00D-06 NBFU=   199
 Harris functional with IExCor=  402 diagonalized for initial guess.
 ExpMin= 7.10D-03 ExpMax= 3.53D+04 ExpMxC= 5.30D+03 IAcc=3 IRadAn=         5 AccDes= 0.00D+00
 HarFok:  IExCor= 402 AccDes= 0.00D+00 IRadAn=         5 IDoV=1
 ScaDFX=  1.000000  1.000000  1.000000  1.000000
 Initial guess orbital symmetries:
       Occupied  (A) (A) (A) (A) (A) (A) (A) (A) (A) (A) (A) (A)
                 (A) (A) (A) (A) (A) (A) (A) (A) (A) (A) (A) (A)
                 (A) (A) (A) (A) (A) (A) (A) (A) (A) (A) (A) (A)
                 (A) (A) (A) (A) (A) (A) (A) (A) (A) (A) (A) (A)
                 (A) (A) (A) (A) (A) (A) (A) (A) (A)
       Virtual   (A) (A) (A) (A) (A) (A) (A) (A) (A) (A) (A) (A)
                 (A) (A) (A) (A) (A) (A) (A) (A) (A) (A) (A) (A)
                 (A) (A) (A) (A) (A) (A) (A) (A) (A) (A) (A) (A)
                 (A) (A) (A) (A) (A) (A) (A) (A) (A) (A) (A) (A)
                 (A) (A) (A) (A) (A) (A) (A) (A) (A) (A) (A) (A)
                 (A) (A) (A) (A) (A) (A) (A) (A) (A) (A) (A) (A)
                 (A) (A) (A) (A) (A) (A) (A) (A) (A) (A) (A) (A)
                 (A) (A) (A) (A) (A) (A) (A) (A) (A) (A) (A) (A)
                 (A) (A) (A) (A) (A) (A) (A) (A) (A) (A) (A) (A)
                 (A) (A) (A) (A) (A) (A) (A) (A) (A) (A) (A) (A)
                 (A) (A) (A) (A) (A) (A) (A) (A) (A) (A) (A) (A)
                 (A) (A) (A) (A) (A) (A) (A) (A) (A) (A)
 The electronic state of the initial guess is 1-A.
 Requested convergence on RMS density matrix=1.00D-04 within 128 cycles.
 Requested convergence on MAX density matrix=1.00D-02.
 Requested convergence on             energy=1.00D-02.
 No special actions if energy rises.
 EnCoef did     2 forward-backward iterations
 EnCoef did     1 forward-backward iterations
 SCF Done:  E(RB+HF-LYP) =  -2750.21059098     A.U. after    9 cycles
             Convg  =    0.7409D-04             -V/T =  2.0029
             S**2   =   0.0000

 **********************************************************************

            Population analysis using the SCF density.

 **********************************************************************

 Orbital symmetries:
       Occupied  (A) (A) (A) (A) (A) (A) (A) (A) (A) (A) (A) (A)
                 (A) (A) (A) (A) (A) (A) (A) (A) (A) (A) (A) (A)
                 (A) (A) (A) (A) (A) (A) (A) (A) (A) (A) (A) (A)
                 (A) (A) (A) (A) (A) (A) (A) (A) (A) (A) (A) (A)
                 (A) (A) (A) (A) (A) (A) (A) (A) (A)
       Virtual   (A) (A) (A) (A) (A) (A) (A) (A) (A) (A) (A) (A)
                 (A) (A) (A) (A) (A) (A) (A) (A) (A) (A) (A) (A)
                 (A) (A) (A) (A) (A) (A) (A) (A) (A) (A) (A) (A)
                 (A) (A) (A) (A) (A) (A) (A) (A) (A) (A) (A) (A)
                 (A) (A) (A) (A) (A) (A) (A) (A) (A) (A) (A) (A)
                 (A) (A) (A) (A) (A) (A) (A) (A) (A) (A) (A) (A)
                 (A) (A) (A) (A) (A) (A) (A) (A) (A) (A) (A) (A)
                 (A) (A) (A) (A) (A) (A) (A) (A) (A) (A) (A) (A)
                 (A) (A) (A) (A) (A) (A) (A) (A) (A) (A) (A) (A)
                 (A) (A) (A) (A) (A) (A) (A) (A) (A) (A) (A) (A)
                 (A) (A) (A) (A) (A) (A) (A) (A) (A) (A) (A) (A)
                 (A) (A) (A) (A) (A) (A) (A) (A) (A) (A)
 The electronic state is 1-A.
 Alpha  occ. eigenvalues -- -145.52555-145.47909-145.45934 -77.31438 -19.29700
 Alpha  occ. eigenvalues --  -19.28908 -19.20254 -19.20249 -19.17093 -15.59454
 Alpha  occ. eigenvalues --  -15.54776 -15.52797 -12.72719 -12.72677 -12.72475
 Alpha  occ. eigenvalues --  -12.67987 -12.67956 -12.67885 -12.66034 -12.65996
 Alpha  occ. eigenvalues --  -12.65882  -6.77037  -4.93468  -4.93242  -4.92824
 Alpha  occ. eigenvalues --   -1.96687  -1.92081  -1.90164  -1.24612  -1.24611
 Alpha  occ. eigenvalues --   -1.23573  -1.20506  -1.19690  -1.19277  -1.18009
 Alpha  occ. eigenvalues --   -1.17962  -1.17616  -1.15368  -1.09606  -1.02803
 Alpha  occ. eigenvalues --   -0.91872  -0.84033  -0.68627  -0.57622  -0.54923
 Alpha  occ. eigenvalues --   -0.54234  -0.46667  -0.45220  -0.43698  -0.42881
 Alpha  occ. eigenvalues --   -0.41969  -0.41270  -0.37525  -0.36619  -0.35914
 Alpha  occ. eigenvalues --   -0.30799  -0.29149
 Alpha virt. eigenvalues --   -0.21355  -0.20117  -0.17697  -0.14558  -0.13028
 Alpha virt. eigenvalues --   -0.11136  -0.10816  -0.10361  -0.09101  -0.08478
 Alpha virt. eigenvalues --   -0.07859  -0.07112  -0.06764  -0.06247  -0.05627
 Alpha virt. eigenvalues --   -0.05187  -0.04732  -0.04684  -0.04463  -0.04345
 Alpha virt. eigenvalues --   -0.04004  -0.03717  -0.03703  -0.03625  -0.03171
 Alpha virt. eigenvalues --   -0.02778  -0.02662  -0.02453  -0.01922  -0.00114
 Alpha virt. eigenvalues --    0.01319   0.02749   0.03371   0.03460   0.03668
 Alpha virt. eigenvalues --    0.04873   0.05036   0.05905   0.05974   0.06289
 Alpha virt. eigenvalues --    0.06566   0.07097   0.07284   0.08205   0.08735
 Alpha virt. eigenvalues --    0.09191   0.10299   0.10750   0.10898   0.11386
 Alpha virt. eigenvalues --    0.11448   0.13510   0.15041   0.15046   0.16477
 Alpha virt. eigenvalues --    0.17255   0.17692   0.19053   0.19831   0.20077
 Alpha virt. eigenvalues --    0.21544   0.22354   0.23466   0.24135   0.26706
 Alpha virt. eigenvalues --    0.27514   0.28805   0.30326   0.31206   0.31254
 Alpha virt. eigenvalues --    0.32409   0.33479   0.34878   0.36800   0.38057
 Alpha virt. eigenvalues --    0.40600   0.42560   0.45768   0.46794   0.52510
 Alpha virt. eigenvalues --    0.52872   0.54088   0.57474   0.60737   0.64082
 Alpha virt. eigenvalues --    0.65166   0.85562   0.92282   0.94283   1.05082
 Alpha virt. eigenvalues --    1.07487   1.07495   1.10994   1.12554   1.14742
 Alpha virt. eigenvalues --    1.16109   1.16288   1.17431   1.19987   1.20580
 Alpha virt. eigenvalues --    1.21715   1.22830   1.25527   1.28475   1.32390
 Alpha virt. eigenvalues --    1.37926   1.41082   1.48254   1.53866   1.54116
 Alpha virt. eigenvalues --    1.54824   1.63715   1.66321   1.68672   1.69446
 Alpha virt. eigenvalues --    1.72692   1.73052   1.76715   1.78365   1.80067
 Alpha virt. eigenvalues --    1.80384   1.83362   1.84209   1.85129   1.86538
 Alpha virt. eigenvalues --    1.89058   1.92091   1.95253   2.01467   2.05568
 Alpha virt. eigenvalues --    2.12181   2.21720   2.24055   2.51038   2.67663
 Alpha virt. eigenvalues --    3.06801   3.38673   3.85993   3.88086   3.95565
 Alpha virt. eigenvalues --    4.10893   4.14245
          Condensed to atoms (all electrons):
              1          2          3          4          5          6
     1  O    8.915065  -0.001584  -0.001580   0.037159  -0.012846  -0.075107
     2  O   -0.001584   8.485410  -0.030058   0.106873  -0.003722   0.000005
     3  O   -0.001580  -0.030058   8.485383   0.106779  -0.003715   0.000005
     4  Ca   0.037159   0.106873   0.106779  18.343061   0.055099   0.005407
     5  O   -0.012846  -0.003722  -0.003715   0.055099   8.991614  -0.000432
     6  O   -0.075107   0.000005   0.000005   0.005407  -0.000432   8.554937
     7  P   -0.144474  -0.000088  -0.000086   0.004746  -0.008585   0.091555
     8  Ca   0.017708  -0.001012  -0.000976  -0.005212   0.196329   0.076942
     9  Ca   0.005401   0.098467   0.098434  -0.047310   0.109036   0.002349
              7          8          9
     1  O   -0.144474   0.017708   0.005401
     2  O   -0.000088  -0.001012   0.098467
     3  O   -0.000086  -0.000976   0.098434
     4  Ca   0.004746  -0.005212  -0.047310
     5  O   -0.008585   0.196329   0.109036
     6  O    0.091555   0.076942   0.002349
     7  P   14.409392  -0.019977  -0.012679
     8  Ca  -0.019977  18.254231  -0.013905
     9  Ca  -0.012679  -0.013905  18.303013
 Mulliken atomic charges:
              1
     1  O   -0.739741
     2  O   -0.654291
     3  O   -0.654186
     4  Ca   1.393399
     5  O   -1.322780
     6  O   -0.655661
     7  P    0.680196
     8  Ca   1.495871
     9  Ca   1.457194
 Sum of Mulliken charges=   1.00000
 Atomic charges with hydrogens summed into heavy atoms:
              1
     1  O   -0.739741
     2  O   -0.654291
     3  O   -0.654186
     4  Ca   1.393399
     5  O   -1.322780
     6  O   -0.655661
     7  P    0.680196
     8  Ca   1.495871
     9  Ca   1.457194
 Sum of Mulliken charges=   1.00000
 Electronic spatial extent (au):  <R**2>=  2985.2160
 Charge=     1.0000 electrons
 Dipole moment (field-independent basis, Debye):
    X=     1.5310    Y=     9.0171    Z=     0.0003  Tot=     9.1461
 Quadrupole moment (field-independent basis, Debye-Ang):
   XX=   -64.0471   YY=   -51.7337   ZZ=   -77.1288
   XY=   -21.8912   XZ=     0.0306   YZ=     0.0061
 Traceless Quadrupole moment (field-independent basis, Debye-Ang):
   XX=     0.2561   YY=    12.5695   ZZ=   -12.8256
   XY=   -21.8912   XZ=     0.0306   YZ=     0.0061
 Octapole moment (field-independent basis, Debye-Ang**2):
  XXX=   -95.3230  YYY=    45.4469  ZZZ=    -0.0010  XYY=     8.9788
  XXY=   118.3309  XXZ=    -0.0521  XZZ=     9.7503  YZZ=    10.9513
  YYZ=     0.0210  XYZ=     0.0374
 Hexadecapole moment (field-independent basis, Debye-Ang**3):
 XXXX= -2682.9713 YYYY=  -563.4073 ZZZZ=  -128.6365 XXXY=  -454.9329
 XXXZ=     0.3104 YYYX=    21.9935 YYYZ=     0.0141 ZZZX=     0.0844
 ZZZY=     0.0172 XXYY=  -492.4133 XXZZ=  -482.2617 YYZZ=  -129.6028
 XXYZ=    -0.0230 YYXZ=     0.0576 ZZXY=   -17.0526
 N-N= 9.565181671291D+02 E-N=-8.414203194752D+03  KE= 2.742249834552D+03
 Merz-Kollman atomic radii used.
 Read replacement radii for each type of atom:
 Rad(20) =   1.188000000000D+00
 Atom Element Radius
    1     8    1.40
    2     8    1.40
    3     8    1.40
    4    20    1.19
    5     8    1.40
    6     8    1.40
    7    15    1.80
    8    20    1.19
    9    20    1.19

 **********************************************************************

            Electrostatic Properties Using The SCF Density

 **********************************************************************

       Atomic Center    1 is at   1.687528 -1.040001  0.000232
       Atomic Center    2 is at  -2.787772 -1.055562 -0.784008
       Atomic Center    3 is at  -2.787422 -1.054512  0.785072
       Atomic Center    4 is at  -0.679731 -1.278082  0.000302
       Atomic Center    5 is at  -0.625112  1.105368 -0.000378
       Atomic Center    6 is at   3.592158  0.535000 -0.000438
       Atomic Center    7 is at   3.250738 -0.965790 -0.000648
       Atomic Center    8 is at   1.481337  1.568329  0.000742
       Atomic Center    9 is at  -2.871412  1.037978 -0.000748
     880 points will be used for fitting atomic charges
 Fitting point charges to eletrostatic potential
 Charges from ESP fit, RMS=   0.00471 RRMS=   0.03203:
 Charge=   1.00000 Dipole=     1.5293     9.2041     0.0006 Tot=     9.3303
              1
     1  O   -0.748126
     2  O   -0.776167
     3  O   -0.776127
     4  Ca   1.665306
     5  O   -1.750943
     6  O   -0.661296
     7  P    0.603105
     8  Ca   1.745088
     9  Ca   1.699158
 -----------------------------------------------------------------

              Electrostatic Properties (Atomic Units)

 -----------------------------------------------------------------
    Center     Electric         -------- Electric Field --------
               Potential          X             Y             Z
 -----------------------------------------------------------------
    1 Atom    -22.167373
    2 Atom    -22.273262
    3 Atom    -22.273271
    4 Atom    -80.080859
    5 Atom    -22.293142
    6 Atom    -22.177608
    7 Atom    -53.901507
    8 Atom    -80.015463
    9 Atom    -80.062026
 -----------------------------------------------------------------
 1\1\GINC-N032\SP\RB3LYP\6-31+G(d,p)\Ca3O5P1(1+)\TIMN\12-Jun-2015\0\\# 
 b3lyp/6-31+G(d,p) int=ultrafine pop=(ReadRadii,MK)\\mol_17.26.46.pdbcc
 c_plusQ.z58457.zip.xyz\\1,1\O,0,1.68753,-1.04,0.00023\O,0,-2.78777,-1.
 05556,-0.78401\O,0,-2.78742,-1.05451,0.78507\Ca,0,-0.67973,-1.27808,0.
 0003\O,0,-0.62511,1.10537,-0.00038\O,0,3.59216,0.535,-0.00044\P,0,3.25
 074,-0.96579,-0.00065\Ca,0,1.48134,1.56833,0.00074\Ca,0,-2.87141,1.037
 98,-0.00075\\Version=EM64T-G03RevE.01\State=1-A\HF=-2750.210591\RMSD=7
 .409e-05\Thermal=0.\Dipole=0.6023236,3.5475889,0.000125\PG=C01 [X(Ca3O
 5P1)]\\@


 THE FIRST MORNING OF CREATION WROTE WHAT THE LAST DAWN OF
 RECKONING SHALL READ. -- OMAR KHAYYAM
 Job cpu time:  0 days  0 hours  2 minutes  4.0 seconds.
 File lengths (MBytes):  RWF=     36 Int=      0 D2E=      0 Chk=     11 Scr=      1
 Normal termination of Gaussian 03 at Fri Jun 12 18:01:11 2015.
