 Entering Gaussian System, Link 0=/home/timn/tmp/g03.e01/g03
 Input=mol_16.4.7.pdbc_plusQ.out.z51612.zip.xyz.gjf
 Output=mol_16.4.7.pdbc_plusQ.out.z51612.zip.xyz.out
 Initial command:
 /home/timn/tmp/g03.e01/l1.exe /home/timn/tmp/g03.e01/Gau-14154.inp -scrdir=/home/timn/tmp/g03.e01/
 Default is to use a total of   2 processors:
                                2 via shared-memory
                                1 via Linda
 Entering Link 1 = /home/timn/tmp/g03.e01/l1.exe PID=     14155.
  
 Copyright (c) 1988,1990,1992,1993,1995,1998,2003,2004,2007, Gaussian, Inc.
                  All Rights Reserved.
  
 This is the Gaussian(R) 03 program.  It is based on the
 the Gaussian(R) 98 system (copyright 1998, Gaussian, Inc.),
 the Gaussian(R) 94 system (copyright 1995, Gaussian, Inc.),
 the Gaussian 92(TM) system (copyright 1992, Gaussian, Inc.),
 the Gaussian 90(TM) system (copyright 1990, Gaussian, Inc.),
 the Gaussian 88(TM) system (copyright 1988, Gaussian, Inc.),
 the Gaussian 86(TM) system (copyright 1986, Carnegie Mellon
 University), and the Gaussian 82(TM) system (copyright 1983,
 Carnegie Mellon University). Gaussian is a federally registered
 trademark of Gaussian, Inc.
  
 This software contains proprietary and confidential information,
 including trade secrets, belonging to Gaussian, Inc.
  
 This software is provided under written license and may be
 used, copied, transmitted, or stored only in accord with that
 written license.
  
 The following legend is applicable only to US Government
 contracts under FAR:
  
                    RESTRICTED RIGHTS LEGEND
  
 Use, reproduction and disclosure by the US Government is
 subject to restrictions as set forth in subparagraphs (a)
 and (c) of the Commercial Computer Software - Restricted
 Rights clause in FAR 52.227-19.
  
 Gaussian, Inc.
 340 Quinnipiac St., Bldg. 40, Wallingford CT 06492
  
  
 ---------------------------------------------------------------
 Warning -- This program may not be used in any manner that
 competes with the business of Gaussian, Inc. or will provide
 assistance to any competitor of Gaussian, Inc.  The licensee
 of this program is prohibited from giving any competitor of
 Gaussian, Inc. access to this program.  By using this program,
 the user acknowledges that Gaussian, Inc. is engaged in the
 business of creating and licensing software in the field of
 computational chemistry and represents and warrants to the
 licensee that it is not a competitor of Gaussian, Inc. and that
 it will not use this program in any manner prohibited above.
 ---------------------------------------------------------------
  

 Cite this work as:
 Gaussian 03, Revision E.01,
 M. J. Frisch, G. W. Trucks, H. B. Schlegel, G. E. Scuseria, 
 M. A. Robb, J. R. Cheeseman, J. A. Montgomery, Jr., T. Vreven, 
 K. N. Kudin, J. C. Burant, J. M. Millam, S. S. Iyengar, J. Tomasi, 
 V. Barone, B. Mennucci, M. Cossi, G. Scalmani, N. Rega, 
 G. A. Petersson, H. Nakatsuji, M. Hada, M. Ehara, K. Toyota, 
 R. Fukuda, J. Hasegawa, M. Ishida, T. Nakajima, Y. Honda, O. Kitao, 
 H. Nakai, M. Klene, X. Li, J. E. Knox, H. P. Hratchian, J. B. Cross, 
 V. Bakken, C. Adamo, J. Jaramillo, R. Gomperts, R. E. Stratmann, 
 O. Yazyev, A. J. Austin, R. Cammi, C. Pomelli, J. W. Ochterski, 
 P. Y. Ayala, K. Morokuma, G. A. Voth, P. Salvador, J. J. Dannenberg, 
 V. G. Zakrzewski, S. Dapprich, A. D. Daniels, M. C. Strain, 
 O. Farkas, D. K. Malick, A. D. Rabuck, K. Raghavachari, 
 J. B. Foresman, J. V. Ortiz, Q. Cui, A. G. Baboul, S. Clifford, 
 J. Cioslowski, B. B. Stefanov, G. Liu, A. Liashenko, P. Piskorz, 
 I. Komaromi, R. L. Martin, D. J. Fox, T. Keith, M. A. Al-Laham, 
 C. Y. Peng, A. Nanayakkara, M. Challacombe, P. M. W. Gill, 
 B. Johnson, W. Chen, M. W. Wong, C. Gonzalez, and J. A. Pople, 
 Gaussian, Inc., Wallingford CT, 2004.
 
 ******************************************
 Gaussian 03:  EM64T-G03RevE.01 11-Sep-2007
                12-Jun-2015 
 ******************************************
 %nproc=2
 Will use up to    2 processors via shared memory.
 Default route:  MP2=Direct MaxDisk=2000MB
 ----------------------------------------------------
 # b3lyp/6-31+G(d,p) int=ultrafine pop=(ReadRadii,MK)
 ----------------------------------------------------

 Warning!  SCF SP cutoffs with diffuse functions may be unreliable.
 Consider SCF=Tight

 1/38=1/1;
 2/17=6,18=5,40=1/2;
 3/5=1,6=6,7=111,11=2,16=1,25=1,30=1,74=-5,75=5/1,2,3;
 4//1;
 5/5=2,32=1,38=5/2;
 6/7=2,8=2,9=2,10=2,15=8,20=101,28=1/1,2;
 99/5=1,9=1/99;
 ----------------------------------------
 mol_16.4.7.pdbc_plusQ.out.z51612.zip.xyz
 ----------------------------------------
 Symbolic Z-matrix:
 Charge =  1 Multiplicity = 1
 O                    -2.18145   0.79825   0.00023 
 P                    -2.55518  -0.67557  -0.0003 
 O                    -1.18369  -1.54343   0.00056 
 O                     0.05136  -0.75587  -0.00013 
 Ca                    2.3551   -0.98517  -0.00006 
 O                     2.11854   1.11152   0.00005 
 Ca                    0.03938   1.64767   0. 
 
                          Input orientation:                          
 ---------------------------------------------------------------------
 Center     Atomic     Atomic              Coordinates (Angstroms)
 Number     Number      Type              X           Y           Z
 ---------------------------------------------------------------------
    1          8             0       -2.181450    0.798250    0.000230
    2         15             0       -2.555180   -0.675570   -0.000300
    3          8             0       -1.183690   -1.543430    0.000560
    4          8             0        0.051360   -0.755870   -0.000130
    5         20             0        2.355100   -0.985170   -0.000060
    6          8             0        2.118540    1.111520    0.000050
    7         20             0        0.039380    1.647670    0.000000
 ---------------------------------------------------------------------
                    Distance matrix (angstroms):
                    1          2          3          4          5
     1  O    0.000000
     2  P    1.520467   0.000000
     3  O    2.545386   1.623012   0.000000
     4  O    2.720428   2.607777   1.464787   0.000000
     5  Ca   4.874513   4.920031   3.582553   2.315123   0.000000
     6  O    4.311386   5.003734   4.237155   2.785746   2.109993
     7  Ca   2.377730   3.482698   3.417458   2.403570   3.506338
                    6          7
     6  O    0.000000
     7  Ca   2.147176   0.000000
 Stoichiometry    Ca2O4P(1+)
 Framework group  C1[X(Ca2O4P)]
 Deg. of freedom    15
 Full point group                 C1
 Largest Abelian subgroup         C1      NOp   1
 Largest concise Abelian subgroup C1      NOp   1
                         Standard orientation:                         
 ---------------------------------------------------------------------
 Center     Atomic     Atomic              Coordinates (Angstroms)
 Number     Number      Type              X           Y           Z
 ---------------------------------------------------------------------
    1          8             0       -2.181450    0.798246    0.000230
    2         15             0       -2.555179   -0.675574   -0.000300
    3          8             0       -1.183689   -1.543433    0.000560
    4          8             0        0.051361   -0.755872   -0.000130
    5         20             0        2.355101   -0.985171   -0.000060
    6          8             0        2.118540    1.111519    0.000050
    7         20             0        0.039379    1.647668    0.000000
 ---------------------------------------------------------------------
 Rotational constants (GHZ):      2.1181293      0.8504227      0.6067959
 Standard basis: 6-31+G(d,p) (6D, 7F)
 There are   153 symmetry adapted basis functions of A   symmetry.
 Integral buffers will be    131072 words long.
 Raffenetti 2 integral format.
 Two-electron integral symmetry is turned on.
   153 basis functions,   344 primitive gaussians,   153 cartesian basis functions
    43 alpha electrons       43 beta electrons
       nuclear repulsion energy       585.7758205218 Hartrees.
 NAtoms=    7 NActive=    7 NUniq=    7 SFac= 7.50D-01 NAtFMM=   80 NAOKFM=F Big=F
 One-electron integrals computed using PRISM.
 NBasis=   153 RedAO= T  NBF=   153
 NBsUse=   153 1.00D-06 NBFU=   153
 Harris functional with IExCor=  402 diagonalized for initial guess.
 ExpMin= 7.10D-03 ExpMax= 3.53D+04 ExpMxC= 5.30D+03 IAcc=3 IRadAn=         5 AccDes= 0.00D+00
 HarFok:  IExCor= 402 AccDes= 0.00D+00 IRadAn=         5 IDoV=1
 ScaDFX=  1.000000  1.000000  1.000000  1.000000
 Initial guess orbital symmetries:
       Occupied  (A) (A) (A) (A) (A) (A) (A) (A) (A) (A) (A) (A)
                 (A) (A) (A) (A) (A) (A) (A) (A) (A) (A) (A) (A)
                 (A) (A) (A) (A) (A) (A) (A) (A) (A) (A) (A) (A)
                 (A) (A) (A) (A) (A) (A) (A)
       Virtual   (A) (A) (A) (A) (A) (A) (A) (A) (A) (A) (A) (A)
                 (A) (A) (A) (A) (A) (A) (A) (A) (A) (A) (A) (A)
                 (A) (A) (A) (A) (A) (A) (A) (A) (A) (A) (A) (A)
                 (A) (A) (A) (A) (A) (A) (A) (A) (A) (A) (A) (A)
                 (A) (A) (A) (A) (A) (A) (A) (A) (A) (A) (A) (A)
                 (A) (A) (A) (A) (A) (A) (A) (A) (A) (A) (A) (A)
                 (A) (A) (A) (A) (A) (A) (A) (A) (A) (A) (A) (A)
                 (A) (A) (A) (A) (A) (A) (A) (A) (A) (A) (A) (A)
                 (A) (A) (A) (A) (A) (A) (A) (A) (A) (A) (A) (A)
                 (A) (A)
 The electronic state of the initial guess is 1-A.
 Requested convergence on RMS density matrix=1.00D-04 within 128 cycles.
 Requested convergence on MAX density matrix=1.00D-02.
 Requested convergence on             energy=1.00D-02.
 No special actions if energy rises.
 EnCoef did     5 forward-backward iterations
 SCF Done:  E(RB+HF-LYP) =  -1997.24345673     A.U. after    8 cycles
             Convg  =    0.8038D-04             -V/T =  2.0031
             S**2   =   0.0000

 **********************************************************************

            Population analysis using the SCF density.

 **********************************************************************

 Orbital symmetries:
       Occupied  (A) (A) (A) (A) (A) (A) (A) (A) (A) (A) (A) (A)
                 (A) (A) (A) (A) (A) (A) (A) (A) (A) (A) (A) (A)
                 (A) (A) (A) (A) (A) (A) (A) (A) (A) (A) (A) (A)
                 (A) (A) (A) (A) (A) (A) (A)
       Virtual   (A) (A) (A) (A) (A) (A) (A) (A) (A) (A) (A) (A)
                 (A) (A) (A) (A) (A) (A) (A) (A) (A) (A) (A) (A)
                 (A) (A) (A) (A) (A) (A) (A) (A) (A) (A) (A) (A)
                 (A) (A) (A) (A) (A) (A) (A) (A) (A) (A) (A) (A)
                 (A) (A) (A) (A) (A) (A) (A) (A) (A) (A) (A) (A)
                 (A) (A) (A) (A) (A) (A) (A) (A) (A) (A) (A) (A)
                 (A) (A) (A) (A) (A) (A) (A) (A) (A) (A) (A) (A)
                 (A) (A) (A) (A) (A) (A) (A) (A) (A) (A) (A) (A)
                 (A) (A) (A) (A) (A) (A) (A) (A) (A) (A) (A) (A)
                 (A) (A)
 The electronic state is 1-A.
 Alpha  occ. eigenvalues -- -145.53183-145.49987 -77.33164 -19.37617 -19.31253
 Alpha  occ. eigenvalues --  -19.31065 -19.14543 -15.60004 -15.56902 -12.73241
 Alpha  occ. eigenvalues --  -12.73174 -12.73107 -12.70166 -12.70097 -12.69945
 Alpha  occ. eigenvalues --   -6.78893  -4.95225  -4.95176  -4.94657  -1.97077
 Alpha  occ. eigenvalues --   -1.94164  -1.25193  -1.24774  -1.23987  -1.23734
 Alpha  occ. eigenvalues --   -1.22098  -1.21502  -1.21133  -1.14501  -0.99936
 Alpha  occ. eigenvalues --   -0.88716  -0.71620  -0.62443  -0.59521  -0.57814
 Alpha  occ. eigenvalues --   -0.50956  -0.50475  -0.46067  -0.42907  -0.40978
 Alpha  occ. eigenvalues --   -0.34587  -0.32689  -0.32619
 Alpha virt. eigenvalues --   -0.22839  -0.21677  -0.18243  -0.15499  -0.13032
 Alpha virt. eigenvalues --   -0.12202  -0.11018  -0.10843  -0.09520  -0.07752
 Alpha virt. eigenvalues --   -0.07440  -0.06874  -0.06254  -0.05611  -0.05419
 Alpha virt. eigenvalues --   -0.04538  -0.04532  -0.04389  -0.03815  -0.03796
 Alpha virt. eigenvalues --   -0.03244  -0.02642   0.00525   0.01038   0.01514
 Alpha virt. eigenvalues --    0.02117   0.03092   0.03788   0.04270   0.04620
 Alpha virt. eigenvalues --    0.05630   0.05955   0.06061   0.06993   0.07375
 Alpha virt. eigenvalues --    0.08173   0.09187   0.09461   0.11976   0.12530
 Alpha virt. eigenvalues --    0.13112   0.14899   0.16705   0.16805   0.17355
 Alpha virt. eigenvalues --    0.19482   0.20083   0.21839   0.23757   0.24875
 Alpha virt. eigenvalues --    0.26124   0.29808   0.30957   0.32632   0.33288
 Alpha virt. eigenvalues --    0.33958   0.35878   0.37978   0.42125   0.44335
 Alpha virt. eigenvalues --    0.48074   0.50929   0.53665   0.54163   0.70573
 Alpha virt. eigenvalues --    0.73903   0.80604   0.89334   0.92287   0.98771
 Alpha virt. eigenvalues --    1.03533   1.05418   1.09408   1.10610   1.12811
 Alpha virt. eigenvalues --    1.13919   1.15126   1.23575   1.23855   1.26081
 Alpha virt. eigenvalues --    1.30033   1.33129   1.39043   1.41226   1.47417
 Alpha virt. eigenvalues --    1.55558   1.57135   1.59633   1.67112   1.73068
 Alpha virt. eigenvalues --    1.77962   1.80748   1.83050   1.83447   1.83987
 Alpha virt. eigenvalues --    1.84917   1.88762   1.90568   1.95132   2.03739
 Alpha virt. eigenvalues --    2.19889   2.26389   2.43342   2.65744   3.02987
 Alpha virt. eigenvalues --    3.37895   3.72735   3.86952   3.96476   4.14162
          Condensed to atoms (all electrons):
              1          2          3          4          5          6
     1  O    8.508220   0.193646  -0.031349  -0.030182   0.001357   0.000472
     2  P    0.193646  14.081535  -0.061724  -0.013624   0.012072  -0.005531
     3  O   -0.031349  -0.061724   8.627028  -0.262601   0.009517   0.026041
     4  O   -0.030182  -0.013624  -0.262601   8.803960   0.063935  -0.003307
     5  Ca   0.001357   0.012072   0.009517   0.063935  18.272327   0.220424
     6  O    0.000472  -0.005531   0.026041  -0.003307   0.220424   8.655987
     7  Ca   0.050692  -0.033156   0.028245   0.032405  -0.010995   0.205627
              7
     1  O    0.050692
     2  P   -0.033156
     3  O    0.028245
     4  O    0.032405
     5  Ca  -0.010995
     6  O    0.205627
     7  Ca  18.267012
 Mulliken atomic charges:
              1
     1  O   -0.692857
     2  P    0.826781
     3  O   -0.335157
     4  O   -0.590587
     5  Ca   1.431363
     6  O   -1.099713
     7  Ca   1.460170
 Sum of Mulliken charges=   1.00000
 Atomic charges with hydrogens summed into heavy atoms:
              1
     1  O   -0.692857
     2  P    0.826781
     3  O   -0.335157
     4  O   -0.590587
     5  Ca   1.431363
     6  O   -1.099713
     7  Ca   1.460170
 Sum of Mulliken charges=   1.00000
 Electronic spatial extent (au):  <R**2>=  1575.1137
 Charge=     1.0000 electrons
 Dipole moment (field-independent basis, Debye):
    X=     3.4268    Y=    -2.3538    Z=    -0.0019  Tot=     4.1573
 Quadrupole moment (field-independent basis, Debye-Ang):
   XX=   -38.8870   YY=   -39.5185   ZZ=   -55.1863
   XY=   -25.5822   XZ=     0.0016   YZ=     0.0005
 Traceless Quadrupole moment (field-independent basis, Debye-Ang):
   XX=     5.6436   YY=     5.0121   ZZ=   -10.6557
   XY=   -25.5822   XZ=     0.0016   YZ=     0.0005
 Octapole moment (field-independent basis, Debye-Ang**2):
  XXX=    53.5178  YYY=    29.3786  ZZZ=    -0.0004  XYY=    15.7854
  XXY=   -92.3817  XXZ=    -0.0070  XZZ=     4.2664  YZZ=    -0.0423
  YYZ=    -0.0016  XYZ=     0.0006
 Hexadecapole moment (field-independent basis, Debye-Ang**3):
 XXXX= -1097.3886 YYYY=  -418.6009 ZZZZ=   -60.2063 XXXY=  -196.9131
 XXXZ=    -0.0104 YYYX=   -92.0072 YYYZ=     0.0019 ZZZX=    -0.0023
 ZZZY=    -0.0001 XXYY=  -292.2674 XXZZ=  -213.3712 YYZZ=   -87.6088
 XXYZ=    -0.0029 YYXZ=    -0.0007 ZZXY=   -21.0552
 N-N= 5.857758205218D+02 E-N=-5.890637689382D+03  KE= 1.991069572010D+03
 Merz-Kollman atomic radii used.
 Read replacement radii for each type of atom:
 Rad(20) =   1.188000000000D+00
 Atom Element Radius
    1     8    1.40
    2    15    1.80
    3     8    1.40
    4     8    1.40
    5    20    1.19
    6     8    1.40
    7    20    1.19

 **********************************************************************

            Electrostatic Properties Using The SCF Density

 **********************************************************************

       Atomic Center    1 is at  -2.181450  0.798246  0.000230
       Atomic Center    2 is at  -2.555179 -0.675574 -0.000300
       Atomic Center    3 is at  -1.183689 -1.543433  0.000560
       Atomic Center    4 is at   0.051361 -0.755872 -0.000130
       Atomic Center    5 is at   2.355101 -0.985171 -0.000060
       Atomic Center    6 is at   2.118540  1.111519  0.000050
       Atomic Center    7 is at   0.039379  1.647668  0.000000
     723 points will be used for fitting atomic charges
 Fitting point charges to eletrostatic potential
 Charges from ESP fit, RMS=   0.00541 RRMS=   0.03557:
 Charge=   1.00000 Dipole=     3.4664    -2.4903    -0.0021 Tot=     4.2682
              1
     1  O   -0.564755
     2  P    0.578861
     3  O   -0.126555
     4  O   -0.767509
     5  Ca   1.644331
     6  O   -1.454165
     7  Ca   1.689792
 -----------------------------------------------------------------

              Electrostatic Properties (Atomic Units)

 -----------------------------------------------------------------
    Center     Electric         -------- Electric Field --------
               Potential          X             Y             Z
 -----------------------------------------------------------------
    1 Atom    -22.157286
    2 Atom    -53.890147
    3 Atom    -22.092916
    4 Atom    -22.151222
    5 Atom    -80.008724
    6 Atom    -22.316783
    7 Atom    -80.040684
 -----------------------------------------------------------------
 1\1\GINC-N029\SP\RB3LYP\6-31+G(d,p)\Ca2O4P1(1+)\TIMN\12-Jun-2015\0\\# 
 b3lyp/6-31+G(d,p) int=ultrafine pop=(ReadRadii,MK)\\mol_16.4.7.pdbc_pl
 usQ.out.z51612.zip.xyz\\1,1\O,0,-2.18145,0.79825,0.00023\P,0,-2.55518,
 -0.67557,-0.0003\O,0,-1.18369,-1.54343,0.00056\O,0,0.05136,-0.75587,-0
 .00013\Ca,0,2.3551,-0.98517,-0.00006\O,0,2.11854,1.11152,0.00005\Ca,0,
 0.03938,1.64767,0.\\Version=EM64T-G03RevE.01\State=1-A\HF=-1997.243456
 7\RMSD=8.038e-05\Thermal=0.\Dipole=1.3481955,-0.9260418,-0.0007368\PG=
 C01 [X(Ca2O4P1)]\\@


 NEVER LISTEN TO CRITICISM
 OR YOU'LL BE DOIN' EVERYBODY ELSE'S THING BUT BUT YOUR OWN.

                                               -- ANDY CAPP
 Job cpu time:  0 days  0 hours  0 minutes 57.2 seconds.
 File lengths (MBytes):  RWF=     28 Int=      0 D2E=      0 Chk=     10 Scr=      1
 Normal termination of Gaussian 03 at Fri Jun 12 17:49:07 2015.
