 Entering Gaussian System, Link 0=/home/timn/tmp/g03.e01/g03
 Input=mol_17.23.32.pdb_plusQ.z58233.zip.xyz.gjf
 Output=mol_17.23.32.pdb_plusQ.z58233.zip.xyz.out
 Initial command:
 /home/timn/tmp/g03.e01/l1.exe /home/timn/tmp/g03.e01/Gau-17999.inp -scrdir=/home/timn/tmp/g03.e01/
 Default is to use a total of   2 processors:
                                2 via shared-memory
                                1 via Linda
 Entering Link 1 = /home/timn/tmp/g03.e01/l1.exe PID=     18000.
  
 Copyright (c) 1988,1990,1992,1993,1995,1998,2003,2004,2007, Gaussian, Inc.
                  All Rights Reserved.
  
 This is the Gaussian(R) 03 program.  It is based on the
 the Gaussian(R) 98 system (copyright 1998, Gaussian, Inc.),
 the Gaussian(R) 94 system (copyright 1995, Gaussian, Inc.),
 the Gaussian 92(TM) system (copyright 1992, Gaussian, Inc.),
 the Gaussian 90(TM) system (copyright 1990, Gaussian, Inc.),
 the Gaussian 88(TM) system (copyright 1988, Gaussian, Inc.),
 the Gaussian 86(TM) system (copyright 1986, Carnegie Mellon
 University), and the Gaussian 82(TM) system (copyright 1983,
 Carnegie Mellon University). Gaussian is a federally registered
 trademark of Gaussian, Inc.
  
 This software contains proprietary and confidential information,
 including trade secrets, belonging to Gaussian, Inc.
  
 This software is provided under written license and may be
 used, copied, transmitted, or stored only in accord with that
 written license.
  
 The following legend is applicable only to US Government
 contracts under FAR:
  
                    RESTRICTED RIGHTS LEGEND
  
 Use, reproduction and disclosure by the US Government is
 subject to restrictions as set forth in subparagraphs (a)
 and (c) of the Commercial Computer Software - Restricted
 Rights clause in FAR 52.227-19.
  
 Gaussian, Inc.
 340 Quinnipiac St., Bldg. 40, Wallingford CT 06492
  
  
 ---------------------------------------------------------------
 Warning -- This program may not be used in any manner that
 competes with the business of Gaussian, Inc. or will provide
 assistance to any competitor of Gaussian, Inc.  The licensee
 of this program is prohibited from giving any competitor of
 Gaussian, Inc. access to this program.  By using this program,
 the user acknowledges that Gaussian, Inc. is engaged in the
 business of creating and licensing software in the field of
 computational chemistry and represents and warrants to the
 licensee that it is not a competitor of Gaussian, Inc. and that
 it will not use this program in any manner prohibited above.
 ---------------------------------------------------------------
  

 Cite this work as:
 Gaussian 03, Revision E.01,
 M. J. Frisch, G. W. Trucks, H. B. Schlegel, G. E. Scuseria, 
 M. A. Robb, J. R. Cheeseman, J. A. Montgomery, Jr., T. Vreven, 
 K. N. Kudin, J. C. Burant, J. M. Millam, S. S. Iyengar, J. Tomasi, 
 V. Barone, B. Mennucci, M. Cossi, G. Scalmani, N. Rega, 
 G. A. Petersson, H. Nakatsuji, M. Hada, M. Ehara, K. Toyota, 
 R. Fukuda, J. Hasegawa, M. Ishida, T. Nakajima, Y. Honda, O. Kitao, 
 H. Nakai, M. Klene, X. Li, J. E. Knox, H. P. Hratchian, J. B. Cross, 
 V. Bakken, C. Adamo, J. Jaramillo, R. Gomperts, R. E. Stratmann, 
 O. Yazyev, A. J. Austin, R. Cammi, C. Pomelli, J. W. Ochterski, 
 P. Y. Ayala, K. Morokuma, G. A. Voth, P. Salvador, J. J. Dannenberg, 
 V. G. Zakrzewski, S. Dapprich, A. D. Daniels, M. C. Strain, 
 O. Farkas, D. K. Malick, A. D. Rabuck, K. Raghavachari, 
 J. B. Foresman, J. V. Ortiz, Q. Cui, A. G. Baboul, S. Clifford, 
 J. Cioslowski, B. B. Stefanov, G. Liu, A. Liashenko, P. Piskorz, 
 I. Komaromi, R. L. Martin, D. J. Fox, T. Keith, M. A. Al-Laham, 
 C. Y. Peng, A. Nanayakkara, M. Challacombe, P. M. W. Gill, 
 B. Johnson, W. Chen, M. W. Wong, C. Gonzalez, and J. A. Pople, 
 Gaussian, Inc., Wallingford CT, 2004.
 
 ******************************************
 Gaussian 03:  EM64T-G03RevE.01 11-Sep-2007
                12-Jun-2015 
 ******************************************
 %nproc=2
 Will use up to    2 processors via shared memory.
 Default route:  MP2=Direct MaxDisk=2000MB
 ----------------------------------------------------
 # b3lyp/6-31+G(d,p) int=ultrafine pop=(ReadRadii,MK)
 ----------------------------------------------------

 Warning!  SCF SP cutoffs with diffuse functions may be unreliable.
 Consider SCF=Tight

 1/38=1/1;
 2/17=6,18=5,40=1/2;
 3/5=1,6=6,7=111,11=2,16=1,25=1,30=1,74=-5,75=5/1,2,3;
 4//1;
 5/5=2,32=1,38=5/2;
 6/7=2,8=2,9=2,10=2,15=8,20=101,28=1/1,2;
 99/5=1,9=1/99;
 -------------------------------------
 mol_17.23.32.pdb_plusQ.z58233.zip.xyz
 -------------------------------------
 Symbolic Z-matrix:
 Charge =  1 Multiplicity = 1
 O                     1.34137   2.07988   0. 
 P                     0.        1.34125   0. 
 O                    -1.18404   2.43182   0. 
 O                    -2.432     1.68067   0. 
 O                    -1.61982  -2.03491   0. 
 Ca                   -3.055    -0.48177   0. 
 Ca                    0.49793  -2.44776   0. 
 O                     2.24111  -1.14145   0. 
 Ca                    3.21842   0.71719   0. 
 
                          Input orientation:                          
 ---------------------------------------------------------------------
 Center     Atomic     Atomic              Coordinates (Angstroms)
 Number     Number      Type              X           Y           Z
 ---------------------------------------------------------------------
    1          8             0        1.341370    2.079880    0.000000
    2         15             0        0.000000    1.341250    0.000000
    3          8             0       -1.184040    2.431820    0.000000
    4          8             0       -2.432000    1.680670    0.000000
    5          8             0       -1.619820   -2.034910    0.000000
    6         20             0       -3.055000   -0.481770    0.000000
    7         20             0        0.497930   -2.447760    0.000000
    8          8             0        2.241110   -1.141450    0.000000
    9         20             0        3.218420    0.717190    0.000000
 ---------------------------------------------------------------------
                    Distance matrix (angstroms):
                    1          2          3          4          5
     1  O    0.000000
     2  P    1.531290   0.000000
     3  O    2.549815   1.609750   0.000000
     4  O    3.794429   2.455571   1.456582   0.000000
     5  O    5.069531   3.744633   4.487937   3.803311   0.000000
     6  Ca   5.088233   3.557587   3.462585   2.250395   2.114707
     7  Ca   4.605531   3.821588   5.161330   5.062452   2.157617
     8  O    3.344622   3.344604   4.949738   5.459150   3.962960
     9  Ca   2.319535   3.278365   4.724575   5.731975   5.566203
                    6          7          8          9
     6  Ca   0.000000
     7  Ca   4.060595   0.000000
     8  O    5.337037   2.178330   0.000000
     9  Ca   6.386964   4.173485   2.099923   0.000000
 Stoichiometry    Ca3O5P(1+)
 Framework group  CS[SG(Ca3O5P)]
 Deg. of freedom    15
 Full point group                 CS
 Largest Abelian subgroup         CS      NOp   2
 Largest concise Abelian subgroup C1      NOp   1
                         Standard orientation:                         
 ---------------------------------------------------------------------
 Center     Atomic     Atomic              Coordinates (Angstroms)
 Number     Number      Type              X           Y           Z
 ---------------------------------------------------------------------
    1          8             0        1.341370    2.079880    0.000000
    2         15             0        0.000000    1.341250    0.000000
    3          8             0       -1.184040    2.431819    0.000000
    4          8             0       -2.432000    1.680669    0.000000
    5          8             0       -1.619819   -2.034911    0.000000
    6         20             0       -3.055000   -0.481771    0.000000
    7         20             0        0.497931   -2.447760    0.000000
    8          8             0        2.241111   -1.141450    0.000000
    9         20             0        3.218420    0.717191    0.000000
 ---------------------------------------------------------------------
 Rotational constants (GHZ):      0.8203932      0.4723493      0.2997597
 Standard basis: 6-31+G(d,p) (6D, 7F)
 There are   147 symmetry adapted basis functions of A'  symmetry.
 There are    52 symmetry adapted basis functions of A"  symmetry.
 Integral buffers will be    131072 words long.
 Raffenetti 2 integral format.
 Two-electron integral symmetry is turned on.
   199 basis functions,   456 primitive gaussians,   199 cartesian basis functions
    57 alpha electrons       57 beta electrons
       nuclear repulsion energy       902.5732995881 Hartrees.
 NAtoms=    9 NActive=    9 NUniq=    9 SFac= 7.50D-01 NAtFMM=   80 NAOKFM=F Big=F
 One-electron integrals computed using PRISM.
 NBasis=   199 RedAO= T  NBF=   147    52
 NBsUse=   199 1.00D-06 NBFU=   147    52
 Harris functional with IExCor=  402 diagonalized for initial guess.
 ExpMin= 7.10D-03 ExpMax= 3.53D+04 ExpMxC= 5.30D+03 IAcc=3 IRadAn=         5 AccDes= 0.00D+00
 HarFok:  IExCor= 402 AccDes= 0.00D+00 IRadAn=         5 IDoV=1
 ScaDFX=  1.000000  1.000000  1.000000  1.000000
 Initial guess orbital symmetries:
       Occupied  (A') (A') (A') (A') (A') (A') (A') (A') (A') (A')
                 (A') (A') (A') (A') (A") (A') (A') (A') (A") (A')
                 (A") (A') (A') (A') (A") (A') (A') (A') (A') (A')
                 (A') (A') (A') (A') (A") (A') (A") (A") (A') (A')
                 (A') (A') (A') (A') (A') (A") (A') (A') (A') (A")
                 (A') (A") (A') (A") (A') (A') (A")
       Virtual   (A") (A') (A') (A') (A') (A") (A') (A") (A') (A')
                 (A') (A") (A') (A') (A') (A') (A') (A") (A') (A')
                 (A") (A") (A') (A') (A') (A') (A') (A') (A") (A')
                 (A') (A") (A') (A') (A") (A") (A') (A') (A') (A")
                 (A") (A') (A") (A') (A') (A') (A') (A") (A') (A")
                 (A') (A") (A') (A') (A') (A") (A') (A') (A") (A')
                 (A') (A') (A') (A") (A') (A') (A") (A') (A") (A')
                 (A') (A') (A") (A') (A') (A') (A') (A') (A') (A')
                 (A") (A') (A") (A') (A') (A') (A') (A') (A') (A')
                 (A") (A") (A") (A') (A') (A") (A') (A') (A') (A")
                 (A') (A') (A') (A') (A') (A') (A') (A') (A") (A')
                 (A') (A') (A') (A") (A") (A") (A") (A') (A") (A')
                 (A") (A') (A') (A') (A') (A") (A') (A") (A') (A')
                 (A') (A") (A') (A') (A') (A') (A') (A') (A') (A')
                 (A') (A')
 The electronic state of the initial guess is 1-A'.
 Requested convergence on RMS density matrix=1.00D-04 within 128 cycles.
 Requested convergence on MAX density matrix=1.00D-02.
 Requested convergence on             energy=1.00D-02.
 No special actions if energy rises.
 EnCoef did     5 forward-backward iterations
 EnCoef did   100 forward-backward iterations
 SCF Done:  E(RB+HF-LYP) =  -2750.06878618     A.U. after   10 cycles
             Convg  =    0.8360D-04             -V/T =  2.0029
             S**2   =   0.0000

 **********************************************************************

            Population analysis using the SCF density.

 **********************************************************************

 Orbital symmetries:
       Occupied  (A') (A') (A') (A') (A') (A') (A') (A') (A') (A')
                 (A') (A') (A") (A') (A') (A") (A') (A') (A") (A')
                 (A') (A') (A") (A') (A') (A') (A') (A') (A") (A')
                 (A') (A') (A") (A') (A') (A") (A') (A') (A') (A')
                 (A') (A') (A') (A') (A') (A") (A') (A") (A') (A')
                 (A") (A') (A') (A") (A') (A") (A')
       Virtual   (A") (A') (A') (A') (A") (A') (A') (A') (A") (A')
                 (A") (A') (A') (A') (A') (A") (A') (A') (A') (A")
                 (A") (A') (A') (A') (A') (A") (A') (A') (A') (A')
                 (A') (A') (A') (A") (A') (A") (A') (A') (A") (A')
                 (A") (A') (A") (A') (A") (A") (A') (A') (A") (A')
                 (A') (A") (A') (A") (A') (A') (A') (A") (A') (A')
                 (A') (A') (A") (A') (A') (A') (A") (A") (A') (A')
                 (A") (A') (A') (A') (A') (A') (A') (A') (A') (A')
                 (A") (A") (A') (A') (A') (A') (A') (A') (A') (A')
                 (A") (A') (A") (A') (A') (A") (A") (A') (A") (A')
                 (A') (A') (A') (A') (A') (A') (A') (A") (A') (A')
                 (A') (A') (A') (A") (A") (A') (A") (A') (A") (A")
                 (A') (A") (A') (A") (A') (A") (A') (A') (A') (A')
                 (A') (A") (A') (A') (A') (A') (A') (A') (A') (A')
                 (A') (A')
 The electronic state is 1-A'.
 Alpha  occ. eigenvalues -- -145.51760-145.48284-145.43756 -77.30415 -19.34879
 Alpha  occ. eigenvalues --  -19.28950 -19.25781 -19.13845 -19.12138 -15.58605
 Alpha  occ. eigenvalues --  -15.55175 -15.50779 -12.71852 -12.71781 -12.71687
 Alpha  occ. eigenvalues --  -12.68421 -12.68373 -12.68231 -12.64040 -12.64005
 Alpha  occ. eigenvalues --  -12.63760  -6.76159  -4.92485  -4.92402  -4.91962
 Alpha  occ. eigenvalues --   -1.95745  -1.92403  -1.88238  -1.23520  -1.23450
 Alpha  occ. eigenvalues --   -1.22597  -1.21576  -1.20225  -1.19774  -1.19116
 Alpha  occ. eigenvalues --   -1.16296  -1.16087  -1.15003  -1.12342  -0.94593
 Alpha  occ. eigenvalues --   -0.87985  -0.86086  -0.68948  -0.58246  -0.56739
 Alpha  occ. eigenvalues --   -0.54658  -0.49849  -0.48651  -0.42093  -0.37384
 Alpha  occ. eigenvalues --   -0.35448  -0.34745  -0.32151  -0.32095  -0.31831
 Alpha  occ. eigenvalues --   -0.30414  -0.30183
 Alpha virt. eigenvalues --   -0.21145  -0.20131  -0.17514  -0.14600  -0.11988
 Alpha virt. eigenvalues --   -0.11526  -0.10070  -0.09602  -0.09596  -0.08566
 Alpha virt. eigenvalues --   -0.08096  -0.07466  -0.06506  -0.05821  -0.05508
 Alpha virt. eigenvalues --   -0.04905  -0.04905  -0.04736  -0.04309  -0.04073
 Alpha virt. eigenvalues --   -0.03935  -0.03924  -0.03720  -0.03408  -0.02976
 Alpha virt. eigenvalues --   -0.02733  -0.02610  -0.02367  -0.02256   0.00333
 Alpha virt. eigenvalues --    0.01675   0.02036   0.03280   0.04019   0.04486
 Alpha virt. eigenvalues --    0.05071   0.05421   0.05736   0.06122   0.06846
 Alpha virt. eigenvalues --    0.06929   0.08385   0.08591   0.08838   0.09072
 Alpha virt. eigenvalues --    0.09249   0.09697   0.10884   0.12036   0.12207
 Alpha virt. eigenvalues --    0.13229   0.13319   0.14260   0.15503   0.15589
 Alpha virt. eigenvalues --    0.15929   0.16454   0.17682   0.17904   0.20420
 Alpha virt. eigenvalues --    0.21739   0.22332   0.24112   0.25325   0.27556
 Alpha virt. eigenvalues --    0.27667   0.28379   0.29562   0.29662   0.31052
 Alpha virt. eigenvalues --    0.31874   0.33439   0.33774   0.36137   0.38178
 Alpha virt. eigenvalues --    0.40504   0.41787   0.44963   0.49720   0.51553
 Alpha virt. eigenvalues --    0.52975   0.56264   0.56720   0.62297   0.65439
 Alpha virt. eigenvalues --    0.69991   0.76488   0.80758   0.87180   0.96322
 Alpha virt. eigenvalues --    1.04156   1.04716   1.07472   1.08819   1.11940
 Alpha virt. eigenvalues --    1.13195   1.14733   1.15081   1.16470   1.19522
 Alpha virt. eigenvalues --    1.22882   1.24778   1.24819   1.27916   1.29059
 Alpha virt. eigenvalues --    1.35333   1.40756   1.44481   1.45204   1.48351
 Alpha virt. eigenvalues --    1.52348   1.57657   1.59744   1.64828   1.70061
 Alpha virt. eigenvalues --    1.76976   1.80553   1.81171   1.82779   1.83219
 Alpha virt. eigenvalues --    1.85011   1.85407   1.86319   1.87195   1.87880
 Alpha virt. eigenvalues --    1.87891   1.89515   1.94268   1.98673   2.04808
 Alpha virt. eigenvalues --    2.06085   2.25125   2.34358   2.47625   2.66947
 Alpha virt. eigenvalues --    3.07888   3.39216   3.80568   3.93116   3.98583
 Alpha virt. eigenvalues --    4.02693   4.16574
          Condensed to atoms (all electrons):
              1          2          3          4          5          6
     1  O    8.687790  -0.115673   0.060270   0.006943   0.002918   0.010595
     2  P   -0.115673  14.653420  -0.175182   0.005633  -0.000356  -0.023326
     3  O    0.060270  -0.175182   8.409450  -0.062587  -0.003300  -0.044340
     4  O    0.006943   0.005633  -0.062587   8.462085  -0.001246   0.129945
     5  O    0.002918  -0.000356  -0.003300  -0.001246   8.844009   0.226194
     6  Ca   0.010595  -0.023326  -0.044340   0.129945   0.226194  18.281224
     7  Ca   0.006168  -0.001202   0.007884   0.002441   0.183981  -0.011609
     8  O   -0.010109  -0.003475   0.006166   0.002095  -0.003747   0.003232
     9  Ca   0.056532  -0.025830   0.007819  -0.000420   0.004129   0.002030
              7          8          9
     1  O    0.006168  -0.010109   0.056532
     2  P   -0.001202  -0.003475  -0.025830
     3  O    0.007884   0.006166   0.007819
     4  O    0.002441   0.002095  -0.000420
     5  O    0.183981  -0.003747   0.004129
     6  Ca  -0.011609   0.003232   0.002030
     7  Ca  18.272667   0.159234  -0.008304
     8  O    0.159234   8.859749   0.236829
     9  Ca  -0.008304   0.236829  18.268942
 Mulliken atomic charges:
              1
     1  O   -0.705434
     2  P    0.685991
     3  O   -0.206180
     4  O   -0.544889
     5  O   -1.252581
     6  Ca   1.426054
     7  Ca   1.388738
     8  O   -1.249974
     9  Ca   1.458274
 Sum of Mulliken charges=   1.00000
 Atomic charges with hydrogens summed into heavy atoms:
              1
     1  O   -0.705434
     2  P    0.685991
     3  O   -0.206180
     4  O   -0.544889
     5  O   -1.252581
     6  Ca   1.426054
     7  Ca   1.388738
     8  O   -1.249974
     9  Ca   1.458274
 Sum of Mulliken charges=   1.00000
 Electronic spatial extent (au):  <R**2>=  3121.1175
 Charge=     1.0000 electrons
 Dipole moment (field-independent basis, Debye):
    X=     4.9720    Y=    -2.4750    Z=     0.0000  Tot=     5.5539
 Quadrupole moment (field-independent basis, Debye-Ang):
   XX=     1.6981   YY=   -77.6812   ZZ=   -74.4128
   XY=    19.8602   XZ=     0.0000   YZ=     0.0000
 Traceless Quadrupole moment (field-independent basis, Debye-Ang):
   XX=    51.8301   YY=   -27.5492   ZZ=   -24.2809
   XY=    19.8602   XZ=     0.0000   YZ=     0.0000
 Octapole moment (field-independent basis, Debye-Ang**2):
  XXX=    30.2237  YYY=   -96.2644  ZZZ=     0.0000  XYY=    69.1623
  XXY=    52.9930  XXZ=     0.0000  XZZ=     3.6593  YZZ=    -0.3712
  YYZ=     0.0000  XYZ=     0.0000
 Hexadecapole moment (field-independent basis, Debye-Ang**3):
 XXXX=  -677.7752 YYYY= -1242.7326 ZZZZ=   -87.5817 XXXY=   394.5184
 XXXZ=     0.0000 YYYX=  -143.2707 YYYZ=     0.0000 ZZZX=     0.0000
 ZZZY=     0.0000 XXYY=  -686.6199 XXZZ=  -332.2758 YYZZ=  -233.1923
 XXYZ=     0.0000 YYXZ=     0.0000 ZZXY=    -2.5785
 N-N= 9.025732995881D+02 E-N=-8.307139540945D+03  KE= 2.742155384867D+03
 Symmetry A'   KE= 2.475740983327D+03
 Symmetry A"   KE= 2.664144015400D+02
 Merz-Kollman atomic radii used.
 Read replacement radii for each type of atom:
 Rad(20) =   1.188000000000D+00
 Atom Element Radius
    1     8    1.40
    2    15    1.80
    3     8    1.40
    4     8    1.40
    5     8    1.40
    6    20    1.19
    7    20    1.19
    8     8    1.40
    9    20    1.19

 **********************************************************************

            Electrostatic Properties Using The SCF Density

 **********************************************************************

       Atomic Center    1 is at   1.341370  2.079880  0.000000
       Atomic Center    2 is at   0.000000  1.341250  0.000000
       Atomic Center    3 is at  -1.184040  2.431819  0.000000
       Atomic Center    4 is at  -2.432000  1.680669  0.000000
       Atomic Center    5 is at  -1.619819 -2.034911  0.000000
       Atomic Center    6 is at  -3.055000 -0.481771  0.000000
       Atomic Center    7 is at   0.497931 -2.447760  0.000000
       Atomic Center    8 is at   2.241111 -1.141450  0.000000
       Atomic Center    9 is at   3.218420  0.717191  0.000000
     826 points will be used for fitting atomic charges
 Fitting point charges to eletrostatic potential
 Charges from ESP fit, RMS=   0.00514 RRMS=   0.03545:
 Charge=   1.00000 Dipole=     5.1625    -2.6343     0.0000 Tot=     5.7958
              1
     1  O   -0.634287
     2  P    0.439085
     3  O    0.094313
     4  O   -0.800688
     5  O   -1.682455
     6  Ca   1.738574
     7  Ca   1.789519
     8  O   -1.642255
     9  Ca   1.698193
 -----------------------------------------------------------------

              Electrostatic Properties (Atomic Units)

 -----------------------------------------------------------------
    Center     Electric         -------- Electric Field --------
               Potential          X             Y             Z
 -----------------------------------------------------------------
    1 Atom    -22.174564
    2 Atom    -53.912082
    3 Atom    -22.130335
    4 Atom    -22.204753
    5 Atom    -22.351022
    6 Atom    -80.058129
    7 Atom    -80.106321
    8 Atom    -22.333549
    9 Atom    -80.023444
 -----------------------------------------------------------------
 1\1\GINC-N025\SP\RB3LYP\6-31+G(d,p)\Ca3O5P1(1+)\TIMN\12-Jun-2015\0\\# 
 b3lyp/6-31+G(d,p) int=ultrafine pop=(ReadRadii,MK)\\mol_17.23.32.pdb_p
 lusQ.z58233.zip.xyz\\1,1\O,0,1.34137,2.07988,0.\P,0,0.,1.34125,0.\O,0,
 -1.18404,2.43182,0.\O,0,-2.432,1.68067,0.\O,0,-1.61982,-2.03491,0.\Ca,
 0,-3.055,-0.48177,0.\Ca,0,0.49793,-2.44776,0.\O,0,2.24111,-1.14145,0.\
 Ca,0,3.21842,0.71719,0.\\Version=EM64T-G03RevE.01\State=1-A'\HF=-2750.
 0687862\RMSD=8.360e-05\Thermal=0.\Dipole=1.9561174,-0.9737512,0.\PG=CS
  [SG(Ca3O5P1)]\\@


 SACRED COWS MAKE GREAT HAMBURGERS -- ROBERT REISNER
 Job cpu time:  0 days  0 hours  1 minutes 46.7 seconds.
 File lengths (MBytes):  RWF=     36 Int=      0 D2E=      0 Chk=     11 Scr=      1
 Normal termination of Gaussian 03 at Fri Jun 12 17:52:35 2015.
