 Entering Gaussian System, Link 0=/home/timn/tmp/g03.e01/g03
 Input=mol_17.28.5.pdbc_plusQ.z58585.zip.xyz.gjf
 Output=mol_17.28.5.pdbc_plusQ.z58585.zip.xyz.out
 Initial command:
 /home/timn/tmp/g03.e01/l1.exe /home/timn/tmp/g03.e01/Gau-14146.inp -scrdir=/home/timn/tmp/g03.e01/
 Default is to use a total of   2 processors:
                                2 via shared-memory
                                1 via Linda
 Entering Link 1 = /home/timn/tmp/g03.e01/l1.exe PID=     14147.
  
 Copyright (c) 1988,1990,1992,1993,1995,1998,2003,2004,2007, Gaussian, Inc.
                  All Rights Reserved.
  
 This is the Gaussian(R) 03 program.  It is based on the
 the Gaussian(R) 98 system (copyright 1998, Gaussian, Inc.),
 the Gaussian(R) 94 system (copyright 1995, Gaussian, Inc.),
 the Gaussian 92(TM) system (copyright 1992, Gaussian, Inc.),
 the Gaussian 90(TM) system (copyright 1990, Gaussian, Inc.),
 the Gaussian 88(TM) system (copyright 1988, Gaussian, Inc.),
 the Gaussian 86(TM) system (copyright 1986, Carnegie Mellon
 University), and the Gaussian 82(TM) system (copyright 1983,
 Carnegie Mellon University). Gaussian is a federally registered
 trademark of Gaussian, Inc.
  
 This software contains proprietary and confidential information,
 including trade secrets, belonging to Gaussian, Inc.
  
 This software is provided under written license and may be
 used, copied, transmitted, or stored only in accord with that
 written license.
  
 The following legend is applicable only to US Government
 contracts under FAR:
  
                    RESTRICTED RIGHTS LEGEND
  
 Use, reproduction and disclosure by the US Government is
 subject to restrictions as set forth in subparagraphs (a)
 and (c) of the Commercial Computer Software - Restricted
 Rights clause in FAR 52.227-19.
  
 Gaussian, Inc.
 340 Quinnipiac St., Bldg. 40, Wallingford CT 06492
  
  
 ---------------------------------------------------------------
 Warning -- This program may not be used in any manner that
 competes with the business of Gaussian, Inc. or will provide
 assistance to any competitor of Gaussian, Inc.  The licensee
 of this program is prohibited from giving any competitor of
 Gaussian, Inc. access to this program.  By using this program,
 the user acknowledges that Gaussian, Inc. is engaged in the
 business of creating and licensing software in the field of
 computational chemistry and represents and warrants to the
 licensee that it is not a competitor of Gaussian, Inc. and that
 it will not use this program in any manner prohibited above.
 ---------------------------------------------------------------
  

 Cite this work as:
 Gaussian 03, Revision E.01,
 M. J. Frisch, G. W. Trucks, H. B. Schlegel, G. E. Scuseria, 
 M. A. Robb, J. R. Cheeseman, J. A. Montgomery, Jr., T. Vreven, 
 K. N. Kudin, J. C. Burant, J. M. Millam, S. S. Iyengar, J. Tomasi, 
 V. Barone, B. Mennucci, M. Cossi, G. Scalmani, N. Rega, 
 G. A. Petersson, H. Nakatsuji, M. Hada, M. Ehara, K. Toyota, 
 R. Fukuda, J. Hasegawa, M. Ishida, T. Nakajima, Y. Honda, O. Kitao, 
 H. Nakai, M. Klene, X. Li, J. E. Knox, H. P. Hratchian, J. B. Cross, 
 V. Bakken, C. Adamo, J. Jaramillo, R. Gomperts, R. E. Stratmann, 
 O. Yazyev, A. J. Austin, R. Cammi, C. Pomelli, J. W. Ochterski, 
 P. Y. Ayala, K. Morokuma, G. A. Voth, P. Salvador, J. J. Dannenberg, 
 V. G. Zakrzewski, S. Dapprich, A. D. Daniels, M. C. Strain, 
 O. Farkas, D. K. Malick, A. D. Rabuck, K. Raghavachari, 
 J. B. Foresman, J. V. Ortiz, Q. Cui, A. G. Baboul, S. Clifford, 
 J. Cioslowski, B. B. Stefanov, G. Liu, A. Liashenko, P. Piskorz, 
 I. Komaromi, R. L. Martin, D. J. Fox, T. Keith, M. A. Al-Laham, 
 C. Y. Peng, A. Nanayakkara, M. Challacombe, P. M. W. Gill, 
 B. Johnson, W. Chen, M. W. Wong, C. Gonzalez, and J. A. Pople, 
 Gaussian, Inc., Wallingford CT, 2004.
 
 ******************************************
 Gaussian 03:  EM64T-G03RevE.01 11-Sep-2007
                12-Jun-2015 
 ******************************************
 %nproc=2
 Will use up to    2 processors via shared memory.
 Default route:  MP2=Direct MaxDisk=2000MB
 ----------------------------------------------------
 # b3lyp/6-31+G(d,p) int=ultrafine pop=(ReadRadii,MK)
 ----------------------------------------------------

 Warning!  SCF SP cutoffs with diffuse functions may be unreliable.
 Consider SCF=Tight

 1/38=1/1;
 2/17=6,18=5,40=1/2;
 3/5=1,6=6,7=111,11=2,16=1,25=1,30=1,74=-5,75=5/1,2,3;
 4//1;
 5/5=2,32=1,38=5/2;
 6/7=2,8=2,9=2,10=2,15=8,20=101,28=1/1,2;
 99/5=1,9=1/99;
 -------------------------------------
 mol_17.28.5.pdbc_plusQ.z58585.zip.xyz
 -------------------------------------
 Symbolic Z-matrix:
 Charge =  1 Multiplicity = 1
 O                     4.53209  -0.4925    0.74424 
 O                     4.51072  -0.7487   -0.53083 
 Ca                    2.41597   0.2982   -0.06272 
 O                     0.9904    1.91829  -0.04711 
 O                     0.61598  -1.30583  -0.05036 
 P                    -0.8286   -1.75068  -0.04306 
 Ca                   -4.22101  -0.39673   0.05846 
 O                    -1.83498  -0.51123  -0.00125 
 Ca                   -1.09919   1.86753  -0.00932 
 
                          Input orientation:                          
 ---------------------------------------------------------------------
 Center     Atomic     Atomic              Coordinates (Angstroms)
 Number     Number      Type              X           Y           Z
 ---------------------------------------------------------------------
    1          8             0        4.532090   -0.492500    0.744240
    2          8             0        4.510720   -0.748700   -0.530830
    3         20             0        2.415970    0.298200   -0.062720
    4          8             0        0.990400    1.918290   -0.047110
    5          8             0        0.615980   -1.305830   -0.050360
    6         15             0       -0.828600   -1.750680   -0.043060
    7         20             0       -4.221010   -0.396730    0.058460
    8          8             0       -1.834980   -0.511230   -0.001250
    9         20             0       -1.099190    1.867530   -0.009320
 ---------------------------------------------------------------------
                    Distance matrix (angstroms):
                    1          2          3          4          5
     1  O    0.000000
     2  O    1.300730   0.000000
     3  Ca   2.398824   2.388117   0.000000
     4  O    4.356801   4.442913   2.158051   0.000000
     5  O    4.077844   3.963615   2.411022   3.245790   0.000000
     6  P    5.562361   5.454376   3.837386   4.095133   1.511541
     7  Ca   8.780446   8.758667   6.674363   5.703443   4.922883
     8  O    6.410592   6.372186   4.327763   3.726586   2.577015
     9  Ca   6.152147   6.211902   3.849935   2.090548   3.607451
                    6          7          8          9
     6  P    0.000000
     7  Ca   3.654030   0.000000
     8  O    1.597118   2.389522   0.000000
     9  Ca   3.628471   3.857101   2.489970   0.000000
 Stoichiometry    Ca3O5P(1+)
 Framework group  C1[X(Ca3O5P)]
 Deg. of freedom    21
 Full point group                 C1
 Largest Abelian subgroup         C1      NOp   1
 Largest concise Abelian subgroup C1      NOp   1
                         Standard orientation:                         
 ---------------------------------------------------------------------
 Center     Atomic     Atomic              Coordinates (Angstroms)
 Number     Number      Type              X           Y           Z
 ---------------------------------------------------------------------
    1          8             0        4.532090   -0.492498    0.744240
    2          8             0        4.510720   -0.748698   -0.530830
    3         20             0        2.415969    0.298201   -0.062720
    4          8             0        0.990398    1.918290   -0.047110
    5          8             0        0.615980   -1.305830   -0.050360
    6         15             0       -0.828600   -1.750681   -0.043060
    7         20             0       -4.221011   -0.396732    0.058460
    8          8             0       -1.834980   -0.511231   -0.001250
    9         20             0       -1.099192    1.867529   -0.009320
 ---------------------------------------------------------------------
 Rotational constants (GHZ):      1.3995848      0.2874403      0.2416113
 Standard basis: 6-31+G(d,p) (6D, 7F)
 There are   199 symmetry adapted basis functions of A   symmetry.
 Integral buffers will be    131072 words long.
 Raffenetti 2 integral format.
 Two-electron integral symmetry is turned on.
   199 basis functions,   456 primitive gaussians,   199 cartesian basis functions
    57 alpha electrons       57 beta electrons
       nuclear repulsion energy       868.8409525114 Hartrees.
 NAtoms=    9 NActive=    9 NUniq=    9 SFac= 7.50D-01 NAtFMM=   80 NAOKFM=F Big=F
 One-electron integrals computed using PRISM.
 NBasis=   199 RedAO= T  NBF=   199
 NBsUse=   199 1.00D-06 NBFU=   199
 Harris functional with IExCor=  402 diagonalized for initial guess.
 ExpMin= 7.10D-03 ExpMax= 3.53D+04 ExpMxC= 5.30D+03 IAcc=3 IRadAn=         5 AccDes= 0.00D+00
 HarFok:  IExCor= 402 AccDes= 0.00D+00 IRadAn=         5 IDoV=1
 ScaDFX=  1.000000  1.000000  1.000000  1.000000
 Initial guess orbital symmetries:
       Occupied  (A) (A) (A) (A) (A) (A) (A) (A) (A) (A) (A) (A)
                 (A) (A) (A) (A) (A) (A) (A) (A) (A) (A) (A) (A)
                 (A) (A) (A) (A) (A) (A) (A) (A) (A) (A) (A) (A)
                 (A) (A) (A) (A) (A) (A) (A) (A) (A) (A) (A) (A)
                 (A) (A) (A) (A) (A) (A) (A) (A) (A)
       Virtual   (A) (A) (A) (A) (A) (A) (A) (A) (A) (A) (A) (A)
                 (A) (A) (A) (A) (A) (A) (A) (A) (A) (A) (A) (A)
                 (A) (A) (A) (A) (A) (A) (A) (A) (A) (A) (A) (A)
                 (A) (A) (A) (A) (A) (A) (A) (A) (A) (A) (A) (A)
                 (A) (A) (A) (A) (A) (A) (A) (A) (A) (A) (A) (A)
                 (A) (A) (A) (A) (A) (A) (A) (A) (A) (A) (A) (A)
                 (A) (A) (A) (A) (A) (A) (A) (A) (A) (A) (A) (A)
                 (A) (A) (A) (A) (A) (A) (A) (A) (A) (A) (A) (A)
                 (A) (A) (A) (A) (A) (A) (A) (A) (A) (A) (A) (A)
                 (A) (A) (A) (A) (A) (A) (A) (A) (A) (A) (A) (A)
                 (A) (A) (A) (A) (A) (A) (A) (A) (A) (A) (A) (A)
                 (A) (A) (A) (A) (A) (A) (A) (A) (A) (A)
 The electronic state of the initial guess is 1-A.
 Requested convergence on RMS density matrix=1.00D-04 within 128 cycles.
 Requested convergence on MAX density matrix=1.00D-02.
 Requested convergence on             energy=1.00D-02.
 No special actions if energy rises.
 EnCoef did     6 forward-backward iterations
 EnCoef did   100 forward-backward iterations
 EnCoef did     6 forward-backward iterations
 EnCoef did   100 forward-backward iterations
 EnCoef did     8 forward-backward iterations
 EnCoef did    29 forward-backward iterations
 EnCoef did   100 forward-backward iterations
 EnCoef did   100 forward-backward iterations
 SCF Done:  E(RB+HF-LYP) =  -2749.45601799     A.U. after   10 cycles
             Convg  =    0.4051D-04             -V/T =  2.0014
             S**2   =   0.0000

 **********************************************************************

            Population analysis using the SCF density.

 **********************************************************************

 Orbital symmetries:
       Occupied  (A) (A) (A) (A) (A) (A) (A) (A) (A) (A) (A) (A)
                 (A) (A) (A) (A) (A) (A) (A) (A) (A) (A) (A) (A)
                 (A) (A) (A) (A) (A) (A) (A) (A) (A) (A) (A) (A)
                 (A) (A) (A) (A) (A) (A) (A) (A) (A) (A) (A) (A)
                 (A) (A) (A) (A) (A) (A) (A) (A) (A)
       Virtual   (A) (A) (A) (A) (A) (A) (A) (A) (A) (A) (A) (A)
                 (A) (A) (A) (A) (A) (A) (A) (A) (A) (A) (A) (A)
                 (A) (A) (A) (A) (A) (A) (A) (A) (A) (A) (A) (A)
                 (A) (A) (A) (A) (A) (A) (A) (A) (A) (A) (A) (A)
                 (A) (A) (A) (A) (A) (A) (A) (A) (A) (A) (A) (A)
                 (A) (A) (A) (A) (A) (A) (A) (A) (A) (A) (A) (A)
                 (A) (A) (A) (A) (A) (A) (A) (A) (A) (A) (A) (A)
                 (A) (A) (A) (A) (A) (A) (A) (A) (A) (A) (A) (A)
                 (A) (A) (A) (A) (A) (A) (A) (A) (A) (A) (A) (A)
                 (A) (A) (A) (A) (A) (A) (A) (A) (A) (A) (A) (A)
                 (A) (A) (A) (A) (A) (A) (A) (A) (A) (A) (A) (A)
                 (A) (A) (A) (A) (A) (A) (A) (A) (A) (A)
 The electronic state is 1-A.
 Alpha  occ. eigenvalues -- -145.52468-145.51962-145.49724 -77.31925 -19.34879
 Alpha  occ. eigenvalues --  -19.34516 -19.34454 -19.33045 -19.19545 -15.59430
 Alpha  occ. eigenvalues --  -15.58651 -15.56597 -12.72669 -12.72603 -12.72502
 Alpha  occ. eigenvalues --  -12.71872 -12.71870 -12.71807 -12.69859 -12.69809
 Alpha  occ. eigenvalues --  -12.69661  -6.77609  -4.93977  -4.93833  -4.93399
 Alpha  occ. eigenvalues --   -1.96720  -1.95362  -1.93869  -1.28285  -1.24499
 Alpha  occ. eigenvalues --   -1.24288  -1.24050  -1.22935  -1.22818  -1.22752
 Alpha  occ. eigenvalues --   -1.21809  -1.21699  -1.20364  -1.18010  -1.12329
 Alpha  occ. eigenvalues --   -0.93702  -0.87597  -0.71309  -0.61052  -0.57516
 Alpha  occ. eigenvalues --   -0.56903  -0.56140  -0.55352  -0.54414  -0.49800
 Alpha  occ. eigenvalues --   -0.49093  -0.43717  -0.39141  -0.37222  -0.37008
 Alpha  occ. eigenvalues --   -0.33824  -0.32182
 Alpha virt. eigenvalues --   -0.24674  -0.22899  -0.20136  -0.15430  -0.15348
 Alpha virt. eigenvalues --   -0.13730  -0.12750  -0.11591  -0.10375  -0.09612
 Alpha virt. eigenvalues --   -0.09091  -0.08436  -0.07676  -0.06834  -0.06134
 Alpha virt. eigenvalues --   -0.05979  -0.05542  -0.05495  -0.05205  -0.04807
 Alpha virt. eigenvalues --   -0.04664  -0.04395  -0.04211  -0.03749  -0.03718
 Alpha virt. eigenvalues --   -0.03362  -0.03132  -0.02428  -0.02065  -0.01045
 Alpha virt. eigenvalues --    0.00349   0.01182   0.01226   0.02112   0.02459
 Alpha virt. eigenvalues --    0.03143   0.03536   0.04034   0.04410   0.04720
 Alpha virt. eigenvalues --    0.04995   0.05326   0.05604   0.06031   0.06530
 Alpha virt. eigenvalues --    0.06956   0.07220   0.07704   0.07913   0.08431
 Alpha virt. eigenvalues --    0.09232   0.10133   0.11341   0.11909   0.12772
 Alpha virt. eigenvalues --    0.14183   0.14471   0.14750   0.15841   0.16361
 Alpha virt. eigenvalues --    0.17829   0.18003   0.19309   0.19935   0.20047
 Alpha virt. eigenvalues --    0.21680   0.22364   0.23081   0.26092   0.26552
 Alpha virt. eigenvalues --    0.28704   0.30815   0.31813   0.31853   0.34585
 Alpha virt. eigenvalues --    0.35346   0.36381   0.38851   0.40081   0.43256
 Alpha virt. eigenvalues --    0.47710   0.53321   0.54152   0.56301   0.56371
 Alpha virt. eigenvalues --    0.65883   0.73869   0.76561   0.85483   0.92287
 Alpha virt. eigenvalues --    0.94352   0.98803   1.02462   1.04182   1.06120
 Alpha virt. eigenvalues --    1.07566   1.07837   1.08423   1.09064   1.12674
 Alpha virt. eigenvalues --    1.13670   1.14698   1.18863   1.20382   1.21947
 Alpha virt. eigenvalues --    1.28735   1.34056   1.37145   1.40184   1.42027
 Alpha virt. eigenvalues --    1.46478   1.48033   1.51050   1.58061   1.60904
 Alpha virt. eigenvalues --    1.62866   1.66031   1.72586   1.73146   1.76470
 Alpha virt. eigenvalues --    1.78037   1.79428   1.79471   1.82090   1.83524
 Alpha virt. eigenvalues --    1.83808   1.87437   1.94276   2.03400   2.06852
 Alpha virt. eigenvalues --    2.20327   2.41520   2.42200   2.46318   2.65928
 Alpha virt. eigenvalues --    2.94289   3.37941   3.81505   3.86181   3.89632
 Alpha virt. eigenvalues --    3.94678   4.01630
          Condensed to atoms (all electrons):
              1          2          3          4          5          6
     1  O    8.897064  -0.130431   0.092808   0.001185  -0.001279  -0.001433
     2  O   -0.130431   8.899762   0.087498  -0.000232   0.000488   0.000158
     3  Ca   0.092808   0.087498  18.288256   0.175869   0.043506  -0.025601
     4  O    0.001185  -0.000232   0.175869   8.940536  -0.000229  -0.005575
     5  O   -0.001279   0.000488   0.043506  -0.000229   8.798241  -0.050123
     6  P   -0.001433   0.000158  -0.025601  -0.005575  -0.050123  14.570978
     7  Ca   0.000853   0.000449   0.004524   0.001865   0.010662  -0.044266
     8  O   -0.000040  -0.000007   0.006709   0.000819  -0.029494  -0.300648
     9  Ca   0.001301   0.000564  -0.021526   0.206067  -0.012001   0.034498
              7          8          9
     1  O    0.000853  -0.000040   0.001301
     2  O    0.000449  -0.000007   0.000564
     3  Ca   0.004524   0.006709  -0.021526
     4  O    0.001865   0.000819   0.206067
     5  O    0.010662  -0.029494  -0.012001
     6  P   -0.044266  -0.300648   0.034498
     7  Ca  18.060080   0.048285  -0.012348
     8  O    0.048285   9.102758   0.012910
     9  Ca  -0.012348   0.012910  18.250750
 Mulliken atomic charges:
              1
     1  O   -0.860029
     2  O   -0.858250
     3  Ca   1.347956
     4  O   -1.320305
     5  O   -0.759772
     6  P    0.822011
     7  Ca   1.929896
     8  O   -0.841293
     9  Ca   1.539786
 Sum of Mulliken charges=   1.00000
 Atomic charges with hydrogens summed into heavy atoms:
              1
     1  O   -0.860029
     2  O   -0.858250
     3  Ca   1.347956
     4  O   -1.320305
     5  O   -0.759772
     6  P    0.822011
     7  Ca   1.929896
     8  O   -0.841293
     9  Ca   1.539786
 Sum of Mulliken charges=   1.00000
 Electronic spatial extent (au):  <R**2>=  3892.6000
 Charge=     1.0000 electrons
 Dipole moment (field-independent basis, Debye):
    X=   -74.1104    Y=     5.2522    Z=    -0.5151  Tot=    74.2981
 Quadrupole moment (field-independent basis, Debye-Ang):
   XX=   -44.2932   YY=   -67.4054   ZZ=   -72.9321
   XY=    16.5005   XZ=    -6.9062   YZ=    -0.1663
 Traceless Quadrupole moment (field-independent basis, Debye-Ang):
   XX=    17.2504   YY=    -5.8618   ZZ=   -11.3886
   XY=    16.5005   XZ=    -6.9062   YZ=    -0.1663
 Octapole moment (field-independent basis, Debye-Ang**2):
  XXX= -1462.1889  YYY=    23.9209  ZZZ=    -1.3033  XYY=  -116.2882
  XXY=    69.5279  XXZ=   -10.9912  XZZ=   -49.8019  YZZ=     7.2816
  YYZ=     1.8715  XYZ=    -0.2097
 Hexadecapole moment (field-independent basis, Debye-Ang**3):
 XXXX= -3292.8892 YYYY=  -750.1151 ZZZZ=  -100.1211 XXXY=   733.7674
 XXXZ=  -138.6372 YYYX=   -98.5390 YYYZ=    -0.0366 ZZZX=   -14.8911
 ZZZY=     0.9721 XXYY=  -654.3636 XXZZ=  -602.2156 YYZZ=  -142.0615
 XXYZ=   -10.6467 YYXZ=     0.8825 ZZXY=    10.2970
 N-N= 8.688409525114D+02 E-N=-8.246277361077D+03  KE= 2.745677632456D+03
 Merz-Kollman atomic radii used.
 Read replacement radii for each type of atom:
 Rad(20) =   1.188000000000D+00
 Atom Element Radius
    1     8    1.40
    2     8    1.40
    3    20    1.19
    4     8    1.40
    5     8    1.40
    6    15    1.80
    7    20    1.19
    8     8    1.40
    9    20    1.19

 **********************************************************************

            Electrostatic Properties Using The SCF Density

 **********************************************************************

       Atomic Center    1 is at   4.532090 -0.492498  0.744240
       Atomic Center    2 is at   4.510720 -0.748698 -0.530830
       Atomic Center    3 is at   2.415969  0.298201 -0.062720
       Atomic Center    4 is at   0.990398  1.918290 -0.047110
       Atomic Center    5 is at   0.615980 -1.305830 -0.050360
       Atomic Center    6 is at  -0.828600 -1.750681 -0.043060
       Atomic Center    7 is at  -4.221011 -0.396732  0.058460
       Atomic Center    8 is at  -1.834980 -0.511231 -0.001250
       Atomic Center    9 is at  -1.099192  1.867529 -0.009320
     957 points will be used for fitting atomic charges
 Fitting point charges to eletrostatic potential
 Charges from ESP fit, RMS=   0.00494 RRMS=   0.02025:
 Charge=   1.00000 Dipole=   -74.1931     5.2979    -0.5250 Tot=    74.3838
              1
     1  O   -0.899890
     2  O   -0.907525
     3  Ca   1.583496
     4  O   -1.600579
     5  O   -0.696248
     6  P    0.702165
     7  Ca   1.930514
     8  O   -0.843300
     9  Ca   1.731367
 -----------------------------------------------------------------

              Electrostatic Properties (Atomic Units)

 -----------------------------------------------------------------
    Center     Electric         -------- Electric Field --------
               Potential          X             Y             Z
 -----------------------------------------------------------------
    1 Atom    -23.055241
    2 Atom    -23.061502
    3 Atom    -80.305781
    4 Atom    -22.593665
    5 Atom    -22.334283
    6 Atom    -53.808456
    7 Atom    -79.620015
    8 Atom    -21.993425
    9 Atom    -79.932385
 -----------------------------------------------------------------
 1\1\GINC-N059\SP\RB3LYP\6-31+G(d,p)\Ca3O5P1(1+)\TIMN\12-Jun-2015\0\\# 
 b3lyp/6-31+G(d,p) int=ultrafine pop=(ReadRadii,MK)\\mol_17.28.5.pdbc_p
 lusQ.z58585.zip.xyz\\1,1\O,0,4.53209,-0.4925,0.74424\O,0,4.51072,-0.74
 87,-0.53083\Ca,0,2.41597,0.2982,-0.06272\O,0,0.9904,1.91829,-0.04711\O
 ,0,0.61598,-1.30583,-0.05036\P,0,-0.8286,-1.75068,-0.04306\Ca,0,-4.221
 01,-0.39673,0.05846\O,0,-1.83498,-0.51123,-0.00125\Ca,0,-1.09919,1.867
 53,-0.00932\\Version=EM64T-G03RevE.01\State=1-A\HF=-2749.456018\RMSD=4
 .051e-05\Thermal=0.\Dipole=-29.1572823,2.0663944,-0.2026582\PG=C01 [X(
 Ca3O5P1)]\\@


 SCIENCE IS A VERY HUMAN FORM OF KNOWLEDGE.
 WE ARE ALWAYS AT THE BRINK OF THE KNOWN,
 WE ALWAYS FEEL FORWARD FOR WHAT IS HOPED.
 EVERY JUDGEMENT IN SCIENCE STANDS ON THE EDGE OF ERROR, AND IS PERSONAL.
 SCIENCE IS A TRIBUTE TO WHAT WE CAN KNOW ALTHOUGH WE ARE FALLIBLE.

                     -- J. BRONOWSKI
 Job cpu time:  0 days  0 hours  2 minutes 15.5 seconds.
 File lengths (MBytes):  RWF=     36 Int=      0 D2E=      0 Chk=     11 Scr=      1
 Normal termination of Gaussian 03 at Fri Jun 12 18:11:20 2015.
