 Entering Gaussian System, Link 0=/home/timn/tmp/g03.e01/g03
 Input=mol_17.23.35.pdbcc_plusQ.z58236.zip.xyz.gjf
 Output=mol_17.23.35.pdbcc_plusQ.z58236.zip.xyz.out
 Initial command:
 /home/timn/tmp/g03.e01/l1.exe /home/timn/tmp/g03.e01/Gau-18045.inp -scrdir=/home/timn/tmp/g03.e01/
 Default is to use a total of   2 processors:
                                2 via shared-memory
                                1 via Linda
 Entering Link 1 = /home/timn/tmp/g03.e01/l1.exe PID=     18046.
  
 Copyright (c) 1988,1990,1992,1993,1995,1998,2003,2004,2007, Gaussian, Inc.
                  All Rights Reserved.
  
 This is the Gaussian(R) 03 program.  It is based on the
 the Gaussian(R) 98 system (copyright 1998, Gaussian, Inc.),
 the Gaussian(R) 94 system (copyright 1995, Gaussian, Inc.),
 the Gaussian 92(TM) system (copyright 1992, Gaussian, Inc.),
 the Gaussian 90(TM) system (copyright 1990, Gaussian, Inc.),
 the Gaussian 88(TM) system (copyright 1988, Gaussian, Inc.),
 the Gaussian 86(TM) system (copyright 1986, Carnegie Mellon
 University), and the Gaussian 82(TM) system (copyright 1983,
 Carnegie Mellon University). Gaussian is a federally registered
 trademark of Gaussian, Inc.
  
 This software contains proprietary and confidential information,
 including trade secrets, belonging to Gaussian, Inc.
  
 This software is provided under written license and may be
 used, copied, transmitted, or stored only in accord with that
 written license.
  
 The following legend is applicable only to US Government
 contracts under FAR:
  
                    RESTRICTED RIGHTS LEGEND
  
 Use, reproduction and disclosure by the US Government is
 subject to restrictions as set forth in subparagraphs (a)
 and (c) of the Commercial Computer Software - Restricted
 Rights clause in FAR 52.227-19.
  
 Gaussian, Inc.
 340 Quinnipiac St., Bldg. 40, Wallingford CT 06492
  
  
 ---------------------------------------------------------------
 Warning -- This program may not be used in any manner that
 competes with the business of Gaussian, Inc. or will provide
 assistance to any competitor of Gaussian, Inc.  The licensee
 of this program is prohibited from giving any competitor of
 Gaussian, Inc. access to this program.  By using this program,
 the user acknowledges that Gaussian, Inc. is engaged in the
 business of creating and licensing software in the field of
 computational chemistry and represents and warrants to the
 licensee that it is not a competitor of Gaussian, Inc. and that
 it will not use this program in any manner prohibited above.
 ---------------------------------------------------------------
  

 Cite this work as:
 Gaussian 03, Revision E.01,
 M. J. Frisch, G. W. Trucks, H. B. Schlegel, G. E. Scuseria, 
 M. A. Robb, J. R. Cheeseman, J. A. Montgomery, Jr., T. Vreven, 
 K. N. Kudin, J. C. Burant, J. M. Millam, S. S. Iyengar, J. Tomasi, 
 V. Barone, B. Mennucci, M. Cossi, G. Scalmani, N. Rega, 
 G. A. Petersson, H. Nakatsuji, M. Hada, M. Ehara, K. Toyota, 
 R. Fukuda, J. Hasegawa, M. Ishida, T. Nakajima, Y. Honda, O. Kitao, 
 H. Nakai, M. Klene, X. Li, J. E. Knox, H. P. Hratchian, J. B. Cross, 
 V. Bakken, C. Adamo, J. Jaramillo, R. Gomperts, R. E. Stratmann, 
 O. Yazyev, A. J. Austin, R. Cammi, C. Pomelli, J. W. Ochterski, 
 P. Y. Ayala, K. Morokuma, G. A. Voth, P. Salvador, J. J. Dannenberg, 
 V. G. Zakrzewski, S. Dapprich, A. D. Daniels, M. C. Strain, 
 O. Farkas, D. K. Malick, A. D. Rabuck, K. Raghavachari, 
 J. B. Foresman, J. V. Ortiz, Q. Cui, A. G. Baboul, S. Clifford, 
 J. Cioslowski, B. B. Stefanov, G. Liu, A. Liashenko, P. Piskorz, 
 I. Komaromi, R. L. Martin, D. J. Fox, T. Keith, M. A. Al-Laham, 
 C. Y. Peng, A. Nanayakkara, M. Challacombe, P. M. W. Gill, 
 B. Johnson, W. Chen, M. W. Wong, C. Gonzalez, and J. A. Pople, 
 Gaussian, Inc., Wallingford CT, 2004.
 
 ******************************************
 Gaussian 03:  EM64T-G03RevE.01 11-Sep-2007
                12-Jun-2015 
 ******************************************
 %nproc=2
 Will use up to    2 processors via shared memory.
 Default route:  MP2=Direct MaxDisk=2000MB
 ----------------------------------------------------
 # b3lyp/6-31+G(d,p) int=ultrafine pop=(ReadRadii,MK)
 ----------------------------------------------------

 Warning!  SCF SP cutoffs with diffuse functions may be unreliable.
 Consider SCF=Tight

 1/38=1/1;
 2/17=6,18=5,40=1/2;
 3/5=1,6=6,7=111,11=2,16=1,25=1,30=1,74=-5,75=5/1,2,3;
 4//1;
 5/5=2,32=1,38=5/2;
 6/7=2,8=2,9=2,10=2,15=8,20=101,28=1/1,2;
 99/5=1,9=1/99;
 ---------------------------------------
 mol_17.23.35.pdbcc_plusQ.z58236.zip.xyz
 ---------------------------------------
 Symbolic Z-matrix:
 Charge =  1 Multiplicity = 1
 O                    -3.09158  -0.1073    0.00484 
 P                    -2.90347  -1.68192   0.00065 
 Ca                    0.19728  -1.18738  -0.00623 
 O                     2.16227  -0.75976   1.2025 
 O                     2.99473  -1.07687   0.00903 
 O                     2.17538  -0.76491  -1.19486 
 Ca                    2.28352   1.20548   0.00007 
 O                     0.03335   1.20055  -0.01052 
 Ca                   -2.01286   1.84666   0.00127 
 
                          Input orientation:                          
 ---------------------------------------------------------------------
 Center     Atomic     Atomic              Coordinates (Angstroms)
 Number     Number      Type              X           Y           Z
 ---------------------------------------------------------------------
    1          8             0       -3.091580   -0.107300    0.004840
    2         15             0       -2.903470   -1.681920    0.000650
    3         20             0        0.197280   -1.187380   -0.006230
    4          8             0        2.162270   -0.759760    1.202500
    5          8             0        2.994730   -1.076870    0.009030
    6          8             0        2.175380   -0.764910   -1.194860
    7         20             0        2.283520    1.205480    0.000070
    8          8             0        0.033350    1.200550   -0.010520
    9         20             0       -2.012860    1.846660    0.001270
 ---------------------------------------------------------------------
                    Distance matrix (angstroms):
                    1          2          3          4          5
     1  O    0.000000
     2  P    1.585822   0.000000
     3  Ca   3.461690   3.139947   0.000000
     4  O    5.427986   5.287395   2.346289   0.000000
     5  O    6.163055   5.929158   2.799674   1.489268   0.000000
     6  O    5.441746   5.297629   2.346104   2.397401   1.489297
     7  Ca   5.533093   5.936493   3.174621   2.307099   2.390611
     8  O    3.387609   4.115054   2.393554   3.137919   3.735879
     9  Ca   2.231952   3.639239   3.753688   5.066368   5.798538
                    6          7          8          9
     6  O    0.000000
     7  Ca   2.306944   0.000000
     8  O    3.139106   2.250200   0.000000
     9  Ca   5.078620   4.343961   2.145827   0.000000
 Stoichiometry    Ca3O5P(1+)
 Framework group  C1[X(Ca3O5P)]
 Deg. of freedom    21
 Full point group                 C1
 Largest Abelian subgroup         C1      NOp   1
 Largest concise Abelian subgroup C1      NOp   1
                         Standard orientation:                         
 ---------------------------------------------------------------------
 Center     Atomic     Atomic              Coordinates (Angstroms)
 Number     Number      Type              X           Y           Z
 ---------------------------------------------------------------------
    1          8             0       -3.091580   -0.107301    0.004841
    2         15             0       -2.903469   -1.681921    0.000651
    3         20             0        0.197281   -1.187381   -0.006229
    4          8             0        2.162271   -0.759760    1.202501
    5          8             0        2.994731   -1.076870    0.009031
    6          8             0        2.175381   -0.764910   -1.194859
    7         20             0        2.283520    1.205480    0.000071
    8          8             0        0.033350    1.200549   -0.010519
    9         20             0       -2.012860    1.846659    0.001271
 ---------------------------------------------------------------------
 Rotational constants (GHZ):      1.1366674      0.4489258      0.3418356
 Standard basis: 6-31+G(d,p) (6D, 7F)
 There are   199 symmetry adapted basis functions of A   symmetry.
 Integral buffers will be    131072 words long.
 Raffenetti 2 integral format.
 Two-electron integral symmetry is turned on.
   199 basis functions,   456 primitive gaussians,   199 cartesian basis functions
    57 alpha electrons       57 beta electrons
       nuclear repulsion energy       950.4827504712 Hartrees.
 NAtoms=    9 NActive=    9 NUniq=    9 SFac= 7.50D-01 NAtFMM=   80 NAOKFM=F Big=F
 One-electron integrals computed using PRISM.
 NBasis=   199 RedAO= T  NBF=   199
 NBsUse=   199 1.00D-06 NBFU=   199
 Harris functional with IExCor=  402 diagonalized for initial guess.
 ExpMin= 7.10D-03 ExpMax= 3.53D+04 ExpMxC= 5.30D+03 IAcc=3 IRadAn=         5 AccDes= 0.00D+00
 HarFok:  IExCor= 402 AccDes= 0.00D+00 IRadAn=         5 IDoV=1
 ScaDFX=  1.000000  1.000000  1.000000  1.000000
 Initial guess orbital symmetries:
       Occupied  (A) (A) (A) (A) (A) (A) (A) (A) (A) (A) (A) (A)
                 (A) (A) (A) (A) (A) (A) (A) (A) (A) (A) (A) (A)
                 (A) (A) (A) (A) (A) (A) (A) (A) (A) (A) (A) (A)
                 (A) (A) (A) (A) (A) (A) (A) (A) (A) (A) (A) (A)
                 (A) (A) (A) (A) (A) (A) (A) (A) (A)
       Virtual   (A) (A) (A) (A) (A) (A) (A) (A) (A) (A) (A) (A)
                 (A) (A) (A) (A) (A) (A) (A) (A) (A) (A) (A) (A)
                 (A) (A) (A) (A) (A) (A) (A) (A) (A) (A) (A) (A)
                 (A) (A) (A) (A) (A) (A) (A) (A) (A) (A) (A) (A)
                 (A) (A) (A) (A) (A) (A) (A) (A) (A) (A) (A) (A)
                 (A) (A) (A) (A) (A) (A) (A) (A) (A) (A) (A) (A)
                 (A) (A) (A) (A) (A) (A) (A) (A) (A) (A) (A) (A)
                 (A) (A) (A) (A) (A) (A) (A) (A) (A) (A) (A) (A)
                 (A) (A) (A) (A) (A) (A) (A) (A) (A) (A) (A) (A)
                 (A) (A) (A) (A) (A) (A) (A) (A) (A) (A) (A) (A)
                 (A) (A) (A) (A) (A) (A) (A) (A) (A) (A) (A) (A)
                 (A) (A) (A) (A) (A) (A) (A) (A) (A) (A)
 The electronic state of the initial guess is 1-A.
 Requested convergence on RMS density matrix=1.00D-04 within 128 cycles.
 Requested convergence on MAX density matrix=1.00D-02.
 Requested convergence on             energy=1.00D-02.
 No special actions if energy rises.
 EnCoef did     5 forward-backward iterations
 EnCoef did     2 forward-backward iterations
 SCF Done:  E(RB+HF-LYP) =  -2750.01360258     A.U. after    8 cycles
             Convg  =    0.8752D-04             -V/T =  2.0029
             S**2   =   0.0000

 **********************************************************************

            Population analysis using the SCF density.

 **********************************************************************

 Orbital symmetries:
       Occupied  (A) (A) (A) (A) (A) (A) (A) (A) (A) (A) (A) (A)
                 (A) (A) (A) (A) (A) (A) (A) (A) (A) (A) (A) (A)
                 (A) (A) (A) (A) (A) (A) (A) (A) (A) (A) (A) (A)
                 (A) (A) (A) (A) (A) (A) (A) (A) (A) (A) (A) (A)
                 (A) (A) (A) (A) (A) (A) (A) (A) (A)
       Virtual   (A) (A) (A) (A) (A) (A) (A) (A) (A) (A) (A) (A)
                 (A) (A) (A) (A) (A) (A) (A) (A) (A) (A) (A) (A)
                 (A) (A) (A) (A) (A) (A) (A) (A) (A) (A) (A) (A)
                 (A) (A) (A) (A) (A) (A) (A) (A) (A) (A) (A) (A)
                 (A) (A) (A) (A) (A) (A) (A) (A) (A) (A) (A) (A)
                 (A) (A) (A) (A) (A) (A) (A) (A) (A) (A) (A) (A)
                 (A) (A) (A) (A) (A) (A) (A) (A) (A) (A) (A) (A)
                 (A) (A) (A) (A) (A) (A) (A) (A) (A) (A) (A) (A)
                 (A) (A) (A) (A) (A) (A) (A) (A) (A) (A) (A) (A)
                 (A) (A) (A) (A) (A) (A) (A) (A) (A) (A) (A) (A)
                 (A) (A) (A) (A) (A) (A) (A) (A) (A) (A) (A) (A)
                 (A) (A) (A) (A) (A) (A) (A) (A) (A) (A)
 The electronic state is 1-A.
 Alpha  occ. eigenvalues -- -145.53899-145.49169-145.46545 -77.24097 -19.32961
 Alpha  occ. eigenvalues --  -19.28300 -19.23734 -19.23723 -19.17923 -15.60775
 Alpha  occ. eigenvalues --  -15.55975 -15.53458 -12.74029 -12.73946 -12.73850
 Alpha  occ. eigenvalues --  -12.69177 -12.69170 -12.69099 -12.66680 -12.66640
 Alpha  occ. eigenvalues --  -12.66556  -6.70431  -4.87186  -4.86630  -4.85730
 Alpha  occ. eigenvalues --   -1.97973  -1.93193  -1.90785  -1.25792  -1.25565
 Alpha  occ. eigenvalues --   -1.24883  -1.23189  -1.20677  -1.20482  -1.18546
 Alpha  occ. eigenvalues --   -1.18527  -1.18195  -1.15515  -1.09753  -0.99763
 Alpha  occ. eigenvalues --   -0.92674  -0.84138  -0.66590  -0.54024  -0.51512
 Alpha  occ. eigenvalues --   -0.51078  -0.50192  -0.48894  -0.48102  -0.39902
 Alpha  occ. eigenvalues --   -0.39308  -0.38136  -0.36814  -0.36655  -0.35623
 Alpha  occ. eigenvalues --   -0.31437  -0.28875
 Alpha virt. eigenvalues --   -0.23554  -0.22086  -0.18145  -0.13766  -0.13758
 Alpha virt. eigenvalues --   -0.12878  -0.11691  -0.10279  -0.09650  -0.08894
 Alpha virt. eigenvalues --   -0.08412  -0.07966  -0.07338  -0.06190  -0.05887
 Alpha virt. eigenvalues --   -0.05582  -0.05136  -0.04675  -0.04318  -0.04168
 Alpha virt. eigenvalues --   -0.04139  -0.04058  -0.03756  -0.03328  -0.03278
 Alpha virt. eigenvalues --   -0.02727  -0.02360  -0.01476  -0.01265   0.00095
 Alpha virt. eigenvalues --    0.00563   0.02367   0.02769   0.03225   0.03360
 Alpha virt. eigenvalues --    0.03685   0.04145   0.04820   0.04882   0.05642
 Alpha virt. eigenvalues --    0.05993   0.06672   0.06986   0.07312   0.07842
 Alpha virt. eigenvalues --    0.08098   0.09207   0.10275   0.10643   0.12089
 Alpha virt. eigenvalues --    0.12247   0.13146   0.14678   0.15630   0.16084
 Alpha virt. eigenvalues --    0.16551   0.16953   0.17693   0.19309   0.19675
 Alpha virt. eigenvalues --    0.20082   0.23753   0.24454   0.25443   0.26835
 Alpha virt. eigenvalues --    0.27331   0.27546   0.28956   0.31195   0.32472
 Alpha virt. eigenvalues --    0.33842   0.34533   0.35131   0.35899   0.37126
 Alpha virt. eigenvalues --    0.41014   0.42117   0.43558   0.46254   0.47716
 Alpha virt. eigenvalues --    0.51482   0.51593   0.55657   0.57205   0.59139
 Alpha virt. eigenvalues --    0.65176   0.70784   0.74160   0.92682   0.97981
 Alpha virt. eigenvalues --    1.06793   1.09012   1.09089   1.10761   1.11363
 Alpha virt. eigenvalues --    1.11795   1.13134   1.14677   1.18179   1.18230
 Alpha virt. eigenvalues --    1.20814   1.22079   1.23927   1.25882   1.30114
 Alpha virt. eigenvalues --    1.35371   1.38948   1.43045   1.43309   1.49059
 Alpha virt. eigenvalues --    1.51567   1.59833   1.66419   1.67439   1.71341
 Alpha virt. eigenvalues --    1.73835   1.74558   1.77448   1.78097   1.81615
 Alpha virt. eigenvalues --    1.82519   1.85617   1.86299   1.87589   1.88882
 Alpha virt. eigenvalues --    1.90241   1.92680   1.96375   2.01032   2.03356
 Alpha virt. eigenvalues --    2.26116   2.26907   2.49664   2.53249   3.08161
 Alpha virt. eigenvalues --    3.09484   3.37701   3.86275   3.94579   4.00351
 Alpha virt. eigenvalues --    4.06941   4.36326
          Condensed to atoms (all electrons):
              1          2          3          4          5          6
     1  O    8.842085  -0.237733  -0.057106   0.001779  -0.000795   0.001772
     2  P   -0.237733  14.984568   0.213027  -0.004429   0.003356  -0.004336
     3  Ca  -0.057106   0.213027  18.439526   0.069804   0.023272   0.070234
     4  O    0.001779  -0.004429   0.069804   8.398916   0.030805   0.023762
     5  O   -0.000795   0.003356   0.023272   0.030805   7.974166   0.030762
     6  O    0.001772  -0.004336   0.070234   0.023762   0.030762   8.398259
     7  Ca   0.001399  -0.012991  -0.056698   0.085452   0.032375   0.085341
     8  O    0.005162  -0.016099   0.066932  -0.005552   0.002004  -0.005243
     9  Ca   0.069043   0.001031   0.001152   0.002422  -0.001790   0.002280
              7          8          9
     1  O    0.001399   0.005162   0.069043
     2  P   -0.012991  -0.016099   0.001031
     3  Ca  -0.056698   0.066932   0.001152
     4  O    0.085452  -0.005552   0.002422
     5  O    0.032375   0.002004  -0.001790
     6  O    0.085341  -0.005243   0.002280
     7  Ca  18.342513   0.107325  -0.016162
     8  O    0.107325   8.988104   0.182354
     9  Ca  -0.016162   0.182354  18.244049
 Mulliken atomic charges:
              1
     1  O   -0.625605
     2  P    0.073607
     3  Ca   1.229858
     4  O   -0.602958
     5  O   -0.094154
     6  O   -0.602831
     7  Ca   1.431448
     8  O   -1.324987
     9  Ca   1.515621
 Sum of Mulliken charges=   1.00000
 Atomic charges with hydrogens summed into heavy atoms:
              1
     1  O   -0.625605
     2  P    0.073607
     3  Ca   1.229858
     4  O   -0.602958
     5  O   -0.094154
     6  O   -0.602831
     7  Ca   1.431448
     8  O   -1.324987
     9  Ca   1.515621
 Sum of Mulliken charges=   1.00000
 Electronic spatial extent (au):  <R**2>=  2845.5376
 Charge=     1.0000 electrons
 Dipole moment (field-independent basis, Debye):
    X=    -3.9525    Y=    12.7922    Z=    -0.0065  Tot=    13.3889
 Quadrupole moment (field-independent basis, Debye-Ang):
   XX=   -65.2039   YY=   -42.8941   ZZ=   -82.6455
   XY=     0.6392   XZ=    -0.0006   YZ=     0.1511
 Traceless Quadrupole moment (field-independent basis, Debye-Ang):
   XX=    -1.6228   YY=    20.6871   ZZ=   -19.0643
   XY=     0.6392   XZ=    -0.0006   YZ=     0.1511
 Octapole moment (field-independent basis, Debye-Ang**2):
  XXX=    66.0231  YYY=    88.1588  ZZZ=    -0.1014  XYY=   -24.0729
  XXY=   156.0212  XXZ=    -0.0995  XZZ=   -20.3762  YZZ=    17.1811
  YYZ=     0.1200  XYZ=    -0.0393
 Hexadecapole moment (field-independent basis, Debye-Ang**3):
 XXXX= -2479.7651 YYYY=  -711.7314 ZZZZ=  -209.0217 XXXY=   -29.9290
 XXXZ=     0.9877 YYYX=  -138.0666 YYYZ=     0.4953 ZZZX=    -0.2283
 ZZZY=     0.3285 XXYY=  -375.6168 XXZZ=  -438.5304 YYZZ=  -169.2394
 XXYZ=     0.0399 YYXZ=    -0.0384 ZZXY=     5.1570
 N-N= 9.504827504712D+02 E-N=-8.401678616298D+03  KE= 2.742126652638D+03
 Merz-Kollman atomic radii used.
 Read replacement radii for each type of atom:
 Rad(20) =   1.188000000000D+00
 Atom Element Radius
    1     8    1.40
    2    15    1.80
    3    20    1.19
    4     8    1.40
    5     8    1.40
    6     8    1.40
    7    20    1.19
    8     8    1.40
    9    20    1.19

 **********************************************************************

            Electrostatic Properties Using The SCF Density

 **********************************************************************

       Atomic Center    1 is at  -3.091580 -0.107301  0.004841
       Atomic Center    2 is at  -2.903469 -1.681921  0.000651
       Atomic Center    3 is at   0.197281 -1.187381 -0.006229
       Atomic Center    4 is at   2.162271 -0.759760  1.202501
       Atomic Center    5 is at   2.994731 -1.076870  0.009031
       Atomic Center    6 is at   2.175381 -0.764910 -1.194859
       Atomic Center    7 is at   2.283520  1.205480  0.000071
       Atomic Center    8 is at   0.033350  1.200549 -0.010519
       Atomic Center    9 is at  -2.012860  1.846659  0.001271
     900 points will be used for fitting atomic charges
 Fitting point charges to eletrostatic potential
 Charges from ESP fit, RMS=   0.00674 RRMS=   0.04586:
 Charge=   1.00000 Dipole=    -3.8891    13.0576    -0.0055 Tot=    13.6244
              1
     1  O   -0.582436
     2  P   -0.032198
     3  Ca   1.407695
     4  O   -0.678009
     5  O   -0.123394
     6  O   -0.675884
     7  Ca   1.636770
     8  O   -1.621404
     9  Ca   1.668860
 -----------------------------------------------------------------

              Electrostatic Properties (Atomic Units)

 -----------------------------------------------------------------
    Center     Electric         -------- Electric Field --------
               Potential          X             Y             Z
 -----------------------------------------------------------------
    1 Atom    -22.184241
    2 Atom    -53.975304
    3 Atom    -80.077768
    4 Atom    -22.229339
    5 Atom    -22.152378
    6 Atom    -22.229047
    7 Atom    -80.048312
    8 Atom    -22.274806
    9 Atom    -80.000172
 -----------------------------------------------------------------
 1\1\GINC-N025\SP\RB3LYP\6-31+G(d,p)\Ca3O5P1(1+)\TIMN\12-Jun-2015\0\\# 
 b3lyp/6-31+G(d,p) int=ultrafine pop=(ReadRadii,MK)\\mol_17.23.35.pdbcc
 _plusQ.z58236.zip.xyz\\1,1\O,0,-3.09158,-0.1073,0.00484\P,0,-2.90347,-
 1.68192,0.00065\Ca,0,0.19728,-1.18738,-0.00623\O,0,2.16227,-0.75976,1.
 2025\O,0,2.99473,-1.07687,0.00903\O,0,2.17538,-0.76491,-1.19486\Ca,0,2
 .28352,1.20548,0.00007\O,0,0.03335,1.20055,-0.01052\Ca,0,-2.01286,1.84
 666,0.00127\\Version=EM64T-G03RevE.01\State=1-A\HF=-2750.0136026\RMSD=
 8.752e-05\Thermal=0.\Dipole=-1.5550201,5.0328283,-0.0025709\PG=C01 [X(
 Ca3O5P1)]\\@


 EVANS BOLDLY PUT 50 ATM. OF ETHYLENE IN A CELL WITH 25 ATM. OF OXYGEN.
 THE APPARATUS SUBSEQUENTLY BLEW UP, BUT LUCKILY NOT BEFORE HE
 OBTAINED THE SPECTRA SHOWN IN FIGURE 8.
 A.J.MERER AND R.S.MULLIKEN, CHEM.REV. 69, 645 (1969)
 Job cpu time:  0 days  0 hours  1 minutes 53.0 seconds.
 File lengths (MBytes):  RWF=     36 Int=      0 D2E=      0 Chk=     11 Scr=      1
 Normal termination of Gaussian 03 at Fri Jun 12 17:52:56 2015.
