 Entering Gaussian System, Link 0=/home/timn/tmp/g03.e01/g03
 Input=mol_17.23.22.pdbcccc_plusQ.z58223.zip.xyz.gjf
 Output=mol_17.23.22.pdbcccc_plusQ.z58223.zip.xyz.out
 Initial command:
 /home/timn/tmp/g03.e01/l1.exe /home/timn/tmp/g03.e01/Gau-12614.inp -scrdir=/home/timn/tmp/g03.e01/
 Default is to use a total of   2 processors:
                                2 via shared-memory
                                1 via Linda
 Entering Link 1 = /home/timn/tmp/g03.e01/l1.exe PID=     12615.
  
 Copyright (c) 1988,1990,1992,1993,1995,1998,2003,2004,2007, Gaussian, Inc.
                  All Rights Reserved.
  
 This is the Gaussian(R) 03 program.  It is based on the
 the Gaussian(R) 98 system (copyright 1998, Gaussian, Inc.),
 the Gaussian(R) 94 system (copyright 1995, Gaussian, Inc.),
 the Gaussian 92(TM) system (copyright 1992, Gaussian, Inc.),
 the Gaussian 90(TM) system (copyright 1990, Gaussian, Inc.),
 the Gaussian 88(TM) system (copyright 1988, Gaussian, Inc.),
 the Gaussian 86(TM) system (copyright 1986, Carnegie Mellon
 University), and the Gaussian 82(TM) system (copyright 1983,
 Carnegie Mellon University). Gaussian is a federally registered
 trademark of Gaussian, Inc.
  
 This software contains proprietary and confidential information,
 including trade secrets, belonging to Gaussian, Inc.
  
 This software is provided under written license and may be
 used, copied, transmitted, or stored only in accord with that
 written license.
  
 The following legend is applicable only to US Government
 contracts under FAR:
  
                    RESTRICTED RIGHTS LEGEND
  
 Use, reproduction and disclosure by the US Government is
 subject to restrictions as set forth in subparagraphs (a)
 and (c) of the Commercial Computer Software - Restricted
 Rights clause in FAR 52.227-19.
  
 Gaussian, Inc.
 340 Quinnipiac St., Bldg. 40, Wallingford CT 06492
  
  
 ---------------------------------------------------------------
 Warning -- This program may not be used in any manner that
 competes with the business of Gaussian, Inc. or will provide
 assistance to any competitor of Gaussian, Inc.  The licensee
 of this program is prohibited from giving any competitor of
 Gaussian, Inc. access to this program.  By using this program,
 the user acknowledges that Gaussian, Inc. is engaged in the
 business of creating and licensing software in the field of
 computational chemistry and represents and warrants to the
 licensee that it is not a competitor of Gaussian, Inc. and that
 it will not use this program in any manner prohibited above.
 ---------------------------------------------------------------
  

 Cite this work as:
 Gaussian 03, Revision E.01,
 M. J. Frisch, G. W. Trucks, H. B. Schlegel, G. E. Scuseria, 
 M. A. Robb, J. R. Cheeseman, J. A. Montgomery, Jr., T. Vreven, 
 K. N. Kudin, J. C. Burant, J. M. Millam, S. S. Iyengar, J. Tomasi, 
 V. Barone, B. Mennucci, M. Cossi, G. Scalmani, N. Rega, 
 G. A. Petersson, H. Nakatsuji, M. Hada, M. Ehara, K. Toyota, 
 R. Fukuda, J. Hasegawa, M. Ishida, T. Nakajima, Y. Honda, O. Kitao, 
 H. Nakai, M. Klene, X. Li, J. E. Knox, H. P. Hratchian, J. B. Cross, 
 V. Bakken, C. Adamo, J. Jaramillo, R. Gomperts, R. E. Stratmann, 
 O. Yazyev, A. J. Austin, R. Cammi, C. Pomelli, J. W. Ochterski, 
 P. Y. Ayala, K. Morokuma, G. A. Voth, P. Salvador, J. J. Dannenberg, 
 V. G. Zakrzewski, S. Dapprich, A. D. Daniels, M. C. Strain, 
 O. Farkas, D. K. Malick, A. D. Rabuck, K. Raghavachari, 
 J. B. Foresman, J. V. Ortiz, Q. Cui, A. G. Baboul, S. Clifford, 
 J. Cioslowski, B. B. Stefanov, G. Liu, A. Liashenko, P. Piskorz, 
 I. Komaromi, R. L. Martin, D. J. Fox, T. Keith, M. A. Al-Laham, 
 C. Y. Peng, A. Nanayakkara, M. Challacombe, P. M. W. Gill, 
 B. Johnson, W. Chen, M. W. Wong, C. Gonzalez, and J. A. Pople, 
 Gaussian, Inc., Wallingford CT, 2004.
 
 ******************************************
 Gaussian 03:  EM64T-G03RevE.01 11-Sep-2007
                12-Jun-2015 
 ******************************************
 %nproc=2
 Will use up to    2 processors via shared memory.
 Default route:  MP2=Direct MaxDisk=2000MB
 ----------------------------------------------------
 # b3lyp/6-31+G(d,p) int=ultrafine pop=(ReadRadii,MK)
 ----------------------------------------------------

 Warning!  SCF SP cutoffs with diffuse functions may be unreliable.
 Consider SCF=Tight

 1/38=1/1;
 2/17=6,18=5,40=1/2;
 3/5=1,6=6,7=111,11=2,16=1,25=1,30=1,74=-5,75=5/1,2,3;
 4//1;
 5/5=2,32=1,38=5/2;
 6/7=2,8=2,9=2,10=2,15=8,20=101,28=1/1,2;
 99/5=1,9=1/99;
 -----------------------------------------
 mol_17.23.22.pdbcccc_plusQ.z58223.zip.xyz
 -----------------------------------------
 Symbolic Z-matrix:
 Charge =  1 Multiplicity = 1
 O                    -1.30864  -2.49838   0. 
 P                    -1.30547  -0.95923   0. 
 Ca                    1.1479   -2.64627   0. 
 O                     2.51563  -1.02356   0. 
 Ca                    2.20109   1.11965   0. 
 O                     0.30998   2.71932   0. 
 O                     0.        1.19562   0. 
 Ca                   -1.9308    2.1448    0. 
 O                    -2.61467  -0.13987   0. 
 
                          Input orientation:                          
 ---------------------------------------------------------------------
 Center     Atomic     Atomic              Coordinates (Angstroms)
 Number     Number      Type              X           Y           Z
 ---------------------------------------------------------------------
    1          8             0       -1.308640   -2.498380    0.000000
    2         15             0       -1.305470   -0.959230    0.000000
    3         20             0        1.147900   -2.646270    0.000000
    4          8             0        2.515630   -1.023560    0.000000
    5         20             0        2.201090    1.119650    0.000000
    6          8             0        0.309980    2.719320    0.000000
    7          8             0        0.000000    1.195620    0.000000
    8         20             0       -1.930800    2.144800    0.000000
    9          8             0       -2.614670   -0.139870    0.000000
 ---------------------------------------------------------------------
                    Distance matrix (angstroms):
                    1          2          3          4          5
     1  O    0.000000
     2  P    1.539153   0.000000
     3  Ca   2.460988   2.977437   0.000000
     4  O    4.098797   3.821641   2.122233   0.000000
     5  Ca   5.040669   4.076482   3.910417   2.166168   0.000000
     6  O    5.462996   4.017637   5.430623   4.344427   2.476942
     7  O    3.918951   2.519450   4.009712   3.354572   2.202401
     8  Ca   4.684678   3.166392   5.694975   5.459784   4.257164
     9  O    2.695975   1.544460   4.520948   5.205851   4.977744
                    6          7          8          9
     6  O    0.000000
     7  O    1.554911   0.000000
     8  Ca   2.313259   2.151495   0.000000
     9  O    4.090054   2.935989   2.384826   0.000000
 Stoichiometry    Ca3O5P(1+)
 Framework group  CS[SG(Ca3O5P)]
 Deg. of freedom    15
 Full point group                 CS
 Largest Abelian subgroup         CS      NOp   2
 Largest concise Abelian subgroup C1      NOp   1
                         Standard orientation:                         
 ---------------------------------------------------------------------
 Center     Atomic     Atomic              Coordinates (Angstroms)
 Number     Number      Type              X           Y           Z
 ---------------------------------------------------------------------
    1          8             0       -1.308644   -2.498380    0.000000
    2         15             0       -1.305472   -0.959230    0.000000
    3         20             0        1.147896   -2.646273    0.000000
    4          8             0        2.515628   -1.023564    0.000000
    5         20             0        2.201090    1.119646    0.000000
    6          8             0        0.309982    2.719318    0.000000
    7          8             0        0.000000    1.195618    0.000000
    8         20             0       -1.930799    2.144800    0.000000
    9          8             0       -2.614671   -0.139869    0.000000
 ---------------------------------------------------------------------
 Rotational constants (GHZ):      0.8256743      0.5770647      0.3396694
 Standard basis: 6-31+G(d,p) (6D, 7F)
 There are   147 symmetry adapted basis functions of A'  symmetry.
 There are    52 symmetry adapted basis functions of A"  symmetry.
 Integral buffers will be    131072 words long.
 Raffenetti 2 integral format.
 Two-electron integral symmetry is turned on.
   199 basis functions,   456 primitive gaussians,   199 cartesian basis functions
    57 alpha electrons       57 beta electrons
       nuclear repulsion energy       945.3702780771 Hartrees.
 NAtoms=    9 NActive=    9 NUniq=    9 SFac= 7.50D-01 NAtFMM=   80 NAOKFM=F Big=F
 One-electron integrals computed using PRISM.
 NBasis=   199 RedAO= T  NBF=   147    52
 NBsUse=   199 1.00D-06 NBFU=   147    52
 Harris functional with IExCor=  402 diagonalized for initial guess.
 ExpMin= 7.10D-03 ExpMax= 3.53D+04 ExpMxC= 5.30D+03 IAcc=3 IRadAn=         5 AccDes= 0.00D+00
 HarFok:  IExCor= 402 AccDes= 0.00D+00 IRadAn=         5 IDoV=1
 ScaDFX=  1.000000  1.000000  1.000000  1.000000
 Initial guess orbital symmetries:
       Occupied  (A') (A') (A') (A') (A') (A') (A') (A') (A') (A')
                 (A') (A') (A') (A') (A") (A') (A') (A") (A') (A')
                 (A") (A') (A') (A') (A") (A') (A') (A') (A') (A')
                 (A') (A') (A') (A') (A") (A") (A") (A') (A') (A')
                 (A') (A') (A') (A') (A') (A') (A") (A') (A") (A')
                 (A') (A') (A") (A") (A') (A") (A')
       Virtual   (A') (A") (A') (A') (A') (A") (A') (A") (A') (A")
                 (A') (A') (A') (A') (A') (A') (A') (A") (A') (A")
                 (A") (A') (A') (A') (A') (A') (A') (A') (A") (A')
                 (A') (A") (A") (A') (A') (A") (A') (A') (A') (A")
                 (A") (A') (A") (A') (A") (A') (A') (A') (A') (A")
                 (A') (A") (A') (A') (A') (A") (A') (A') (A') (A")
                 (A') (A") (A') (A') (A") (A') (A') (A") (A') (A')
                 (A') (A') (A') (A') (A") (A') (A') (A') (A') (A')
                 (A") (A') (A") (A') (A') (A') (A') (A') (A') (A')
                 (A") (A") (A") (A') (A") (A') (A") (A') (A') (A')
                 (A') (A') (A') (A') (A') (A') (A') (A") (A') (A')
                 (A') (A') (A') (A") (A") (A") (A") (A') (A") (A')
                 (A") (A') (A') (A') (A') (A") (A') (A') (A") (A')
                 (A') (A") (A') (A') (A') (A') (A') (A') (A') (A')
                 (A') (A')
 The electronic state of the initial guess is 1-A'.
 Requested convergence on RMS density matrix=1.00D-04 within 128 cycles.
 Requested convergence on MAX density matrix=1.00D-02.
 Requested convergence on             energy=1.00D-02.
 No special actions if energy rises.
 EnCoef did     2 forward-backward iterations
 EnCoef did     2 forward-backward iterations
 EnCoef did     4 forward-backward iterations
 SCF Done:  E(RB+HF-LYP) =  -2750.13371211     A.U. after   10 cycles
             Convg  =    0.8225D-04             -V/T =  2.0029
             S**2   =   0.0000

 **********************************************************************

            Population analysis using the SCF density.

 **********************************************************************

 Orbital symmetries:
       Occupied  (A') (A') (A') (A') (A') (A') (A') (A') (A') (A')
                 (A') (A') (A") (A') (A') (A") (A') (A') (A") (A')
                 (A') (A') (A") (A') (A') (A') (A') (A') (A') (A")
                 (A') (A") (A') (A') (A') (A") (A') (A') (A') (A')
                 (A') (A') (A') (A') (A') (A") (A') (A') (A") (A')
                 (A") (A') (A') (A') (A") (A") (A')
       Virtual   (A') (A') (A") (A') (A") (A') (A") (A') (A') (A")
                 (A') (A') (A') (A') (A') (A') (A") (A') (A') (A")
                 (A") (A') (A') (A') (A') (A') (A") (A') (A') (A')
                 (A') (A') (A") (A') (A") (A') (A') (A") (A") (A')
                 (A") (A') (A") (A') (A') (A") (A') (A") (A') (A')
                 (A") (A') (A') (A') (A") (A') (A') (A') (A') (A")
                 (A") (A') (A') (A') (A") (A') (A") (A') (A') (A')
                 (A') (A') (A') (A") (A') (A') (A') (A') (A') (A')
                 (A") (A') (A") (A') (A') (A') (A') (A') (A') (A')
                 (A") (A") (A") (A') (A') (A") (A") (A') (A') (A')
                 (A') (A') (A') (A') (A') (A') (A') (A') (A') (A")
                 (A') (A') (A') (A") (A") (A") (A') (A') (A") (A')
                 (A') (A") (A") (A") (A') (A') (A") (A') (A') (A')
                 (A') (A") (A') (A') (A') (A') (A') (A') (A') (A')
                 (A') (A')
 The electronic state is 1-A'.
 Alpha  occ. eigenvalues -- -145.53140-145.49903-145.45558 -77.27331 -19.26336
 Alpha  occ. eigenvalues --  -19.25867 -19.23452 -19.23145 -19.11872 -15.59925
 Alpha  occ. eigenvalues --  -15.56787 -15.52450 -12.73197 -12.73087 -12.73032
 Alpha  occ. eigenvalues --  -12.70037 -12.70005 -12.69828 -12.65722 -12.65629
 Alpha  occ. eigenvalues --  -12.65500  -6.72927  -4.89319  -4.89141  -4.88773
 Alpha  occ. eigenvalues --   -1.96952  -1.93913  -1.89753  -1.24794  -1.24753
 Alpha  occ. eigenvalues --   -1.24043  -1.21735  -1.21666  -1.20589  -1.17778
 Alpha  occ. eigenvalues --   -1.17742  -1.16675  -1.11521  -1.07193  -1.06459
 Alpha  occ. eigenvalues --   -0.87062  -0.85907  -0.64320  -0.53094  -0.52567
 Alpha  occ. eigenvalues --   -0.50259  -0.46732  -0.46482  -0.44268  -0.43758
 Alpha  occ. eigenvalues --   -0.43561  -0.35512  -0.34809  -0.32112  -0.31278
 Alpha  occ. eigenvalues --   -0.29998  -0.29715
 Alpha virt. eigenvalues --   -0.20005  -0.17720  -0.17304  -0.15101  -0.11899
 Alpha virt. eigenvalues --   -0.10330  -0.10289  -0.10013  -0.09134  -0.08575
 Alpha virt. eigenvalues --   -0.08217  -0.06914  -0.06469  -0.05870  -0.05354
 Alpha virt. eigenvalues --   -0.04975  -0.04960  -0.04454  -0.04162  -0.04142
 Alpha virt. eigenvalues --   -0.03977  -0.03748  -0.03545  -0.03179  -0.02993
 Alpha virt. eigenvalues --   -0.02495  -0.02334  -0.02309  -0.00048   0.00366
 Alpha virt. eigenvalues --    0.01691   0.02860   0.03502   0.03587   0.04241
 Alpha virt. eigenvalues --    0.04610   0.05238   0.05627   0.06068   0.06665
 Alpha virt. eigenvalues --    0.07080   0.07536   0.08189   0.08230   0.08872
 Alpha virt. eigenvalues --    0.09619   0.10591   0.10655   0.10778   0.11698
 Alpha virt. eigenvalues --    0.12419   0.12690   0.13713   0.14753   0.14939
 Alpha virt. eigenvalues --    0.16046   0.18228   0.18489   0.18872   0.18952
 Alpha virt. eigenvalues --    0.20749   0.20928   0.23259   0.26019   0.27135
 Alpha virt. eigenvalues --    0.27889   0.29324   0.29572   0.31988   0.32920
 Alpha virt. eigenvalues --    0.33230   0.34371   0.36014   0.36328   0.37296
 Alpha virt. eigenvalues --    0.39322   0.40579   0.45303   0.48997   0.51395
 Alpha virt. eigenvalues --    0.57347   0.58052   0.58465   0.59930   0.67702
 Alpha virt. eigenvalues --    0.71964   0.75220   0.81131   0.92136   0.95965
 Alpha virt. eigenvalues --    1.05152   1.09351   1.10374   1.10449   1.14306
 Alpha virt. eigenvalues --    1.14517   1.16430   1.16454   1.17922   1.19681
 Alpha virt. eigenvalues --    1.21340   1.22254   1.24706   1.29942   1.30808
 Alpha virt. eigenvalues --    1.35705   1.43713   1.44641   1.48519   1.50487
 Alpha virt. eigenvalues --    1.54146   1.60141   1.62011   1.67964   1.69966
 Alpha virt. eigenvalues --    1.73065   1.75350   1.78187   1.80282   1.81331
 Alpha virt. eigenvalues --    1.83787   1.84374   1.85481   1.86242   1.87462
 Alpha virt. eigenvalues --    1.89596   1.92772   1.96866   2.00676   2.04061
 Alpha virt. eigenvalues --    2.10063   2.20148   2.22656   2.60646   2.70719
 Alpha virt. eigenvalues --    3.08073   3.40613   3.85283   3.90002   3.99139
 Alpha virt. eigenvalues --    4.05679   4.18452
          Condensed to atoms (all electrons):
              1          2          3          4          5          6
     1  O    9.095223  -0.620631   0.072316   0.004793  -0.012385  -0.006386
     2  P   -0.620631  15.248282  -0.068299  -0.033498   0.041575   0.012416
     3  Ca   0.072316  -0.068299  18.303060   0.254712  -0.019122  -0.004749
     4  O    0.004793  -0.033498   0.254712   8.809368   0.184944  -0.001339
     5  Ca  -0.012385   0.041575  -0.019122   0.184944  18.270407   0.084261
     6  O   -0.006386   0.012416  -0.004749  -0.001339   0.084261   8.730868
     7  O   -0.031511  -0.025651   0.012854   0.006186   0.046012  -0.160537
     8  Ca   0.018103  -0.036453   0.006283   0.001835  -0.017824   0.110793
     9  O    0.059899  -0.094464   0.025564   0.003487  -0.003133  -0.012937
              7          8          9
     1  O   -0.031511   0.018103   0.059899
     2  P   -0.025651  -0.036453  -0.094464
     3  Ca   0.012854   0.006283   0.025564
     4  O    0.006186   0.001835   0.003487
     5  Ca   0.046012  -0.017824  -0.003133
     6  O   -0.160537   0.110793  -0.012937
     7  O    8.714887   0.097694  -0.020322
     8  Ca   0.097694  18.225534   0.059417
     9  O   -0.020322   0.059417   8.734567
 Mulliken atomic charges:
              1
     1  O   -0.579420
     2  P    0.576725
     3  Ca   1.417381
     4  O   -1.230488
     5  Ca   1.425264
     6  O   -0.752390
     7  O   -0.639612
     8  Ca   1.534618
     9  O   -0.752078
 Sum of Mulliken charges=   1.00000
 Atomic charges with hydrogens summed into heavy atoms:
              1
     1  O   -0.579420
     2  P    0.576725
     3  Ca   1.417381
     4  O   -1.230488
     5  Ca   1.425264
     6  O   -0.752390
     7  O   -0.639612
     8  Ca   1.534618
     9  O   -0.752078
 Sum of Mulliken charges=   1.00000
 Electronic spatial extent (au):  <R**2>=  2775.2040
 Charge=     1.0000 electrons
 Dipole moment (field-independent basis, Debye):
    X=    -0.8039    Y=     3.5348    Z=     0.0000  Tot=     3.6251
 Quadrupole moment (field-independent basis, Debye-Ang):
   XX=   -60.1986   YY=   -29.1905   ZZ=   -73.8043
   XY=   -27.7336   XZ=     0.0000   YZ=     0.0000
 Traceless Quadrupole moment (field-independent basis, Debye-Ang):
   XX=    -5.8008   YY=    25.2073   ZZ=   -19.4065
   XY=   -27.7336   XZ=     0.0000   YZ=     0.0000
 Octapole moment (field-independent basis, Debye-Ang**2):
  XXX=   -19.1618  YYY=   -71.9663  ZZZ=     0.0000  XYY=     7.2981
  XXY=   141.5442  XXZ=     0.0000  XZZ=    -1.6131  YZZ=     4.1774
  YYZ=     0.0000  XYZ=     0.0000
 Hexadecapole moment (field-independent basis, Debye-Ang**3):
 XXXX= -1508.0980 YYYY= -1247.1763 ZZZZ=   -84.4262 XXXY=   117.2842
 XXXZ=     0.0000 YYYX=  -312.0412 YYYZ=     0.0000 ZZZX=     0.0000
 ZZZY=     0.0000 XXYY=  -277.7829 XXZZ=  -243.4456 YYZZ=  -260.5494
 XXYZ=     0.0000 YYXZ=     0.0000 ZZXY=    22.2775
 N-N= 9.453702780771D+02 E-N=-8.392627011503D+03  KE= 2.742171764799D+03
 Symmetry A'   KE= 2.475800685731D+03
 Symmetry A"   KE= 2.663710790672D+02
 Merz-Kollman atomic radii used.
 Read replacement radii for each type of atom:
 Rad(20) =   1.188000000000D+00
 Atom Element Radius
    1     8    1.40
    2    15    1.80
    3    20    1.19
    4     8    1.40
    5    20    1.19
    6     8    1.40
    7     8    1.40
    8    20    1.19
    9     8    1.40

 **********************************************************************

            Electrostatic Properties Using The SCF Density

 **********************************************************************

       Atomic Center    1 is at  -1.308644 -2.498380  0.000000
       Atomic Center    2 is at  -1.305472 -0.959230  0.000000
       Atomic Center    3 is at   1.147896 -2.646273  0.000000
       Atomic Center    4 is at   2.515628 -1.023564  0.000000
       Atomic Center    5 is at   2.201090  1.119646  0.000000
       Atomic Center    6 is at   0.309982  2.719318  0.000000
       Atomic Center    7 is at   0.000000  1.195618  0.000000
       Atomic Center    8 is at  -1.930799  2.144800  0.000000
       Atomic Center    9 is at  -2.614671 -0.139869  0.000000
     805 points will be used for fitting atomic charges
 Fitting point charges to eletrostatic potential
 Charges from ESP fit, RMS=   0.00628 RRMS=   0.04173:
 Charge=   1.00000 Dipole=    -0.6268     3.6840     0.0000 Tot=     3.7369
              1
     1  O   -0.614176
     2  P    0.477827
     3  Ca   1.633686
     4  O   -1.607287
     5  Ca   1.759472
     6  O   -0.812706
     7  O   -0.959099
     8  Ca   1.712551
     9  O   -0.590268
 -----------------------------------------------------------------

              Electrostatic Properties (Atomic Units)

 -----------------------------------------------------------------
    Center     Electric         -------- Electric Field --------
               Potential          X             Y             Z
 -----------------------------------------------------------------
    1 Atom    -22.202104
    2 Atom    -53.944041
    3 Atom    -80.042821
    4 Atom    -22.355645
    5 Atom    -80.085814
    6 Atom    -22.241796
    7 Atom    -22.240348
    8 Atom    -80.008762
    9 Atom    -22.207338
 -----------------------------------------------------------------
 1\1\GINC-N033\SP\RB3LYP\6-31+G(d,p)\Ca3O5P1(1+)\TIMN\12-Jun-2015\0\\# 
 b3lyp/6-31+G(d,p) int=ultrafine pop=(ReadRadii,MK)\\mol_17.23.22.pdbcc
 cc_plusQ.z58223.zip.xyz\\1,1\O,0,-1.30864,-2.49838,0.\P,0,-1.30547,-0.
 95923,0.\Ca,0,1.1479,-2.64627,0.\O,0,2.51563,-1.02356,0.\Ca,0,2.20109,
 1.11965,0.\O,0,0.30998,2.71932,0.\O,0,0.,1.19562,0.\Ca,0,-1.9308,2.144
 8,0.\O,0,-2.61467,-0.13987,0.\\Version=EM64T-G03RevE.01\State=1-A'\HF=
 -2750.1337121\RMSD=8.225e-05\Thermal=0.\Dipole=-0.3162672,1.390699,0.\
 PG=CS [SG(Ca3O5P1)]\\@


 I DO NOT KNOW WHAT I MAY APPEAR TO THE WORLD; BUT TO MYSELF
 I SEEM TO HAVE BEEN ONLY LIKE A BOY PLAYING ON THE SEASHORE,
 AND DIVERTING MYSELF IN NOW AND THEN FINDING A SMOOTHER PEBBLE
 OR A PRETTIER SHELL THAN ORDINARY, WHILST THE GREAT OCEAN OF
 TRUTH LAY ALL UNDISCOVERED BEFORE ME.
                                          -- NEWTON (1642-1726)
 Job cpu time:  0 days  0 hours  1 minutes 50.6 seconds.
 File lengths (MBytes):  RWF=     36 Int=      0 D2E=      0 Chk=     11 Scr=      1
 Normal termination of Gaussian 03 at Fri Jun 12 17:52:28 2015.
