 Entering Gaussian System, Link 0=/home/timn/tmp/g03.e01/g03
 Input=mol_17.28.23.pdbccc_plusQ.z58546.zip.xyz.gjf
 Output=mol_17.28.23.pdbccc_plusQ.z58546.zip.xyz.out
 Initial command:
 /home/timn/tmp/g03.e01/l1.exe /home/timn/tmp/g03.e01/Gau-15145.inp -scrdir=/home/timn/tmp/g03.e01/
 Default is to use a total of   2 processors:
                                2 via shared-memory
                                1 via Linda
 Entering Link 1 = /home/timn/tmp/g03.e01/l1.exe PID=     15146.
  
 Copyright (c) 1988,1990,1992,1993,1995,1998,2003,2004,2007, Gaussian, Inc.
                  All Rights Reserved.
  
 This is the Gaussian(R) 03 program.  It is based on the
 the Gaussian(R) 98 system (copyright 1998, Gaussian, Inc.),
 the Gaussian(R) 94 system (copyright 1995, Gaussian, Inc.),
 the Gaussian 92(TM) system (copyright 1992, Gaussian, Inc.),
 the Gaussian 90(TM) system (copyright 1990, Gaussian, Inc.),
 the Gaussian 88(TM) system (copyright 1988, Gaussian, Inc.),
 the Gaussian 86(TM) system (copyright 1986, Carnegie Mellon
 University), and the Gaussian 82(TM) system (copyright 1983,
 Carnegie Mellon University). Gaussian is a federally registered
 trademark of Gaussian, Inc.
  
 This software contains proprietary and confidential information,
 including trade secrets, belonging to Gaussian, Inc.
  
 This software is provided under written license and may be
 used, copied, transmitted, or stored only in accord with that
 written license.
  
 The following legend is applicable only to US Government
 contracts under FAR:
  
                    RESTRICTED RIGHTS LEGEND
  
 Use, reproduction and disclosure by the US Government is
 subject to restrictions as set forth in subparagraphs (a)
 and (c) of the Commercial Computer Software - Restricted
 Rights clause in FAR 52.227-19.
  
 Gaussian, Inc.
 340 Quinnipiac St., Bldg. 40, Wallingford CT 06492
  
  
 ---------------------------------------------------------------
 Warning -- This program may not be used in any manner that
 competes with the business of Gaussian, Inc. or will provide
 assistance to any competitor of Gaussian, Inc.  The licensee
 of this program is prohibited from giving any competitor of
 Gaussian, Inc. access to this program.  By using this program,
 the user acknowledges that Gaussian, Inc. is engaged in the
 business of creating and licensing software in the field of
 computational chemistry and represents and warrants to the
 licensee that it is not a competitor of Gaussian, Inc. and that
 it will not use this program in any manner prohibited above.
 ---------------------------------------------------------------
  

 Cite this work as:
 Gaussian 03, Revision E.01,
 M. J. Frisch, G. W. Trucks, H. B. Schlegel, G. E. Scuseria, 
 M. A. Robb, J. R. Cheeseman, J. A. Montgomery, Jr., T. Vreven, 
 K. N. Kudin, J. C. Burant, J. M. Millam, S. S. Iyengar, J. Tomasi, 
 V. Barone, B. Mennucci, M. Cossi, G. Scalmani, N. Rega, 
 G. A. Petersson, H. Nakatsuji, M. Hada, M. Ehara, K. Toyota, 
 R. Fukuda, J. Hasegawa, M. Ishida, T. Nakajima, Y. Honda, O. Kitao, 
 H. Nakai, M. Klene, X. Li, J. E. Knox, H. P. Hratchian, J. B. Cross, 
 V. Bakken, C. Adamo, J. Jaramillo, R. Gomperts, R. E. Stratmann, 
 O. Yazyev, A. J. Austin, R. Cammi, C. Pomelli, J. W. Ochterski, 
 P. Y. Ayala, K. Morokuma, G. A. Voth, P. Salvador, J. J. Dannenberg, 
 V. G. Zakrzewski, S. Dapprich, A. D. Daniels, M. C. Strain, 
 O. Farkas, D. K. Malick, A. D. Rabuck, K. Raghavachari, 
 J. B. Foresman, J. V. Ortiz, Q. Cui, A. G. Baboul, S. Clifford, 
 J. Cioslowski, B. B. Stefanov, G. Liu, A. Liashenko, P. Piskorz, 
 I. Komaromi, R. L. Martin, D. J. Fox, T. Keith, M. A. Al-Laham, 
 C. Y. Peng, A. Nanayakkara, M. Challacombe, P. M. W. Gill, 
 B. Johnson, W. Chen, M. W. Wong, C. Gonzalez, and J. A. Pople, 
 Gaussian, Inc., Wallingford CT, 2004.
 
 ******************************************
 Gaussian 03:  EM64T-G03RevE.01 11-Sep-2007
                12-Jun-2015 
 ******************************************
 %nproc=2
 Will use up to    2 processors via shared memory.
 Default route:  MP2=Direct MaxDisk=2000MB
 ----------------------------------------------------
 # b3lyp/6-31+G(d,p) int=ultrafine pop=(ReadRadii,MK)
 ----------------------------------------------------

 Warning!  SCF SP cutoffs with diffuse functions may be unreliable.
 Consider SCF=Tight

 1/38=1/1;
 2/17=6,18=5,40=1/2;
 3/5=1,6=6,7=111,11=2,16=1,25=1,30=1,74=-5,75=5/1,2,3;
 4//1;
 5/5=2,32=1,38=5/2;
 6/7=2,8=2,9=2,10=2,15=8,20=101,28=1/1,2;
 99/5=1,9=1/99;
 ----------------------------------------
 mol_17.28.23.pdbccc_plusQ.z58546.zip.xyz
 ----------------------------------------
 Symbolic Z-matrix:
 Charge =  1 Multiplicity = 1
 O                    -1.95353  -1.09819   0.82891 
 O                     0.07302  -1.56429  -0.73429 
 Ca                    2.31865  -1.23225  -0.17689 
 P                    -0.57469  -0.60089   0.28022 
 Ca                   -3.18359   0.27248  -0.36914 
 O                     0.52193  -0.16929   1.30317 
 O                     2.81208   0.81903  -0.55376 
 Ca                    1.11725   1.88218   0.17607 
 O                    -1.00673   0.83337  -0.44454 
 
                          Input orientation:                          
 ---------------------------------------------------------------------
 Center     Atomic     Atomic              Coordinates (Angstroms)
 Number     Number      Type              X           Y           Z
 ---------------------------------------------------------------------
    1          8             0       -1.953530   -1.098190    0.828910
    2          8             0        0.073020   -1.564290   -0.734290
    3         20             0        2.318650   -1.232250   -0.176890
    4         15             0       -0.574690   -0.600890    0.280220
    5         20             0       -3.183590    0.272480   -0.369140
    6          8             0        0.521930   -0.169290    1.303170
    7          8             0        2.812080    0.819030   -0.553760
    8         20             0        1.117250    1.882180    0.176070
    9          8             0       -1.006730    0.833370   -0.444540
 ---------------------------------------------------------------------
                    Distance matrix (angstroms):
                    1          2          3          4          5
     1  O    0.000000
     2  O    2.601490   0.000000
     3  Ca   4.391028   2.337477   0.000000
     4  P    1.565110   1.541719   2.996495   0.000000
     5  Ca   2.197068   3.756670   5.707523   2.826801   0.000000
     6  O    2.686202   2.509739   2.559036   1.560539   4.089335
     7  O    5.319638   3.635279   2.143188   3.765887   6.023360
     8  Ca   4.328798   3.714475   3.356727   3.006517   4.624458
     9  O    2.499806   2.645485   3.923847   1.664042   2.249223
                    6          7          8          9
     6  O    0.000000
     7  O    3.109623   0.000000
     8  Ca   2.415220   2.129645   0.000000
     9  O    2.529154   3.820398   2.448765   0.000000
 Stoichiometry    Ca3O5P(1+)
 Framework group  C1[X(Ca3O5P)]
 Deg. of freedom    21
 Full point group                 C1
 Largest Abelian subgroup         C1      NOp   1
 Largest concise Abelian subgroup C1      NOp   1
                         Standard orientation:                         
 ---------------------------------------------------------------------
 Center     Atomic     Atomic              Coordinates (Angstroms)
 Number     Number      Type              X           Y           Z
 ---------------------------------------------------------------------
    1          8             0       -1.953532   -1.098186    0.828910
    2          8             0        0.073017   -1.564289   -0.734290
    3         20             0        2.318648   -1.232253   -0.176890
    4         15             0       -0.574691   -0.600888    0.280220
    5         20             0       -3.183590    0.272486   -0.369140
    6          8             0        0.521930   -0.169290    1.303170
    7          8             0        2.812081    0.819026   -0.553760
    8         20             0        1.117253    1.882179    0.176070
    9          8             0       -1.006729    0.833373   -0.444540
 ---------------------------------------------------------------------
 Rotational constants (GHZ):      1.3947752      0.5300945      0.4263746
 Standard basis: 6-31+G(d,p) (6D, 7F)
 There are   199 symmetry adapted basis functions of A   symmetry.
 Integral buffers will be    131072 words long.
 Raffenetti 2 integral format.
 Two-electron integral symmetry is turned on.
   199 basis functions,   456 primitive gaussians,   199 cartesian basis functions
    57 alpha electrons       57 beta electrons
       nuclear repulsion energy      1034.5329318445 Hartrees.
 NAtoms=    9 NActive=    9 NUniq=    9 SFac= 7.50D-01 NAtFMM=   80 NAOKFM=F Big=F
 One-electron integrals computed using PRISM.
 NBasis=   199 RedAO= T  NBF=   199
 NBsUse=   199 1.00D-06 NBFU=   199
 Harris functional with IExCor=  402 diagonalized for initial guess.
 ExpMin= 7.10D-03 ExpMax= 3.53D+04 ExpMxC= 5.30D+03 IAcc=3 IRadAn=         5 AccDes= 0.00D+00
 HarFok:  IExCor= 402 AccDes= 0.00D+00 IRadAn=         5 IDoV=1
 ScaDFX=  1.000000  1.000000  1.000000  1.000000
 Initial guess orbital symmetries:
       Occupied  (A) (A) (A) (A) (A) (A) (A) (A) (A) (A) (A) (A)
                 (A) (A) (A) (A) (A) (A) (A) (A) (A) (A) (A) (A)
                 (A) (A) (A) (A) (A) (A) (A) (A) (A) (A) (A) (A)
                 (A) (A) (A) (A) (A) (A) (A) (A) (A) (A) (A) (A)
                 (A) (A) (A) (A) (A) (A) (A) (A) (A)
       Virtual   (A) (A) (A) (A) (A) (A) (A) (A) (A) (A) (A) (A)
                 (A) (A) (A) (A) (A) (A) (A) (A) (A) (A) (A) (A)
                 (A) (A) (A) (A) (A) (A) (A) (A) (A) (A) (A) (A)
                 (A) (A) (A) (A) (A) (A) (A) (A) (A) (A) (A) (A)
                 (A) (A) (A) (A) (A) (A) (A) (A) (A) (A) (A) (A)
                 (A) (A) (A) (A) (A) (A) (A) (A) (A) (A) (A) (A)
                 (A) (A) (A) (A) (A) (A) (A) (A) (A) (A) (A) (A)
                 (A) (A) (A) (A) (A) (A) (A) (A) (A) (A) (A) (A)
                 (A) (A) (A) (A) (A) (A) (A) (A) (A) (A) (A) (A)
                 (A) (A) (A) (A) (A) (A) (A) (A) (A) (A) (A) (A)
                 (A) (A) (A) (A) (A) (A) (A) (A) (A) (A) (A) (A)
                 (A) (A) (A) (A) (A) (A) (A) (A) (A) (A)
 The electronic state of the initial guess is 1-A.
 Requested convergence on RMS density matrix=1.00D-04 within 128 cycles.
 Requested convergence on MAX density matrix=1.00D-02.
 Requested convergence on             energy=1.00D-02.
 No special actions if energy rises.
 EnCoef did     4 forward-backward iterations
 EnCoef did     3 forward-backward iterations
 EnCoef did     4 forward-backward iterations
 EnCoef did     3 forward-backward iterations
 EnCoef did    12 forward-backward iterations
 SCF Done:  E(RB+HF-LYP) =  -2750.26973925     A.U. after    8 cycles
             Convg  =    0.7499D-04             -V/T =  2.0026
             S**2   =   0.0000

 **********************************************************************

            Population analysis using the SCF density.

 **********************************************************************

 Orbital symmetries:
       Occupied  (A) (A) (A) (A) (A) (A) (A) (A) (A) (A) (A) (A)
                 (A) (A) (A) (A) (A) (A) (A) (A) (A) (A) (A) (A)
                 (A) (A) (A) (A) (A) (A) (A) (A) (A) (A) (A) (A)
                 (A) (A) (A) (A) (A) (A) (A) (A) (A) (A) (A) (A)
                 (A) (A) (A) (A) (A) (A) (A) (A) (A)
       Virtual   (A) (A) (A) (A) (A) (A) (A) (A) (A) (A) (A) (A)
                 (A) (A) (A) (A) (A) (A) (A) (A) (A) (A) (A) (A)
                 (A) (A) (A) (A) (A) (A) (A) (A) (A) (A) (A) (A)
                 (A) (A) (A) (A) (A) (A) (A) (A) (A) (A) (A) (A)
                 (A) (A) (A) (A) (A) (A) (A) (A) (A) (A) (A) (A)
                 (A) (A) (A) (A) (A) (A) (A) (A) (A) (A) (A) (A)
                 (A) (A) (A) (A) (A) (A) (A) (A) (A) (A) (A) (A)
                 (A) (A) (A) (A) (A) (A) (A) (A) (A) (A) (A) (A)
                 (A) (A) (A) (A) (A) (A) (A) (A) (A) (A) (A) (A)
                 (A) (A) (A) (A) (A) (A) (A) (A) (A) (A) (A) (A)
                 (A) (A) (A) (A) (A) (A) (A) (A) (A) (A) (A) (A)
                 (A) (A) (A) (A) (A) (A) (A) (A) (A) (A)
 The electronic state is 1-A.
 Alpha  occ. eigenvalues -- -145.53963-145.50270-145.49068 -77.31074 -19.24110
 Alpha  occ. eigenvalues --  -19.23713 -19.21961 -19.20878 -19.18395 -15.60844
 Alpha  occ. eigenvalues --  -15.57089 -15.55924 -12.74072 -12.74000 -12.73966
 Alpha  occ. eigenvalues --  -12.70318 -12.70302 -12.70178 -12.69151 -12.69123
 Alpha  occ. eigenvalues --  -12.69013  -6.75447  -4.91888  -4.91769  -4.91726
 Alpha  occ. eigenvalues --   -1.97991  -1.94205  -1.93164  -1.25758  -1.25574
 Alpha  occ. eigenvalues --   -1.25264  -1.22255  -1.21803  -1.21495  -1.20932
 Alpha  occ. eigenvalues --   -1.20782  -1.20276  -1.12661  -1.04541  -1.03678
 Alpha  occ. eigenvalues --   -1.02505  -0.91449  -0.62585  -0.54008  -0.53458
 Alpha  occ. eigenvalues --   -0.52625  -0.46930  -0.44726  -0.44024  -0.42398
 Alpha  occ. eigenvalues --   -0.41925  -0.39385  -0.38011  -0.37109  -0.36422
 Alpha  occ. eigenvalues --   -0.34730  -0.34467
 Alpha virt. eigenvalues --   -0.21807  -0.18311  -0.17011  -0.12992  -0.12164
 Alpha virt. eigenvalues --   -0.10120  -0.10010  -0.09147  -0.08461  -0.07782
 Alpha virt. eigenvalues --   -0.07110  -0.06535  -0.05556  -0.05314  -0.04898
 Alpha virt. eigenvalues --   -0.04584  -0.04201  -0.04052  -0.03943  -0.03838
 Alpha virt. eigenvalues --   -0.03632  -0.03254  -0.03102  -0.02635  -0.01680
 Alpha virt. eigenvalues --   -0.00984  -0.00215   0.00915   0.01471   0.02234
 Alpha virt. eigenvalues --    0.02517   0.03004   0.03767   0.04240   0.04283
 Alpha virt. eigenvalues --    0.04750   0.04877   0.05555   0.05712   0.06666
 Alpha virt. eigenvalues --    0.07083   0.07543   0.07867   0.08050   0.09268
 Alpha virt. eigenvalues --    0.09672   0.10010   0.10347   0.10675   0.12139
 Alpha virt. eigenvalues --    0.12544   0.14257   0.15348   0.16403   0.17337
 Alpha virt. eigenvalues --    0.17758   0.18076   0.18907   0.21145   0.21803
 Alpha virt. eigenvalues --    0.22620   0.23445   0.23988   0.24772   0.25680
 Alpha virt. eigenvalues --    0.26538   0.27027   0.28988   0.30303   0.31247
 Alpha virt. eigenvalues --    0.31775   0.33951   0.34744   0.37016   0.38780
 Alpha virt. eigenvalues --    0.41557   0.46312   0.50198   0.51058   0.54774
 Alpha virt. eigenvalues --    0.56068   0.57289   0.59557   0.63691   0.68417
 Alpha virt. eigenvalues --    0.76871   0.87124   0.93019   0.98330   0.99391
 Alpha virt. eigenvalues --    1.06225   1.11507   1.13040   1.16137   1.16347
 Alpha virt. eigenvalues --    1.19158   1.19678   1.19996   1.20865   1.21523
 Alpha virt. eigenvalues --    1.24329   1.26146   1.27348   1.29082   1.29389
 Alpha virt. eigenvalues --    1.33364   1.41552   1.49302   1.53893   1.59295
 Alpha virt. eigenvalues --    1.67800   1.69125   1.70230   1.70797   1.73303
 Alpha virt. eigenvalues --    1.74580   1.76315   1.77250   1.80831   1.81997
 Alpha virt. eigenvalues --    1.82571   1.85063   1.85374   1.88516   1.89824
 Alpha virt. eigenvalues --    1.92911   1.98801   1.99921   2.03539   2.08985
 Alpha virt. eigenvalues --    2.14579   2.21009   2.46266   2.66745   2.73198
 Alpha virt. eigenvalues --    2.79054   3.48530   3.94239   4.02859   4.06407
 Alpha virt. eigenvalues --    4.09715   4.13962
          Condensed to atoms (all electrons):
              1          2          3          4          5          6
     1  O    8.838634  -0.098301   0.013234   0.142123   0.131187  -0.037792
     2  O   -0.098301   8.804130   0.069493   0.238796  -0.002547  -0.136954
     3  Ca   0.013234   0.069493  18.273174   0.015720   0.001097   0.041838
     4  P    0.142123   0.238796   0.015720  12.658014   0.008559   0.067160
     5  Ca   0.131187  -0.002547   0.001097   0.008559  18.209630   0.006387
     6  O   -0.037792  -0.136954   0.041838   0.067160   0.006387   9.015345
     7  O   -0.000422   0.001127   0.167477  -0.000829   0.000834   0.016872
     8  Ca   0.003972  -0.011952  -0.017590   0.012982  -0.005599   0.077379
     9  O   -0.111021   0.026481  -0.000586   0.056814   0.064365  -0.010381
              7          8          9
     1  O   -0.000422   0.003972  -0.111021
     2  O    0.001127  -0.011952   0.026481
     3  Ca   0.167477  -0.017590  -0.000586
     4  P   -0.000829   0.012982   0.056814
     5  Ca   0.000834  -0.005599   0.064365
     6  O    0.016872   0.077379  -0.010381
     7  O    8.992845   0.166411  -0.001359
     8  Ca   0.166411  18.277378   0.041873
     9  O   -0.001359   0.041873   9.057146
 Mulliken atomic charges:
              1
     1  O   -0.881614
     2  O   -0.890274
     3  Ca   1.436142
     4  P    1.800660
     5  Ca   1.586086
     6  O   -1.039855
     7  O   -1.342956
     8  Ca   1.455145
     9  O   -1.123334
 Sum of Mulliken charges=   1.00000
 Atomic charges with hydrogens summed into heavy atoms:
              1
     1  O   -0.881614
     2  O   -0.890274
     3  Ca   1.436142
     4  P    1.800660
     5  Ca   1.586086
     6  O   -1.039855
     7  O   -1.342956
     8  Ca   1.455145
     9  O   -1.123334
 Sum of Mulliken charges=   1.00000
 Electronic spatial extent (au):  <R**2>=  2340.8465
 Charge=     1.0000 electrons
 Dipole moment (field-independent basis, Debye):
    X=   -14.4392    Y=     4.6880    Z=    -0.7271  Tot=    15.1986
 Quadrupole moment (field-independent basis, Debye-Ang):
   XX=   -12.2821   YY=   -49.2320   ZZ=   -83.3386
   XY=   -32.0364   XZ=    20.3854   YZ=     7.3399
 Traceless Quadrupole moment (field-independent basis, Debye-Ang):
   XX=    36.0021   YY=    -0.9478   ZZ=   -35.0544
   XY=   -32.0364   XZ=    20.3854   YZ=     7.3399
 Octapole moment (field-independent basis, Debye-Ang**2):
  XXX=  -317.9036  YYY=    64.7470  ZZZ=   -10.6755  XYY=    51.2986
  XXY=   -45.7674  XXZ=   -19.9897  XZZ=   -13.9703  YZZ=     7.6442
  YYZ=    10.3247  XYZ=    11.2356
 Hexadecapole moment (field-independent basis, Debye-Ang**3):
 XXXX=  -926.7474 YYYY=  -466.5094 ZZZZ=  -244.4876 XXXY=  -402.5575
 XXXZ=   228.4470 YYYX=   -40.2991 YYYZ=    20.8318 ZZZX=    37.2302
 ZZZY=    15.7827 XXYY=  -294.8825 XXZZ=  -308.4939 YYZZ=  -138.1211
 XXYZ=    50.7136 YYXZ=    25.1564 ZZXY=   -26.5818
 N-N= 1.034532931844D+03 E-N=-8.573469242650D+03  KE= 2.743079060589D+03
 Merz-Kollman atomic radii used.
 Read replacement radii for each type of atom:
 Rad(20) =   1.188000000000D+00
 Atom Element Radius
    1     8    1.40
    2     8    1.40
    3    20    1.19
    4    15    1.80
    5    20    1.19
    6     8    1.40
    7     8    1.40
    8    20    1.19
    9     8    1.40

 **********************************************************************

            Electrostatic Properties Using The SCF Density

 **********************************************************************

       Atomic Center    1 is at  -1.953532 -1.098186  0.828910
       Atomic Center    2 is at   0.073017 -1.564289 -0.734290
       Atomic Center    3 is at   2.318648 -1.232253 -0.176890
       Atomic Center    4 is at  -0.574691 -0.600888  0.280220
       Atomic Center    5 is at  -3.183590  0.272486 -0.369140
       Atomic Center    6 is at   0.521930 -0.169290  1.303170
       Atomic Center    7 is at   2.812081  0.819026 -0.553760
       Atomic Center    8 is at   1.117253  1.882179  0.176070
       Atomic Center    9 is at  -1.006729  0.833373 -0.444540
     747 points will be used for fitting atomic charges
 Fitting point charges to eletrostatic potential
 Charges from ESP fit, RMS=   0.00410 RRMS=   0.02547:
 Charge=   1.00000 Dipole=   -14.4572     4.7512    -0.6490 Tot=    15.2318
              1
     1  O   -0.900688
     2  O   -0.964717
     3  Ca   1.685459
     4  P    1.601602
     5  Ca   1.776601
     6  O   -1.041706
     7  O   -1.654057
     8  Ca   1.725675
     9  O   -1.228170
 -----------------------------------------------------------------

              Electrostatic Properties (Atomic Units)

 -----------------------------------------------------------------
    Center     Electric         -------- Electric Field --------
               Potential          X             Y             Z
 -----------------------------------------------------------------
    1 Atom    -22.214734
    2 Atom    -22.285255
    3 Atom    -80.110562
    4 Atom    -53.892849
    5 Atom    -79.932763
    6 Atom    -22.291100
    7 Atom    -22.649580
    8 Atom    -80.091035
    9 Atom    -22.224757
 -----------------------------------------------------------------
 1\1\GINC-N029\SP\RB3LYP\6-31+G(d,p)\Ca3O5P1(1+)\TIMN\12-Jun-2015\0\\# 
 b3lyp/6-31+G(d,p) int=ultrafine pop=(ReadRadii,MK)\\mol_17.28.23.pdbcc
 c_plusQ.z58546.zip.xyz\\1,1\O,0,-1.95353,-1.09819,0.82891\O,0,0.07302,
 -1.56429,-0.73429\Ca,0,2.31865,-1.23225,-0.17689\P,0,-0.57469,-0.60089
 ,0.28022\Ca,0,-3.18359,0.27248,-0.36914\O,0,0.52193,-0.16929,1.30317\O
 ,0,2.81208,0.81903,-0.55376\Ca,0,1.11725,1.88218,0.17607\O,0,-1.00673,
 0.83337,-0.44454\\Version=EM64T-G03RevE.01\State=1-A\HF=-2750.2697393\
 RMSD=7.499e-05\Thermal=0.\Dipole=-5.680824,1.8444087,-0.2860479\PG=C01
  [X(Ca3O5P1)]\\@


 THE FIRST AND LAST THING REQUIRED OF GENIUS IS THE LOVE OF TRUTH.

                          -- GOETHE
 Job cpu time:  0 days  0 hours  2 minutes  5.5 seconds.
 File lengths (MBytes):  RWF=     36 Int=      0 D2E=      0 Chk=     11 Scr=      1
 Normal termination of Gaussian 03 at Fri Jun 12 18:08:45 2015.
