 Entering Gaussian System, Link 0=/home/timn/tmp/g03.e01/g03
 Input=mol_17.28.28.pdbc_plusQ.z58551.zip.xyz.gjf
 Output=mol_17.28.28.pdbc_plusQ.z58551.zip.xyz.out
 Initial command:
 /home/timn/tmp/g03.e01/l1.exe /home/timn/tmp/g03.e01/Gau-19764.inp -scrdir=/home/timn/tmp/g03.e01/
 Default is to use a total of   2 processors:
                                2 via shared-memory
                                1 via Linda
 Entering Link 1 = /home/timn/tmp/g03.e01/l1.exe PID=     19765.
  
 Copyright (c) 1988,1990,1992,1993,1995,1998,2003,2004,2007, Gaussian, Inc.
                  All Rights Reserved.
  
 This is the Gaussian(R) 03 program.  It is based on the
 the Gaussian(R) 98 system (copyright 1998, Gaussian, Inc.),
 the Gaussian(R) 94 system (copyright 1995, Gaussian, Inc.),
 the Gaussian 92(TM) system (copyright 1992, Gaussian, Inc.),
 the Gaussian 90(TM) system (copyright 1990, Gaussian, Inc.),
 the Gaussian 88(TM) system (copyright 1988, Gaussian, Inc.),
 the Gaussian 86(TM) system (copyright 1986, Carnegie Mellon
 University), and the Gaussian 82(TM) system (copyright 1983,
 Carnegie Mellon University). Gaussian is a federally registered
 trademark of Gaussian, Inc.
  
 This software contains proprietary and confidential information,
 including trade secrets, belonging to Gaussian, Inc.
  
 This software is provided under written license and may be
 used, copied, transmitted, or stored only in accord with that
 written license.
  
 The following legend is applicable only to US Government
 contracts under FAR:
  
                    RESTRICTED RIGHTS LEGEND
  
 Use, reproduction and disclosure by the US Government is
 subject to restrictions as set forth in subparagraphs (a)
 and (c) of the Commercial Computer Software - Restricted
 Rights clause in FAR 52.227-19.
  
 Gaussian, Inc.
 340 Quinnipiac St., Bldg. 40, Wallingford CT 06492
  
  
 ---------------------------------------------------------------
 Warning -- This program may not be used in any manner that
 competes with the business of Gaussian, Inc. or will provide
 assistance to any competitor of Gaussian, Inc.  The licensee
 of this program is prohibited from giving any competitor of
 Gaussian, Inc. access to this program.  By using this program,
 the user acknowledges that Gaussian, Inc. is engaged in the
 business of creating and licensing software in the field of
 computational chemistry and represents and warrants to the
 licensee that it is not a competitor of Gaussian, Inc. and that
 it will not use this program in any manner prohibited above.
 ---------------------------------------------------------------
  

 Cite this work as:
 Gaussian 03, Revision E.01,
 M. J. Frisch, G. W. Trucks, H. B. Schlegel, G. E. Scuseria, 
 M. A. Robb, J. R. Cheeseman, J. A. Montgomery, Jr., T. Vreven, 
 K. N. Kudin, J. C. Burant, J. M. Millam, S. S. Iyengar, J. Tomasi, 
 V. Barone, B. Mennucci, M. Cossi, G. Scalmani, N. Rega, 
 G. A. Petersson, H. Nakatsuji, M. Hada, M. Ehara, K. Toyota, 
 R. Fukuda, J. Hasegawa, M. Ishida, T. Nakajima, Y. Honda, O. Kitao, 
 H. Nakai, M. Klene, X. Li, J. E. Knox, H. P. Hratchian, J. B. Cross, 
 V. Bakken, C. Adamo, J. Jaramillo, R. Gomperts, R. E. Stratmann, 
 O. Yazyev, A. J. Austin, R. Cammi, C. Pomelli, J. W. Ochterski, 
 P. Y. Ayala, K. Morokuma, G. A. Voth, P. Salvador, J. J. Dannenberg, 
 V. G. Zakrzewski, S. Dapprich, A. D. Daniels, M. C. Strain, 
 O. Farkas, D. K. Malick, A. D. Rabuck, K. Raghavachari, 
 J. B. Foresman, J. V. Ortiz, Q. Cui, A. G. Baboul, S. Clifford, 
 J. Cioslowski, B. B. Stefanov, G. Liu, A. Liashenko, P. Piskorz, 
 I. Komaromi, R. L. Martin, D. J. Fox, T. Keith, M. A. Al-Laham, 
 C. Y. Peng, A. Nanayakkara, M. Challacombe, P. M. W. Gill, 
 B. Johnson, W. Chen, M. W. Wong, C. Gonzalez, and J. A. Pople, 
 Gaussian, Inc., Wallingford CT, 2004.
 
 ******************************************
 Gaussian 03:  EM64T-G03RevE.01 11-Sep-2007
                12-Jun-2015 
 ******************************************
 %nproc=2
 Will use up to    2 processors via shared memory.
 Default route:  MP2=Direct MaxDisk=2000MB
 ----------------------------------------------------
 # b3lyp/6-31+G(d,p) int=ultrafine pop=(ReadRadii,MK)
 ----------------------------------------------------

 Warning!  SCF SP cutoffs with diffuse functions may be unreliable.
 Consider SCF=Tight

 1/38=1/1;
 2/17=6,18=5,40=1/2;
 3/5=1,6=6,7=111,11=2,16=1,25=1,30=1,74=-5,75=5/1,2,3;
 4//1;
 5/5=2,32=1,38=5/2;
 6/7=2,8=2,9=2,10=2,15=8,20=101,28=1/1,2;
 99/5=1,9=1/99;
 --------------------------------------
 mol_17.28.28.pdbc_plusQ.z58551.zip.xyz
 --------------------------------------
 Symbolic Z-matrix:
 Charge =  1 Multiplicity = 1
 O                    -2.04476   0.00141   0.36221 
 O                     0.2202   -0.00013  -1.48116 
 Ca                   -1.01351  -1.75201  -0.86122 
 P                    -0.92492   0.00015   1.54492 
 Ca                   -1.01036   1.75368  -0.86038 
 O                    -0.00769   1.27528   1.1979 
 O                    -0.00981  -1.27635   1.19723 
 Ca                    1.8506   -0.00178   0.2064 
 O                     4.00945  -0.00022  -0.38491 
 
                          Input orientation:                          
 ---------------------------------------------------------------------
 Center     Atomic     Atomic              Coordinates (Angstroms)
 Number     Number      Type              X           Y           Z
 ---------------------------------------------------------------------
    1          8             0       -2.044760    0.001410    0.362210
    2          8             0        0.220200   -0.000130   -1.481160
    3         20             0       -1.013510   -1.752010   -0.861220
    4         15             0       -0.924920    0.000150    1.544920
    5         20             0       -1.010360    1.753680   -0.860380
    6          8             0       -0.007690    1.275280    1.197900
    7          8             0       -0.009810   -1.276350    1.197230
    8         20             0        1.850600   -0.001780    0.206400
    9          8             0        4.009450   -0.000220   -0.384910
 ---------------------------------------------------------------------
                    Distance matrix (angstroms):
                    1          2          3          4          5
     1  O    0.000000
     2  O    2.920284   0.000000
     3  Ca   2.373761   2.230572   0.000000
     4  P    1.628756   3.235500   2.977822   0.000000
     5  Ca   2.373849   2.230582   3.505692   2.977858   0.000000
     6  O    2.543772   2.975898   3.796858   1.608630   2.338959
     7  O    2.543806   2.975805   2.338992   1.608654   3.796833
     8  Ca   3.898476   2.346501   3.522250   3.081420   3.522038
     9  O    6.100135   3.944639   5.340952   5.298325   5.338607
                    6          7          8          9
     6  O    0.000000
     7  O    2.551631   0.000000
     8  Ca   2.463168   2.463209   0.000000
     9  O    4.502177   4.504012   2.238366   0.000000
 Stoichiometry    Ca3O5P(1+)
 Framework group  C1[X(Ca3O5P)]
 Deg. of freedom    21
 Full point group                 C1
 Largest Abelian subgroup         C1      NOp   1
 Largest concise Abelian subgroup C1      NOp   1
                         Standard orientation:                         
 ---------------------------------------------------------------------
 Center     Atomic     Atomic              Coordinates (Angstroms)
 Number     Number      Type              X           Y           Z
 ---------------------------------------------------------------------
    1          8             0       -2.044759    0.001411    0.362210
    2          8             0        0.220201   -0.000130   -1.481160
    3         20             0       -1.013510   -1.752010   -0.861220
    4         15             0       -0.924919    0.000150    1.544920
    5         20             0       -1.010359    1.753680   -0.860380
    6          8             0       -0.007689    1.275280    1.197900
    7          8             0       -0.009810   -1.276350    1.197230
    8         20             0        1.850601   -0.001780    0.206400
    9          8             0        4.009451   -0.000221   -0.384910
 ---------------------------------------------------------------------
 Rotational constants (GHZ):      0.9758034      0.6395090      0.5824853
 Standard basis: 6-31+G(d,p) (6D, 7F)
 There are   199 symmetry adapted basis functions of A   symmetry.
 Integral buffers will be    131072 words long.
 Raffenetti 2 integral format.
 Two-electron integral symmetry is turned on.
   199 basis functions,   456 primitive gaussians,   199 cartesian basis functions
    57 alpha electrons       57 beta electrons
       nuclear repulsion energy      1052.0389336349 Hartrees.
 NAtoms=    9 NActive=    9 NUniq=    9 SFac= 7.50D-01 NAtFMM=   80 NAOKFM=F Big=F
 One-electron integrals computed using PRISM.
 NBasis=   199 RedAO= T  NBF=   199
 NBsUse=   199 1.00D-06 NBFU=   199
 Harris functional with IExCor=  402 diagonalized for initial guess.
 ExpMin= 7.10D-03 ExpMax= 3.53D+04 ExpMxC= 5.30D+03 IAcc=3 IRadAn=         5 AccDes= 0.00D+00
 HarFok:  IExCor= 402 AccDes= 0.00D+00 IRadAn=         5 IDoV=1
 ScaDFX=  1.000000  1.000000  1.000000  1.000000
 Initial guess orbital symmetries:
       Occupied  (A) (A) (A) (A) (A) (A) (A) (A) (A) (A) (A) (A)
                 (A) (A) (A) (A) (A) (A) (A) (A) (A) (A) (A) (A)
                 (A) (A) (A) (A) (A) (A) (A) (A) (A) (A) (A) (A)
                 (A) (A) (A) (A) (A) (A) (A) (A) (A) (A) (A) (A)
                 (A) (A) (A) (A) (A) (A) (A) (A) (A)
       Virtual   (A) (A) (A) (A) (A) (A) (A) (A) (A) (A) (A) (A)
                 (A) (A) (A) (A) (A) (A) (A) (A) (A) (A) (A) (A)
                 (A) (A) (A) (A) (A) (A) (A) (A) (A) (A) (A) (A)
                 (A) (A) (A) (A) (A) (A) (A) (A) (A) (A) (A) (A)
                 (A) (A) (A) (A) (A) (A) (A) (A) (A) (A) (A) (A)
                 (A) (A) (A) (A) (A) (A) (A) (A) (A) (A) (A) (A)
                 (A) (A) (A) (A) (A) (A) (A) (A) (A) (A) (A) (A)
                 (A) (A) (A) (A) (A) (A) (A) (A) (A) (A) (A) (A)
                 (A) (A) (A) (A) (A) (A) (A) (A) (A) (A) (A) (A)
                 (A) (A) (A) (A) (A) (A) (A) (A) (A) (A) (A) (A)
                 (A) (A) (A) (A) (A) (A) (A) (A) (A) (A) (A) (A)
                 (A) (A) (A) (A) (A) (A) (A) (A) (A) (A)
 The electronic state of the initial guess is 1-A.
 Requested convergence on RMS density matrix=1.00D-04 within 128 cycles.
 Requested convergence on MAX density matrix=1.00D-02.
 Requested convergence on             energy=1.00D-02.
 No special actions if energy rises.
 EnCoef did     8 forward-backward iterations
 EnCoef did     5 forward-backward iterations
 EnCoef did     4 forward-backward iterations
 EnCoef did     7 forward-backward iterations
 EnCoef did     8 forward-backward iterations
 EnCoef did     4 forward-backward iterations
 EnCoef did    23 forward-backward iterations
 EnCoef did    16 forward-backward iterations
 EnCoef did   100 forward-backward iterations
 EnCoef did   100 forward-backward iterations
 EnCoef did     2 forward-backward iterations
 EnCoef did     2 forward-backward iterations
 EnCoef did     1 forward-backward iterations
 SCF Done:  E(RB+HF-LYP) =  -2750.13169527     A.U. after   18 cycles
             Convg  =    0.8391D-04             -V/T =  2.0029
             S**2   =   0.0000

 **********************************************************************

            Population analysis using the SCF density.

 **********************************************************************

 Orbital symmetries:
       Occupied  (A) (A) (A) (A) (A) (A) (A) (A) (A) (A) (A) (A)
                 (A) (A) (A) (A) (A) (A) (A) (A) (A) (A) (A) (A)
                 (A) (A) (A) (A) (A) (A) (A) (A) (A) (A) (A) (A)
                 (A) (A) (A) (A) (A) (A) (A) (A) (A) (A) (A) (A)
                 (A) (A) (A) (A) (A) (A) (A) (A) (A)
       Virtual   (A) (A) (A) (A) (A) (A) (A) (A) (A) (A) (A) (A)
                 (A) (A) (A) (A) (A) (A) (A) (A) (A) (A) (A) (A)
                 (A) (A) (A) (A) (A) (A) (A) (A) (A) (A) (A) (A)
                 (A) (A) (A) (A) (A) (A) (A) (A) (A) (A) (A) (A)
                 (A) (A) (A) (A) (A) (A) (A) (A) (A) (A) (A) (A)
                 (A) (A) (A) (A) (A) (A) (A) (A) (A) (A) (A) (A)
                 (A) (A) (A) (A) (A) (A) (A) (A) (A) (A) (A) (A)
                 (A) (A) (A) (A) (A) (A) (A) (A) (A) (A) (A) (A)
                 (A) (A) (A) (A) (A) (A) (A) (A) (A) (A) (A) (A)
                 (A) (A) (A) (A) (A) (A) (A) (A) (A) (A) (A) (A)
                 (A) (A) (A) (A) (A) (A) (A) (A) (A) (A) (A) (A)
                 (A) (A) (A) (A) (A) (A) (A) (A) (A) (A)
 The electronic state is 1-A.
 Alpha  occ. eigenvalues -- -145.54372-145.54368-145.46597 -77.31609 -19.27365
 Alpha  occ. eigenvalues --  -19.26996 -19.26994 -19.24473 -19.20314 -15.61167
 Alpha  occ. eigenvalues --  -15.61165 -15.53504 -12.74377 -12.74377 -12.74343
 Alpha  occ. eigenvalues --  -12.74342 -12.74302 -12.74301 -12.66757 -12.66708
 Alpha  occ. eigenvalues --  -12.66561  -6.76676  -4.93010  -4.92992  -4.92703
 Alpha  occ. eigenvalues --   -1.98340  -1.98302  -1.90923  -1.26508  -1.26016
 Alpha  occ. eigenvalues --   -1.25954  -1.25701  -1.25624  -1.25166  -1.18954
 Alpha  occ. eigenvalues --   -1.18822  -1.18453  -1.13862  -1.07085  -1.07042
 Alpha  occ. eigenvalues --   -0.94953  -0.93751  -0.67348  -0.56559  -0.56346
 Alpha  occ. eigenvalues --   -0.54260  -0.49235  -0.48807  -0.44124  -0.43967
 Alpha  occ. eigenvalues --   -0.43252  -0.40126  -0.39692  -0.37985  -0.37054
 Alpha  occ. eigenvalues --   -0.36105  -0.33479
 Alpha virt. eigenvalues --   -0.31048  -0.22194  -0.20830  -0.15135  -0.13386
 Alpha virt. eigenvalues --   -0.13011  -0.12151  -0.11853  -0.09007  -0.08141
 Alpha virt. eigenvalues --   -0.07783  -0.06995  -0.06902  -0.06235  -0.05588
 Alpha virt. eigenvalues --   -0.05558  -0.05363  -0.04748  -0.04616  -0.04579
 Alpha virt. eigenvalues --   -0.03891  -0.03859  -0.03528  -0.03241  -0.03088
 Alpha virt. eigenvalues --   -0.02682  -0.01986  -0.00953  -0.00386   0.00668
 Alpha virt. eigenvalues --    0.01143   0.01950   0.02513   0.03222   0.03575
 Alpha virt. eigenvalues --    0.04018   0.04026   0.04721   0.04723   0.04763
 Alpha virt. eigenvalues --    0.04887   0.05273   0.05789   0.07583   0.07637
 Alpha virt. eigenvalues --    0.08774   0.08919   0.09350   0.09981   0.11992
 Alpha virt. eigenvalues --    0.12237   0.13252   0.14375   0.16345   0.17000
 Alpha virt. eigenvalues --    0.17636   0.18376   0.18432   0.19547   0.20238
 Alpha virt. eigenvalues --    0.20722   0.21382   0.22039   0.22465   0.23783
 Alpha virt. eigenvalues --    0.25135   0.28580   0.29560   0.29923   0.31133
 Alpha virt. eigenvalues --    0.31733   0.31959   0.33906   0.36399   0.36990
 Alpha virt. eigenvalues --    0.38164   0.42976   0.43516   0.47787   0.51065
 Alpha virt. eigenvalues --    0.51246   0.52554   0.58623   0.58801   0.67002
 Alpha virt. eigenvalues --    0.78683   0.82380   0.84547   0.92840   0.93074
 Alpha virt. eigenvalues --    1.10771   1.11017   1.11919   1.13504   1.13595
 Alpha virt. eigenvalues --    1.14533   1.17368   1.18065   1.19243   1.20595
 Alpha virt. eigenvalues --    1.21291   1.23529   1.24474   1.28276   1.29076
 Alpha virt. eigenvalues --    1.41083   1.42973   1.50513   1.51642   1.57639
 Alpha virt. eigenvalues --    1.65554   1.67575   1.67990   1.68021   1.72093
 Alpha virt. eigenvalues --    1.72795   1.73741   1.73964   1.77142   1.77315
 Alpha virt. eigenvalues --    1.81154   1.84350   1.84764   1.85001   1.86495
 Alpha virt. eigenvalues --    1.87161   1.90666   1.95211   1.96185   2.02500
 Alpha virt. eigenvalues --    2.03339   2.09117   2.16282   2.47429   2.59955
 Alpha virt. eigenvalues --    2.61865   3.46150   3.87642   4.05043   4.09282
 Alpha virt. eigenvalues --    4.09447   4.32834
          Condensed to atoms (all electrons):
              1          2          3          4          5          6
     1  O    8.918742   0.022791   0.058076  -0.223904   0.058009   0.055918
     2  O    0.022791   8.789877   0.129000   0.016169   0.128986   0.017529
     3  Ca   0.058076   0.129000  18.314237   0.004232  -0.028812   0.007010
     4  P   -0.223904   0.016169   0.004232  14.315520   0.004428  -0.127617
     5  Ca   0.058009   0.128986  -0.028812   0.004428  18.314209   0.053022
     6  O    0.055918   0.017529   0.007010  -0.127617   0.053022   8.851826
     7  O    0.055949   0.017510   0.053054  -0.127765   0.006999   0.012358
     8  Ca   0.006509   0.079721  -0.039076  -0.015863  -0.039052   0.045927
     9  O    0.000215  -0.001627   0.007206  -0.001084   0.007201   0.000056
              7          8          9
     1  O    0.055949   0.006509   0.000215
     2  O    0.017510   0.079721  -0.001627
     3  Ca   0.053054  -0.039076   0.007206
     4  P   -0.127765  -0.015863  -0.001084
     5  Ca   0.006999  -0.039052   0.007201
     6  O    0.012358   0.045927   0.000056
     7  O    8.851976   0.045809   0.000057
     8  Ca   0.045809  18.408505   0.169463
     9  O    0.000057   0.169463   8.318299
 Mulliken atomic charges:
              1
     1  O   -0.952305
     2  O   -1.199956
     3  Ca   1.495074
     4  P    1.155883
     5  Ca   1.495011
     6  O   -0.916030
     7  O   -0.915948
     8  Ca   1.338057
     9  O   -0.499786
 Sum of Mulliken charges=   1.00000
 Atomic charges with hydrogens summed into heavy atoms:
              1
     1  O   -0.952305
     2  O   -1.199956
     3  Ca   1.495074
     4  P    1.155883
     5  Ca   1.495011
     6  O   -0.916030
     7  O   -0.915948
     8  Ca   1.338057
     9  O   -0.499786
 Sum of Mulliken charges=   1.00000
 Electronic spatial extent (au):  <R**2>=  2094.0911
 Charge=     1.0000 electrons
 Dipole moment (field-independent basis, Debye):
    X=    -9.7097    Y=     0.0005    Z=    -6.2059  Tot=    11.5235
 Quadrupole moment (field-independent basis, Debye-Ang):
   XX=   -93.0176   YY=   -37.0318   ZZ=   -79.8900
   XY=     0.0090   XZ=    22.7419   YZ=    -0.0049
 Traceless Quadrupole moment (field-independent basis, Debye-Ang):
   XX=   -23.0378   YY=    32.9480   ZZ=    -9.9102
   XY=     0.0090   XZ=    22.7419   YZ=    -0.0049
 Octapole moment (field-independent basis, Debye-Ang**2):
  XXX=  -129.1881  YYY=     0.1534  ZZZ=   -14.4859  XYY=   -57.9862
  XXY=    -0.1406  XXZ=     4.4794  XZZ=   -19.7960  YZZ=    -0.0113
  YYZ=   -66.5596  XYZ=    -0.0628
 Hexadecapole moment (field-independent basis, Debye-Ang**3):
 XXXX= -1938.0289 YYYY=  -384.6704 ZZZZ=  -598.4658 XXXY=     0.1517
 XXXZ=   175.6968 YYYX=     0.0104 YYYZ=    -0.0641 ZZZX=    62.4095
 ZZZY=    -0.0007 XXYY=  -252.6755 XXZZ=  -286.5348 YYZZ=  -159.9488
 XXYZ=     0.0374 YYXZ=    62.8546 ZZXY=     0.0384
 N-N= 1.052038933635D+03 E-N=-8.602541457284D+03  KE= 2.742124673106D+03
 Merz-Kollman atomic radii used.
 Read replacement radii for each type of atom:
 Rad(20) =   1.188000000000D+00
 Atom Element Radius
    1     8    1.40
    2     8    1.40
    3    20    1.19
    4    15    1.80
    5    20    1.19
    6     8    1.40
    7     8    1.40
    8    20    1.19
    9     8    1.40

 **********************************************************************

            Electrostatic Properties Using The SCF Density

 **********************************************************************

       Atomic Center    1 is at  -2.044759  0.001411  0.362210
       Atomic Center    2 is at   0.220201 -0.000130 -1.481160
       Atomic Center    3 is at  -1.013510 -1.752010 -0.861220
       Atomic Center    4 is at  -0.924919  0.000150  1.544920
       Atomic Center    5 is at  -1.010359  1.753680 -0.860380
       Atomic Center    6 is at  -0.007689  1.275280  1.197900
       Atomic Center    7 is at  -0.009810 -1.276350  1.197230
       Atomic Center    8 is at   1.850601 -0.001780  0.206400
       Atomic Center    9 is at   4.009451 -0.000221 -0.384910
     828 points will be used for fitting atomic charges
 Fitting point charges to eletrostatic potential
 Charges from ESP fit, RMS=   0.00529 RRMS=   0.03368:
 Charge=   1.00000 Dipole=    -9.8605     0.0004    -6.3487 Tot=    11.7276
              1
     1  O   -0.928537
     2  O   -1.473521
     3  Ca   1.675562
     4  P    0.761130
     5  Ca   1.675628
     6  O   -0.855281
     7  O   -0.855321
     8  Ca   1.647957
     9  O   -0.647616
 -----------------------------------------------------------------

              Electrostatic Properties (Atomic Units)

 -----------------------------------------------------------------
    Center     Electric         -------- Electric Field --------
               Potential          X             Y             Z
 -----------------------------------------------------------------
    1 Atom    -22.195354
    2 Atom    -22.262910
    3 Atom    -79.998330
    4 Atom    -53.901052
    5 Atom    -79.998327
    6 Atom    -22.198249
    7 Atom    -22.198287
    8 Atom    -80.073557
    9 Atom    -22.213137
 -----------------------------------------------------------------
 1\1\GINC-N027\SP\RB3LYP\6-31+G(d,p)\Ca3O5P1(1+)\TIMN\12-Jun-2015\0\\# 
 b3lyp/6-31+G(d,p) int=ultrafine pop=(ReadRadii,MK)\\mol_17.28.28.pdbc_
 plusQ.z58551.zip.xyz\\1,1\O,0,-2.04476,0.00141,0.36221\O,0,0.2202,-0.0
 0013,-1.48116\Ca,0,-1.01351,-1.75201,-0.86122\P,0,-0.92492,0.00015,1.5
 4492\Ca,0,-1.01036,1.75368,-0.86038\O,0,-0.00769,1.27528,1.1979\O,0,-0
 .00981,-1.27635,1.19723\Ca,0,1.8506,-0.00178,0.2064\O,0,4.00945,-0.000
 22,-0.38491\\Version=EM64T-G03RevE.01\State=1-A\HF=-2750.1316953\RMSD=
 8.391e-05\Thermal=0.\Dipole=-3.8200709,0.0001891,-2.4415935\PG=C01 [X(
 Ca3O5P1)]\\@


 IT MATTERS NOT HOW DEEP YOU PLOW,
 BUT HOW LONG YOU STAY IN THE FURROW.
 Job cpu time:  0 days  0 hours  4 minutes 31.9 seconds.
 File lengths (MBytes):  RWF=     36 Int=      0 D2E=      0 Chk=     11 Scr=      1
 Normal termination of Gaussian 03 at Fri Jun 12 18:11:16 2015.
