 Entering Gaussian System, Link 0=/home/timn/tmp/g03.e01/g03
 Input=mol_17.28.20.pdbcc_plusQ.z58543.zip.xyz.gjf
 Output=mol_17.28.20.pdbcc_plusQ.z58543.zip.xyz.out
 Initial command:
 /home/timn/tmp/g03.e01/l1.exe /home/timn/tmp/g03.e01/Gau-13625.inp -scrdir=/home/timn/tmp/g03.e01/
 Default is to use a total of   2 processors:
                                2 via shared-memory
                                1 via Linda
 Entering Link 1 = /home/timn/tmp/g03.e01/l1.exe PID=     13626.
  
 Copyright (c) 1988,1990,1992,1993,1995,1998,2003,2004,2007, Gaussian, Inc.
                  All Rights Reserved.
  
 This is the Gaussian(R) 03 program.  It is based on the
 the Gaussian(R) 98 system (copyright 1998, Gaussian, Inc.),
 the Gaussian(R) 94 system (copyright 1995, Gaussian, Inc.),
 the Gaussian 92(TM) system (copyright 1992, Gaussian, Inc.),
 the Gaussian 90(TM) system (copyright 1990, Gaussian, Inc.),
 the Gaussian 88(TM) system (copyright 1988, Gaussian, Inc.),
 the Gaussian 86(TM) system (copyright 1986, Carnegie Mellon
 University), and the Gaussian 82(TM) system (copyright 1983,
 Carnegie Mellon University). Gaussian is a federally registered
 trademark of Gaussian, Inc.
  
 This software contains proprietary and confidential information,
 including trade secrets, belonging to Gaussian, Inc.
  
 This software is provided under written license and may be
 used, copied, transmitted, or stored only in accord with that
 written license.
  
 The following legend is applicable only to US Government
 contracts under FAR:
  
                    RESTRICTED RIGHTS LEGEND
  
 Use, reproduction and disclosure by the US Government is
 subject to restrictions as set forth in subparagraphs (a)
 and (c) of the Commercial Computer Software - Restricted
 Rights clause in FAR 52.227-19.
  
 Gaussian, Inc.
 340 Quinnipiac St., Bldg. 40, Wallingford CT 06492
  
  
 ---------------------------------------------------------------
 Warning -- This program may not be used in any manner that
 competes with the business of Gaussian, Inc. or will provide
 assistance to any competitor of Gaussian, Inc.  The licensee
 of this program is prohibited from giving any competitor of
 Gaussian, Inc. access to this program.  By using this program,
 the user acknowledges that Gaussian, Inc. is engaged in the
 business of creating and licensing software in the field of
 computational chemistry and represents and warrants to the
 licensee that it is not a competitor of Gaussian, Inc. and that
 it will not use this program in any manner prohibited above.
 ---------------------------------------------------------------
  

 Cite this work as:
 Gaussian 03, Revision E.01,
 M. J. Frisch, G. W. Trucks, H. B. Schlegel, G. E. Scuseria, 
 M. A. Robb, J. R. Cheeseman, J. A. Montgomery, Jr., T. Vreven, 
 K. N. Kudin, J. C. Burant, J. M. Millam, S. S. Iyengar, J. Tomasi, 
 V. Barone, B. Mennucci, M. Cossi, G. Scalmani, N. Rega, 
 G. A. Petersson, H. Nakatsuji, M. Hada, M. Ehara, K. Toyota, 
 R. Fukuda, J. Hasegawa, M. Ishida, T. Nakajima, Y. Honda, O. Kitao, 
 H. Nakai, M. Klene, X. Li, J. E. Knox, H. P. Hratchian, J. B. Cross, 
 V. Bakken, C. Adamo, J. Jaramillo, R. Gomperts, R. E. Stratmann, 
 O. Yazyev, A. J. Austin, R. Cammi, C. Pomelli, J. W. Ochterski, 
 P. Y. Ayala, K. Morokuma, G. A. Voth, P. Salvador, J. J. Dannenberg, 
 V. G. Zakrzewski, S. Dapprich, A. D. Daniels, M. C. Strain, 
 O. Farkas, D. K. Malick, A. D. Rabuck, K. Raghavachari, 
 J. B. Foresman, J. V. Ortiz, Q. Cui, A. G. Baboul, S. Clifford, 
 J. Cioslowski, B. B. Stefanov, G. Liu, A. Liashenko, P. Piskorz, 
 I. Komaromi, R. L. Martin, D. J. Fox, T. Keith, M. A. Al-Laham, 
 C. Y. Peng, A. Nanayakkara, M. Challacombe, P. M. W. Gill, 
 B. Johnson, W. Chen, M. W. Wong, C. Gonzalez, and J. A. Pople, 
 Gaussian, Inc., Wallingford CT, 2004.
 
 ******************************************
 Gaussian 03:  EM64T-G03RevE.01 11-Sep-2007
                12-Jun-2015 
 ******************************************
 %nproc=2
 Will use up to    2 processors via shared memory.
 Default route:  MP2=Direct MaxDisk=2000MB
 ----------------------------------------------------
 # b3lyp/6-31+G(d,p) int=ultrafine pop=(ReadRadii,MK)
 ----------------------------------------------------

 Warning!  SCF SP cutoffs with diffuse functions may be unreliable.
 Consider SCF=Tight

 1/38=1/1;
 2/17=6,18=5,40=1/2;
 3/5=1,6=6,7=111,11=2,16=1,25=1,30=1,74=-5,75=5/1,2,3;
 4//1;
 5/5=2,32=1,38=5/2;
 6/7=2,8=2,9=2,10=2,15=8,20=101,28=1/1,2;
 99/5=1,9=1/99;
 ---------------------------------------
 mol_17.28.20.pdbcc_plusQ.z58543.zip.xyz
 ---------------------------------------
 Symbolic Z-matrix:
 Charge =  1 Multiplicity = 1
 O                     3.4109   -0.6532   -0.00712 
 O                    -0.82025  -0.87972  -0.77624 
 Ca                   -3.07575  -0.69398  -0.00507 
 P                     3.17053   0.8669   -0.00517 
 Ca                    1.22197  -1.49217   0.00546 
 O                     1.61313   1.04042   0.00448 
 O                    -2.87493   1.41597  -0.00149 
 Ca                   -0.72623   1.51876   0.0041 
 O                    -0.82357  -0.88043   0.77881 
 
                          Input orientation:                          
 ---------------------------------------------------------------------
 Center     Atomic     Atomic              Coordinates (Angstroms)
 Number     Number      Type              X           Y           Z
 ---------------------------------------------------------------------
    1          8             0        3.410900   -0.653200   -0.007120
    2          8             0       -0.820250   -0.879720   -0.776240
    3         20             0       -3.075750   -0.693980   -0.005070
    4         15             0        3.170530    0.866900   -0.005170
    5         20             0        1.221970   -1.492170    0.005460
    6          8             0        1.613130    1.040420    0.004480
    7          8             0       -2.874930    1.415970   -0.001490
    8         20             0       -0.726230    1.518760    0.004100
    9          8             0       -0.823570   -0.880430    0.778810
 ---------------------------------------------------------------------
                    Distance matrix (angstroms):
                    1          2          3          4          5
     1  O    0.000000
     2  O    4.306447   0.000000
     3  Ca   6.486779   2.390917   0.000000
     4  P    1.538988   4.423975   6.438351   0.000000
     5  Ca   2.344236   2.270862   4.371226   3.059773   0.000000
     6  O    2.469911   3.196529   4.999383   1.567066   2.562620
     7  O    6.617640   3.176813   2.119488   6.070344   5.024133
     8  Ca   4.672620   2.523980   3.227468   3.950917   3.586249
     9  O    4.312778   1.555054   2.391975   4.429517   2.270799
                    6          7          8          9
     6  O    0.000000
     7  O    4.503749   0.000000
     8  Ca   2.387763   2.151165   0.000000
     9  O    3.197930   3.176539   2.523046   0.000000
 Stoichiometry    Ca3O5P(1+)
 Framework group  C1[X(Ca3O5P)]
 Deg. of freedom    21
 Full point group                 C1
 Largest Abelian subgroup         C1      NOp   1
 Largest concise Abelian subgroup C1      NOp   1
                         Standard orientation:                         
 ---------------------------------------------------------------------
 Center     Atomic     Atomic              Coordinates (Angstroms)
 Number     Number      Type              X           Y           Z
 ---------------------------------------------------------------------
    1          8             0        3.410899   -0.653206   -0.007118
    2          8             0       -0.820251   -0.879719   -0.776238
    3         20             0       -3.075751   -0.693975   -0.005068
    4         15             0        3.170531    0.866895   -0.005168
    5         20             0        1.221968   -1.492172    0.005462
    6          8             0        1.613132    1.040417    0.004482
    7          8             0       -2.874928    1.415974   -0.001488
    8         20             0       -0.726227    1.518761    0.004102
    9          8             0       -0.823571   -0.880429    0.778812
 ---------------------------------------------------------------------
 Rotational constants (GHZ):      1.5598140      0.4315817      0.3470286
 Standard basis: 6-31+G(d,p) (6D, 7F)
 There are   199 symmetry adapted basis functions of A   symmetry.
 Integral buffers will be    131072 words long.
 Raffenetti 2 integral format.
 Two-electron integral symmetry is turned on.
   199 basis functions,   456 primitive gaussians,   199 cartesian basis functions
    57 alpha electrons       57 beta electrons
       nuclear repulsion energy       978.4092933741 Hartrees.
 NAtoms=    9 NActive=    9 NUniq=    9 SFac= 7.50D-01 NAtFMM=   80 NAOKFM=F Big=F
 One-electron integrals computed using PRISM.
 NBasis=   199 RedAO= T  NBF=   199
 NBsUse=   199 1.00D-06 NBFU=   199
 Harris functional with IExCor=  402 diagonalized for initial guess.
 ExpMin= 7.10D-03 ExpMax= 3.53D+04 ExpMxC= 5.30D+03 IAcc=3 IRadAn=         5 AccDes= 0.00D+00
 HarFok:  IExCor= 402 AccDes= 0.00D+00 IRadAn=         5 IDoV=1
 ScaDFX=  1.000000  1.000000  1.000000  1.000000
 Initial guess orbital symmetries:
       Occupied  (A) (A) (A) (A) (A) (A) (A) (A) (A) (A) (A) (A)
                 (A) (A) (A) (A) (A) (A) (A) (A) (A) (A) (A) (A)
                 (A) (A) (A) (A) (A) (A) (A) (A) (A) (A) (A) (A)
                 (A) (A) (A) (A) (A) (A) (A) (A) (A) (A) (A) (A)
                 (A) (A) (A) (A) (A) (A) (A) (A) (A)
       Virtual   (A) (A) (A) (A) (A) (A) (A) (A) (A) (A) (A) (A)
                 (A) (A) (A) (A) (A) (A) (A) (A) (A) (A) (A) (A)
                 (A) (A) (A) (A) (A) (A) (A) (A) (A) (A) (A) (A)
                 (A) (A) (A) (A) (A) (A) (A) (A) (A) (A) (A) (A)
                 (A) (A) (A) (A) (A) (A) (A) (A) (A) (A) (A) (A)
                 (A) (A) (A) (A) (A) (A) (A) (A) (A) (A) (A) (A)
                 (A) (A) (A) (A) (A) (A) (A) (A) (A) (A) (A) (A)
                 (A) (A) (A) (A) (A) (A) (A) (A) (A) (A) (A) (A)
                 (A) (A) (A) (A) (A) (A) (A) (A) (A) (A) (A) (A)
                 (A) (A) (A) (A) (A) (A) (A) (A) (A) (A) (A) (A)
                 (A) (A) (A) (A) (A) (A) (A) (A) (A) (A) (A) (A)
                 (A) (A) (A) (A) (A) (A) (A) (A) (A) (A)
 The electronic state of the initial guess is 1-A.
 Requested convergence on RMS density matrix=1.00D-04 within 128 cycles.
 Requested convergence on MAX density matrix=1.00D-02.
 Requested convergence on             energy=1.00D-02.
 No special actions if energy rises.
 EnCoef did     3 forward-backward iterations
 SCF Done:  E(RB+HF-LYP) =  -2750.19922726     A.U. after    8 cycles
             Convg  =    0.8775D-04             -V/T =  2.0029
             S**2   =   0.0000

 **********************************************************************

            Population analysis using the SCF density.

 **********************************************************************

 Orbital symmetries:
       Occupied  (A) (A) (A) (A) (A) (A) (A) (A) (A) (A) (A) (A)
                 (A) (A) (A) (A) (A) (A) (A) (A) (A) (A) (A) (A)
                 (A) (A) (A) (A) (A) (A) (A) (A) (A) (A) (A) (A)
                 (A) (A) (A) (A) (A) (A) (A) (A) (A) (A) (A) (A)
                 (A) (A) (A) (A) (A) (A) (A) (A) (A)
       Virtual   (A) (A) (A) (A) (A) (A) (A) (A) (A) (A) (A) (A)
                 (A) (A) (A) (A) (A) (A) (A) (A) (A) (A) (A) (A)
                 (A) (A) (A) (A) (A) (A) (A) (A) (A) (A) (A) (A)
                 (A) (A) (A) (A) (A) (A) (A) (A) (A) (A) (A) (A)
                 (A) (A) (A) (A) (A) (A) (A) (A) (A) (A) (A) (A)
                 (A) (A) (A) (A) (A) (A) (A) (A) (A) (A) (A) (A)
                 (A) (A) (A) (A) (A) (A) (A) (A) (A) (A) (A) (A)
                 (A) (A) (A) (A) (A) (A) (A) (A) (A) (A) (A) (A)
                 (A) (A) (A) (A) (A) (A) (A) (A) (A) (A) (A) (A)
                 (A) (A) (A) (A) (A) (A) (A) (A) (A) (A) (A) (A)
                 (A) (A) (A) (A) (A) (A) (A) (A) (A) (A) (A) (A)
                 (A) (A) (A) (A) (A) (A) (A) (A) (A) (A)
 The electronic state is 1-A.
 Alpha  occ. eigenvalues -- -145.53302-145.48097-145.46501 -77.31649 -19.29961
 Alpha  occ. eigenvalues --  -19.29141 -19.27654 -19.27648 -19.10310 -15.60148
 Alpha  occ. eigenvalues --  -15.54934 -15.53360 -12.73384 -12.73379 -12.73214
 Alpha  occ. eigenvalues --  -12.68153 -12.68117 -12.68038 -12.66614 -12.66578
 Alpha  occ. eigenvalues --  -12.66409  -6.77274  -4.93706  -4.93474  -4.93056
 Alpha  occ. eigenvalues --   -1.97333  -1.92133  -1.90670  -1.25316  -1.25147
 Alpha  occ. eigenvalues --   -1.25006  -1.20357  -1.19787  -1.19237  -1.18530
 Alpha  occ. eigenvalues --   -1.18453  -1.17871  -1.15556  -1.10926  -1.09769
 Alpha  occ. eigenvalues --   -0.91280  -0.84520  -0.68933  -0.57902  -0.55276
 Alpha  occ. eigenvalues --   -0.54487  -0.51229  -0.50455  -0.49471  -0.46906
 Alpha  occ. eigenvalues --   -0.45460  -0.42702  -0.38841  -0.36708  -0.30147
 Alpha  occ. eigenvalues --   -0.28563  -0.28509
 Alpha virt. eigenvalues --   -0.21599  -0.19565  -0.17909  -0.15030  -0.14999
 Alpha virt. eigenvalues --   -0.11256  -0.10527  -0.09853  -0.09282  -0.08790
 Alpha virt. eigenvalues --   -0.08673  -0.08136  -0.07318  -0.06844  -0.06403
 Alpha virt. eigenvalues --   -0.05270  -0.05160  -0.04773  -0.04393  -0.04325
 Alpha virt. eigenvalues --   -0.04067  -0.03928  -0.03832  -0.03754  -0.03163
 Alpha virt. eigenvalues --   -0.02886  -0.02820  -0.02756  -0.02036  -0.00679
 Alpha virt. eigenvalues --    0.01191   0.02368   0.03018   0.03129   0.03557
 Alpha virt. eigenvalues --    0.04612   0.04769   0.05244   0.05721   0.05974
 Alpha virt. eigenvalues --    0.06043   0.07072   0.07151   0.08138   0.08650
 Alpha virt. eigenvalues --    0.09108   0.09288   0.10066   0.10525   0.11195
 Alpha virt. eigenvalues --    0.12831   0.12886   0.14780   0.14998   0.16233
 Alpha virt. eigenvalues --    0.16457   0.16530   0.17569   0.18107   0.20916
 Alpha virt. eigenvalues --    0.21381   0.22316   0.22845   0.23441   0.24457
 Alpha virt. eigenvalues --    0.26193   0.28128   0.28795   0.29848   0.31215
 Alpha virt. eigenvalues --    0.31306   0.33450   0.35771   0.37589   0.39308
 Alpha virt. eigenvalues --    0.42550   0.43242   0.45403   0.47294   0.47389
 Alpha virt. eigenvalues --    0.51491   0.53831   0.56493   0.60334   0.61243
 Alpha virt. eigenvalues --    0.63772   0.84711   0.89749   0.94119   0.99259
 Alpha virt. eigenvalues --    1.04392   1.06944   1.08623   1.10103   1.11255
 Alpha virt. eigenvalues --    1.11297   1.14316   1.15318   1.17570   1.19315
 Alpha virt. eigenvalues --    1.19828   1.21087   1.24061   1.29928   1.34429
 Alpha virt. eigenvalues --    1.35825   1.41122   1.46711   1.47089   1.53213
 Alpha virt. eigenvalues --    1.54257   1.60391   1.65368   1.66153   1.66544
 Alpha virt. eigenvalues --    1.69523   1.73054   1.74297   1.76458   1.78984
 Alpha virt. eigenvalues --    1.82216   1.83849   1.84152   1.86188   1.87443
 Alpha virt. eigenvalues --    1.89439   1.92631   1.95945   2.01022   2.04353
 Alpha virt. eigenvalues --    2.16525   2.17815   2.17951   2.50722   2.67354
 Alpha virt. eigenvalues --    3.00562   3.38853   3.87252   3.89008   4.00835
 Alpha virt. eigenvalues --    4.08757   4.08988
          Condensed to atoms (all electrons):
              1          2          3          4          5          6
     1  O    8.529399  -0.001217   0.001061   0.111200   0.079172  -0.074551
     2  O   -0.001217   8.577407   0.050873  -0.004194   0.094559  -0.000504
     3  Ca   0.001061   0.050873  18.361511  -0.012406  -0.016948   0.005507
     4  P    0.111200  -0.004194  -0.012406  14.415768  -0.018403  -0.159867
     5  Ca   0.079172   0.094559  -0.016948  -0.018403  18.244242   0.022368
     6  O   -0.074551  -0.000504   0.005507  -0.159867   0.022368   8.921167
     7  O    0.000000   0.000578   0.224102  -0.001397   0.001290  -0.005212
     8  Ca   0.003465   0.027654  -0.027477  -0.006698  -0.004200   0.034087
     9  O   -0.001289  -0.050821   0.050856  -0.004104   0.094720  -0.000326
              7          8          9
     1  O    0.000000   0.003465  -0.001289
     2  O    0.000578   0.027654  -0.050821
     3  Ca   0.224102  -0.027477   0.050856
     4  P   -0.001397  -0.006698  -0.004104
     5  Ca   0.001290  -0.004200   0.094720
     6  O   -0.005212   0.034087  -0.000326
     7  O    8.679309   0.224561   0.000582
     8  Ca   0.224561  18.364846   0.027590
     9  O    0.000582   0.027590   8.577123
 Mulliken atomic charges:
              1
     1  O   -0.647240
     2  O   -0.694335
     3  Ca   1.362920
     4  P    0.680100
     5  Ca   1.503200
     6  O   -0.742670
     7  O   -1.123815
     8  Ca   1.356172
     9  O   -0.694332
 Sum of Mulliken charges=   1.00000
 Atomic charges with hydrogens summed into heavy atoms:
              1
     1  O   -0.647240
     2  O   -0.694335
     3  Ca   1.362920
     4  P    0.680100
     5  Ca   1.503200
     6  O   -0.742670
     7  O   -1.123815
     8  Ca   1.356172
     9  O   -0.694332
 Sum of Mulliken charges=   1.00000
 Electronic spatial extent (au):  <R**2>=  2764.5093
 Charge=     1.0000 electrons
 Dipole moment (field-independent basis, Debye):
    X=     0.3574    Y=    -7.6395    Z=     0.0284  Tot=     7.6479
 Quadrupole moment (field-independent basis, Debye-Ang):
   XX=   -63.4184   YY=   -57.0703   ZZ=   -77.2542
   XY=    23.1599   XZ=     0.1499   YZ=    -0.0057
 Traceless Quadrupole moment (field-independent basis, Debye-Ang):
   XX=     2.4959   YY=     8.8440   ZZ=   -11.3399
   XY=    23.1599   XZ=     0.1499   YZ=    -0.0057
 Octapole moment (field-independent basis, Debye-Ang**2):
  XXX=  -107.6920  YYY=   -38.0024  ZZZ=     0.0717  XYY=    27.7481
  XXY=  -109.5340  XXZ=    -0.0769  XZZ=     2.9078  YZZ=    -3.4974
  YYZ=     0.2071  XYZ=    -0.3539
 Hexadecapole moment (field-independent basis, Debye-Ang**3):
 XXXX= -2335.2198 YYYY=  -569.6678 ZZZZ=  -129.5556 XXXY=   483.7111
 XXXZ=     1.9297 YYYX=     2.8975 YYYZ=     0.0342 ZZZX=     0.3222
 ZZZY=     0.0460 XXYY=  -575.9907 XXZZ=  -421.9312 YYZZ=  -130.0450
 XXYZ=     0.0979 YYXZ=     0.2286 ZZXY=     6.1384
 N-N= 9.784092933741D+02 E-N=-8.456817345573D+03  KE= 2.742196289443D+03
 Merz-Kollman atomic radii used.
 Read replacement radii for each type of atom:
 Rad(20) =   1.188000000000D+00
 Atom Element Radius
    1     8    1.40
    2     8    1.40
    3    20    1.19
    4    15    1.80
    5    20    1.19
    6     8    1.40
    7     8    1.40
    8    20    1.19
    9     8    1.40

 **********************************************************************

            Electrostatic Properties Using The SCF Density

 **********************************************************************

       Atomic Center    1 is at   3.410899 -0.653206 -0.007118
       Atomic Center    2 is at  -0.820251 -0.879719 -0.776238
       Atomic Center    3 is at  -3.075751 -0.693975 -0.005068
       Atomic Center    4 is at   3.170531  0.866895 -0.005168
       Atomic Center    5 is at   1.221968 -1.492172  0.005462
       Atomic Center    6 is at   1.613132  1.040417  0.004482
       Atomic Center    7 is at  -2.874928  1.415974 -0.001488
       Atomic Center    8 is at  -0.726227  1.518761  0.004102
       Atomic Center    9 is at  -0.823571 -0.880429  0.778812
     877 points will be used for fitting atomic charges
 Fitting point charges to eletrostatic potential
 Charges from ESP fit, RMS=   0.00499 RRMS=   0.03333:
 Charge=   1.00000 Dipole=     0.0814    -7.7066     0.0262 Tot=     7.7071
              1
     1  O   -0.647997
     2  O   -0.867804
     3  Ca   1.631209
     4  P    0.596997
     5  Ca   1.731907
     6  O   -0.763540
     7  O   -1.478189
     8  Ca   1.666051
     9  O   -0.868632
 -----------------------------------------------------------------

              Electrostatic Properties (Atomic Units)

 -----------------------------------------------------------------
    Center     Electric         -------- Electric Field --------
               Potential          X             Y             Z
 -----------------------------------------------------------------
    1 Atom    -22.175237
    2 Atom    -22.188414
    3 Atom    -80.060524
    4 Atom    -53.900324
    5 Atom    -80.007430
    6 Atom    -22.165585
    7 Atom    -22.360317
    8 Atom    -80.075565
    9 Atom    -22.188381
 -----------------------------------------------------------------
 1\1\GINC-N034\SP\RB3LYP\6-31+G(d,p)\Ca3O5P1(1+)\TIMN\12-Jun-2015\0\\# 
 b3lyp/6-31+G(d,p) int=ultrafine pop=(ReadRadii,MK)\\mol_17.28.20.pdbcc
 _plusQ.z58543.zip.xyz\\1,1\O,0,3.4109,-0.6532,-0.00712\O,0,-0.82025,-0
 .87972,-0.77624\Ca,0,-3.07575,-0.69398,-0.00507\P,0,3.17053,0.8669,-0.
 00517\Ca,0,1.22197,-1.49217,0.00546\O,0,1.61313,1.04042,0.00448\O,0,-2
 .87493,1.41597,-0.00149\Ca,0,-0.72623,1.51876,0.0041\O,0,-0.82357,-0.8
 8043,0.77881\\Version=EM64T-G03RevE.01\State=1-A\HF=-2750.1992273\RMSD
 =8.775e-05\Thermal=0.\Dipole=0.1406031,-3.0056212,0.011178\PG=C01 [X(C
 a3O5P1)]\\@


 The best way to pay for a lovely moment is to enjoy it.
 -- Richard Bach
 Job cpu time:  0 days  0 hours  1 minutes 56.9 seconds.
 File lengths (MBytes):  RWF=     36 Int=      0 D2E=      0 Chk=     11 Scr=      1
 Normal termination of Gaussian 03 at Fri Jun 12 18:08:32 2015.
