 Entering Gaussian System, Link 0=/home/timn/tmp/g03.e01/g03
 Input=mol_17.29.54.pdbcccc_plusQ.z58637.zip.xyz.gjf
 Output=mol_17.29.54.pdbcccc_plusQ.z58637.zip.xyz.out
 Initial command:
 /home/timn/tmp/g03.e01/l1.exe /home/timn/tmp/g03.e01/Gau-13742.inp -scrdir=/home/timn/tmp/g03.e01/
 Default is to use a total of   2 processors:
                                2 via shared-memory
                                1 via Linda
 Entering Link 1 = /home/timn/tmp/g03.e01/l1.exe PID=     13743.
  
 Copyright (c) 1988,1990,1992,1993,1995,1998,2003,2004,2007, Gaussian, Inc.
                  All Rights Reserved.
  
 This is the Gaussian(R) 03 program.  It is based on the
 the Gaussian(R) 98 system (copyright 1998, Gaussian, Inc.),
 the Gaussian(R) 94 system (copyright 1995, Gaussian, Inc.),
 the Gaussian 92(TM) system (copyright 1992, Gaussian, Inc.),
 the Gaussian 90(TM) system (copyright 1990, Gaussian, Inc.),
 the Gaussian 88(TM) system (copyright 1988, Gaussian, Inc.),
 the Gaussian 86(TM) system (copyright 1986, Carnegie Mellon
 University), and the Gaussian 82(TM) system (copyright 1983,
 Carnegie Mellon University). Gaussian is a federally registered
 trademark of Gaussian, Inc.
  
 This software contains proprietary and confidential information,
 including trade secrets, belonging to Gaussian, Inc.
  
 This software is provided under written license and may be
 used, copied, transmitted, or stored only in accord with that
 written license.
  
 The following legend is applicable only to US Government
 contracts under FAR:
  
                    RESTRICTED RIGHTS LEGEND
  
 Use, reproduction and disclosure by the US Government is
 subject to restrictions as set forth in subparagraphs (a)
 and (c) of the Commercial Computer Software - Restricted
 Rights clause in FAR 52.227-19.
  
 Gaussian, Inc.
 340 Quinnipiac St., Bldg. 40, Wallingford CT 06492
  
  
 ---------------------------------------------------------------
 Warning -- This program may not be used in any manner that
 competes with the business of Gaussian, Inc. or will provide
 assistance to any competitor of Gaussian, Inc.  The licensee
 of this program is prohibited from giving any competitor of
 Gaussian, Inc. access to this program.  By using this program,
 the user acknowledges that Gaussian, Inc. is engaged in the
 business of creating and licensing software in the field of
 computational chemistry and represents and warrants to the
 licensee that it is not a competitor of Gaussian, Inc. and that
 it will not use this program in any manner prohibited above.
 ---------------------------------------------------------------
  

 Cite this work as:
 Gaussian 03, Revision E.01,
 M. J. Frisch, G. W. Trucks, H. B. Schlegel, G. E. Scuseria, 
 M. A. Robb, J. R. Cheeseman, J. A. Montgomery, Jr., T. Vreven, 
 K. N. Kudin, J. C. Burant, J. M. Millam, S. S. Iyengar, J. Tomasi, 
 V. Barone, B. Mennucci, M. Cossi, G. Scalmani, N. Rega, 
 G. A. Petersson, H. Nakatsuji, M. Hada, M. Ehara, K. Toyota, 
 R. Fukuda, J. Hasegawa, M. Ishida, T. Nakajima, Y. Honda, O. Kitao, 
 H. Nakai, M. Klene, X. Li, J. E. Knox, H. P. Hratchian, J. B. Cross, 
 V. Bakken, C. Adamo, J. Jaramillo, R. Gomperts, R. E. Stratmann, 
 O. Yazyev, A. J. Austin, R. Cammi, C. Pomelli, J. W. Ochterski, 
 P. Y. Ayala, K. Morokuma, G. A. Voth, P. Salvador, J. J. Dannenberg, 
 V. G. Zakrzewski, S. Dapprich, A. D. Daniels, M. C. Strain, 
 O. Farkas, D. K. Malick, A. D. Rabuck, K. Raghavachari, 
 J. B. Foresman, J. V. Ortiz, Q. Cui, A. G. Baboul, S. Clifford, 
 J. Cioslowski, B. B. Stefanov, G. Liu, A. Liashenko, P. Piskorz, 
 I. Komaromi, R. L. Martin, D. J. Fox, T. Keith, M. A. Al-Laham, 
 C. Y. Peng, A. Nanayakkara, M. Challacombe, P. M. W. Gill, 
 B. Johnson, W. Chen, M. W. Wong, C. Gonzalez, and J. A. Pople, 
 Gaussian, Inc., Wallingford CT, 2004.
 
 ******************************************
 Gaussian 03:  EM64T-G03RevE.01 11-Sep-2007
                12-Jun-2015 
 ******************************************
 %nproc=2
 Will use up to    2 processors via shared memory.
 Default route:  MP2=Direct MaxDisk=2000MB
 ----------------------------------------------------
 # b3lyp/6-31+G(d,p) int=ultrafine pop=(ReadRadii,MK)
 ----------------------------------------------------

 Warning!  SCF SP cutoffs with diffuse functions may be unreliable.
 Consider SCF=Tight

 1/38=1/1;
 2/17=6,18=5,40=1/2;
 3/5=1,6=6,7=111,11=2,16=1,25=1,30=1,74=-5,75=5/1,2,3;
 4//1;
 5/5=2,32=1,38=5/2;
 6/7=2,8=2,9=2,10=2,15=8,20=101,28=1/1,2;
 99/5=1,9=1/99;
 -----------------------------------------
 mol_17.29.54.pdbcccc_plusQ.z58637.zip.xyz
 -----------------------------------------
 Symbolic Z-matrix:
 Charge =  1 Multiplicity = 1
 O                     6.26956   0.01182  -0.00161 
 P                     4.79664   0.00481  -0.00032 
 O                     3.91571  -1.24185  -0.00072 
 O                     3.9035    1.24321  -0.00065 
 Ca                    1.85304  -0.00842   0.00091 
 O                    -0.29054  -0.00737   0.00202 
 Ca                   -2.42454  -0.00299   0.00095 
 O                    -4.6253    0.00152  -0.00015 
 Ca                   -6.69516   0.00488  -0.00118 
 
                          Input orientation:                          
 ---------------------------------------------------------------------
 Center     Atomic     Atomic              Coordinates (Angstroms)
 Number     Number      Type              X           Y           Z
 ---------------------------------------------------------------------
    1          8             0        6.269560    0.011820   -0.001610
    2         15             0        4.796640    0.004810   -0.000320
    3          8             0        3.915710   -1.241850   -0.000720
    4          8             0        3.903500    1.243210   -0.000650
    5         20             0        1.853040   -0.008420    0.000910
    6          8             0       -0.290540   -0.007370    0.002020
    7         20             0       -2.424540   -0.002990    0.000950
    8          8             0       -4.625300    0.001520   -0.000150
    9         20             0       -6.695160    0.004880   -0.001180
 ---------------------------------------------------------------------
                    Distance matrix (angstroms):
                    1          2          3          4          5
     1  O    0.000000
     2  P    1.472937   0.000000
     3  O    2.666889   1.526499   0.000000
     4  O    2.667314   1.526871   2.485090   0.000000
     5  Ca   4.416567   2.943630   2.403323   2.402284   0.000000
     6  O    6.560129   5.087195   4.383661   4.376520   2.143581
     7  Ca   8.694113   7.221184   6.460151   6.449582   4.277583
     8  O   10.894865   9.421941   8.631038   8.618714   6.478348
     9  Ca  12.964722  11.491800  10.683862  10.670757   8.548211
                    6          7          8          9
     6  O    0.000000
     7  Ca   2.134005   0.000000
     8  O    4.334770   2.200765   0.000000
     9  Ca   6.404633   4.270628   2.069863   0.000000
 Stoichiometry    Ca3O5P(1+)
 Framework group  C1[X(Ca3O5P)]
 Deg. of freedom    21
 Full point group                 C1
 Largest Abelian subgroup         C1      NOp   1
 Largest concise Abelian subgroup C1      NOp   1
                         Standard orientation:                         
 ---------------------------------------------------------------------
 Center     Atomic     Atomic              Coordinates (Angstroms)
 Number     Number      Type              X           Y           Z
 ---------------------------------------------------------------------
    1          8             0       -6.269561    0.011817    0.001609
    2         15             0       -4.796641    0.004807    0.000319
    3          8             0       -3.915711   -1.241853    0.000719
    4          8             0       -3.903502    1.243207    0.000649
    5         20             0       -1.853041   -0.008422   -0.000911
    6          8             0        0.290539   -0.007372   -0.002021
    7         20             0        2.424539   -0.002991   -0.000951
    8          8             0        4.625299    0.001519    0.000149
    9         20             0        6.695159    0.004880    0.001179
 ---------------------------------------------------------------------
 Rotational constants (GHZ):     10.2310179      0.1165214      0.1152093
 Standard basis: 6-31+G(d,p) (6D, 7F)
 There are   199 symmetry adapted basis functions of A   symmetry.
 Integral buffers will be    131072 words long.
 Raffenetti 2 integral format.
 Two-electron integral symmetry is turned on.
   199 basis functions,   456 primitive gaussians,   199 cartesian basis functions
    57 alpha electrons       57 beta electrons
       nuclear repulsion energy       770.3383175353 Hartrees.
 NAtoms=    9 NActive=    9 NUniq=    9 SFac= 7.50D-01 NAtFMM=   80 NAOKFM=F Big=F
 One-electron integrals computed using PRISM.
 NBasis=   199 RedAO= T  NBF=   199
 NBsUse=   199 1.00D-06 NBFU=   199
 Harris functional with IExCor=  402 diagonalized for initial guess.
 ExpMin= 7.10D-03 ExpMax= 3.53D+04 ExpMxC= 5.30D+03 IAcc=3 IRadAn=         5 AccDes= 0.00D+00
 HarFok:  IExCor= 402 AccDes= 0.00D+00 IRadAn=         5 IDoV=1
 ScaDFX=  1.000000  1.000000  1.000000  1.000000
 Initial guess orbital symmetries:
       Occupied  (A) (A) (A) (A) (A) (A) (A) (A) (A) (A) (A) (A)
                 (A) (A) (A) (A) (A) (A) (A) (A) (A) (A) (A) (A)
                 (A) (A) (A) (A) (A) (A) (A) (A) (A) (A) (A) (A)
                 (A) (A) (A) (A) (A) (A) (A) (A) (A) (A) (A) (A)
                 (A) (A) (A) (A) (A) (A) (A) (A) (A)
       Virtual   (A) (A) (A) (A) (A) (A) (A) (A) (A) (A) (A) (A)
                 (A) (A) (A) (A) (A) (A) (A) (A) (A) (A) (A) (A)
                 (A) (A) (A) (A) (A) (A) (A) (A) (A) (A) (A) (A)
                 (A) (A) (A) (A) (A) (A) (A) (A) (A) (A) (A) (A)
                 (A) (A) (A) (A) (A) (A) (A) (A) (A) (A) (A) (A)
                 (A) (A) (A) (A) (A) (A) (A) (A) (A) (A) (A) (A)
                 (A) (A) (A) (A) (A) (A) (A) (A) (A) (A) (A) (A)
                 (A) (A) (A) (A) (A) (A) (A) (A) (A) (A) (A) (A)
                 (A) (A) (A) (A) (A) (A) (A) (A) (A) (A) (A) (A)
                 (A) (A) (A) (A) (A) (A) (A) (A) (A) (A) (A) (A)
                 (A) (A) (A) (A) (A) (A) (A) (A) (A) (A) (A) (A)
                 (A) (A) (A) (A) (A) (A) (A) (A) (A) (A)
 The electronic state of the initial guess is 1-A.
 Requested convergence on RMS density matrix=1.00D-04 within 128 cycles.
 Requested convergence on MAX density matrix=1.00D-02.
 Requested convergence on             energy=1.00D-02.
 No special actions if energy rises.
 EnCoef did     5 forward-backward iterations
 EnCoef did   100 forward-backward iterations
 EnCoef did     3 forward-backward iterations
 SCF Done:  E(RB+HF-LYP) =  -2750.19161337     A.U. after   11 cycles
             Convg  =    0.3612D-04             -V/T =  2.0029
             S**2   =   0.0000

 **********************************************************************

            Population analysis using the SCF density.

 **********************************************************************

 Orbital symmetries:
       Occupied  (A) (A) (A) (A) (A) (A) (A) (A) (A) (A) (A) (A)
                 (A) (A) (A) (A) (A) (A) (A) (A) (A) (A) (A) (A)
                 (A) (A) (A) (A) (A) (A) (A) (A) (A) (A) (A) (A)
                 (A) (A) (A) (A) (A) (A) (A) (A) (A) (A) (A) (A)
                 (A) (A) (A) (A) (A) (A) (A) (A) (A)
       Virtual   (A) (A) (A) (A) (A) (A) (A) (A) (A) (A) (A) (A)
                 (A) (A) (A) (A) (A) (A) (A) (A) (A) (A) (A) (A)
                 (A) (A) (A) (A) (A) (A) (A) (A) (A) (A) (A) (A)
                 (A) (A) (A) (A) (A) (A) (A) (A) (A) (A) (A) (A)
                 (A) (A) (A) (A) (A) (A) (A) (A) (A) (A) (A) (A)
                 (A) (A) (A) (A) (A) (A) (A) (A) (A) (A) (A) (A)
                 (A) (A) (A) (A) (A) (A) (A) (A) (A) (A) (A) (A)
                 (A) (A) (A) (A) (A) (A) (A) (A) (A) (A) (A) (A)
                 (A) (A) (A) (A) (A) (A) (A) (A) (A) (A) (A) (A)
                 (A) (A) (A) (A) (A) (A) (A) (A) (A) (A) (A) (A)
                 (A) (A) (A) (A) (A) (A) (A) (A) (A) (A) (A) (A)
                 (A) (A) (A) (A) (A) (A) (A) (A) (A) (A)
 The electronic state is 1-A.
 Alpha  occ. eigenvalues -- -145.59029-145.44121-145.43939 -77.28502 -19.22682
 Alpha  occ. eigenvalues --  -19.22678 -19.21539 -19.17916 -19.11116 -15.65795
 Alpha  occ. eigenvalues --  -15.51138 -15.50866 -12.79013 -12.79013 -12.78879
 Alpha  occ. eigenvalues --  -12.64404 -12.64404 -12.64148 -12.64086 -12.64083
 Alpha  occ. eigenvalues --  -12.63874  -6.73880  -4.90480  -4.89988  -4.89949
 Alpha  occ. eigenvalues --   -2.02658  -1.88647  -1.88246  -1.30171  -1.30171
 Alpha  occ. eigenvalues --   -1.29276  -1.16749  -1.16746  -1.16344  -1.16114
 Alpha  occ. eigenvalues --   -1.16005  -1.15354  -1.11140  -1.04216  -1.03776
 Alpha  occ. eigenvalues --   -0.91929  -0.85133  -0.59374  -0.51041  -0.49848
 Alpha  occ. eigenvalues --   -0.49543  -0.43605  -0.40312  -0.39942  -0.39238
 Alpha  occ. eigenvalues --   -0.38670  -0.36179  -0.35963  -0.35961  -0.31344
 Alpha  occ. eigenvalues --   -0.29507  -0.29456
 Alpha virt. eigenvalues --   -0.26240  -0.16296  -0.16293  -0.15955  -0.13938
 Alpha virt. eigenvalues --   -0.12679  -0.08937  -0.08821  -0.08727  -0.08129
 Alpha virt. eigenvalues --   -0.07924  -0.06442  -0.06081  -0.06023  -0.05787
 Alpha virt. eigenvalues --   -0.05212  -0.04534  -0.03876  -0.03709  -0.03138
 Alpha virt. eigenvalues --   -0.02485  -0.02223  -0.01836  -0.01661  -0.00937
 Alpha virt. eigenvalues --    0.00074   0.00629   0.00722   0.01058   0.01059
 Alpha virt. eigenvalues --    0.02534   0.02580   0.02770   0.03681   0.04471
 Alpha virt. eigenvalues --    0.04478   0.04559   0.05392   0.06501   0.07504
 Alpha virt. eigenvalues --    0.08289   0.08828   0.09717   0.09749   0.10223
 Alpha virt. eigenvalues --    0.11439   0.11567   0.11890   0.11900   0.12086
 Alpha virt. eigenvalues --    0.12629   0.13210   0.15696   0.16762   0.17807
 Alpha virt. eigenvalues --    0.18306   0.18682   0.19497   0.20856   0.21475
 Alpha virt. eigenvalues --    0.21843   0.22974   0.24523   0.24953   0.25773
 Alpha virt. eigenvalues --    0.27189   0.27616   0.27689   0.30335   0.31770
 Alpha virt. eigenvalues --    0.32423   0.34749   0.34888   0.38884   0.39587
 Alpha virt. eigenvalues --    0.43062   0.43148   0.44519   0.46798   0.49648
 Alpha virt. eigenvalues --    0.58622   0.59811   0.60392   0.60507   0.61772
 Alpha virt. eigenvalues --    0.83096   0.93004   0.99291   0.99607   1.09469
 Alpha virt. eigenvalues --    1.11551   1.11605   1.14458   1.17134   1.17804
 Alpha virt. eigenvalues --    1.17998   1.19546   1.19657   1.20644   1.21752
 Alpha virt. eigenvalues --    1.22133   1.25374   1.27815   1.33071   1.36193
 Alpha virt. eigenvalues --    1.41963   1.42302   1.46708   1.61244   1.61738
 Alpha virt. eigenvalues --    1.70328   1.71436   1.72488   1.72632   1.75925
 Alpha virt. eigenvalues --    1.75925   1.76949   1.79319   1.79914   1.82037
 Alpha virt. eigenvalues --    1.82370   1.82372   1.87906   1.89555   1.93189
 Alpha virt. eigenvalues --    1.96058   1.96345   2.06663   2.09287   2.20203
 Alpha virt. eigenvalues --    2.21285   2.26300   2.31555   2.68281   2.77473
 Alpha virt. eigenvalues --    2.83164   3.42128   3.92665   3.95794   3.97338
 Alpha virt. eigenvalues --    4.03197   4.11964
          Condensed to atoms (all electrons):
              1          2          3          4          5          6
     1  O    8.519883   0.434352  -0.166260  -0.166274   0.006444  -0.000371
     2  P    0.434352  12.861435   0.301949   0.305148  -0.060210   0.007921
     3  O   -0.166260   0.301949   8.774639  -0.236570   0.021377   0.001493
     4  O   -0.166274   0.305148  -0.236570   8.773833   0.020415   0.001487
     5  Ca   0.006444  -0.060210   0.021377   0.020415  18.481222   0.227014
     6  O   -0.000371   0.007921   0.001493   0.001487   0.227014   8.809405
     7  Ca   0.000604  -0.007209  -0.002929  -0.003561  -0.076397   0.203370
     8  O    0.000000  -0.000005   0.000000   0.000000   0.003358  -0.002096
     9  Ca   0.000264  -0.000245  -0.000227  -0.000258  -0.077001  -0.005848
              7          8          9
     1  O    0.000604   0.000000   0.000264
     2  P   -0.007209  -0.000005  -0.000245
     3  O   -0.002929   0.000000  -0.000227
     4  O   -0.003561   0.000000  -0.000258
     5  Ca  -0.076397   0.003358  -0.077001
     6  O    0.203370  -0.002096  -0.005848
     7  Ca  18.401055   0.171751  -0.036996
     8  O    0.171751   8.749015   0.255541
     9  Ca  -0.036996   0.255541  18.389453
 Mulliken atomic charges:
              1
     1  O   -0.628642
     2  P    1.156864
     3  O   -0.693471
     4  O   -0.694220
     5  Ca   1.453778
     6  O   -1.242375
     7  Ca   1.350312
     8  O   -1.177563
     9  Ca   1.475317
 Sum of Mulliken charges=   1.00000
 Atomic charges with hydrogens summed into heavy atoms:
              1
     1  O   -0.628642
     2  P    1.156864
     3  O   -0.693471
     4  O   -0.694220
     5  Ca   1.453778
     6  O   -1.242375
     7  Ca   1.350312
     8  O   -1.177563
     9  Ca   1.475317
 Sum of Mulliken charges=   1.00000
 Electronic spatial extent (au):  <R**2>=  7827.8798
 Charge=     1.0000 electrons
 Dipole moment (field-independent basis, Debye):
    X=    36.7261    Y=    -0.0141    Z=     0.0020  Tot=    36.7261
 Quadrupole moment (field-independent basis, Debye-Ang):
   XX=   115.8361   YY=   -84.3359   ZZ=   -72.8956
   XY=     0.3050   XZ=     0.0821   YZ=     0.0003
 Traceless Quadrupole moment (field-independent basis, Debye-Ang):
   XX=   129.6346   YY=   -70.5375   ZZ=   -59.0971
   XY=     0.3050   XZ=     0.0821   YZ=     0.0003
 Octapole moment (field-independent basis, Debye-Ang**2):
  XXX=  2108.3642  YYY=    -0.0483  ZZZ=     0.0100  XYY=    61.3101
  XXY=     0.8880  XXZ=     0.1573  XZZ=    16.0169  YZZ=    -0.0067
  YYZ=    -0.0014  XYZ=    -0.0009
 Hexadecapole moment (field-independent basis, Debye-Ang**3):
 XXXX=  1949.2438 YYYY=  -218.3897 ZZZZ=   -83.1122 XXXY=    12.8167
 XXXZ=     3.4981 YYYX=     0.6064 YYYZ=     0.0008 ZZZX=     0.1162
 ZZZY=     0.0005 XXYY= -1532.1712 XXZZ= -1332.4063 YYZZ=   -48.6160
 XXYZ=     0.0062 YYXZ=     0.0577 ZZXY=     0.1802
 N-N= 7.703383175353D+02 E-N=-8.043511884212D+03  KE= 2.742145557674D+03
 Merz-Kollman atomic radii used.
 Read replacement radii for each type of atom:
 Rad(20) =   1.188000000000D+00
 Atom Element Radius
    1     8    1.40
    2    15    1.80
    3     8    1.40
    4     8    1.40
    5    20    1.19
    6     8    1.40
    7    20    1.19
    8     8    1.40
    9    20    1.19

 **********************************************************************

            Electrostatic Properties Using The SCF Density

 **********************************************************************

       Atomic Center    1 is at  -6.269561  0.011817  0.001609
       Atomic Center    2 is at  -4.796641  0.004807  0.000319
       Atomic Center    3 is at  -3.915711 -1.241853  0.000719
       Atomic Center    4 is at  -3.903502  1.243207  0.000649
       Atomic Center    5 is at  -1.853041 -0.008422 -0.000911
       Atomic Center    6 is at   0.290539 -0.007372 -0.002021
       Atomic Center    7 is at   2.424539 -0.002991 -0.000951
       Atomic Center    8 is at   4.625299  0.001519  0.000149
       Atomic Center    9 is at   6.695159  0.004880  0.001179
     949 points will be used for fitting atomic charges
 Fitting point charges to eletrostatic potential
 Charges from ESP fit, RMS=   0.00463 RRMS=   0.03315:
 Charge=   1.00000 Dipole=    37.7202    -0.0158     0.0013 Tot=    37.7202
              1
     1  O   -0.552769
     2  P    1.306935
     3  O   -0.826679
     4  O   -0.826604
     5  Ca   1.785255
     6  O   -1.772863
     7  Ca   1.873259
     8  O   -1.634912
     9  Ca   1.648376
 -----------------------------------------------------------------

              Electrostatic Properties (Atomic Units)

 -----------------------------------------------------------------
    Center     Electric         -------- Electric Field --------
               Potential          X             Y             Z
 -----------------------------------------------------------------
    1 Atom    -22.252783
    2 Atom    -53.923140
    3 Atom    -22.238158
    4 Atom    -22.238184
    5 Atom    -80.100724
    6 Atom    -22.352410
    7 Atom    -80.099783
    8 Atom    -22.286031
    9 Atom    -79.951871
 -----------------------------------------------------------------
 1\1\GINC-N033\SP\RB3LYP\6-31+G(d,p)\Ca3O5P1(1+)\TIMN\12-Jun-2015\0\\# 
 b3lyp/6-31+G(d,p) int=ultrafine pop=(ReadRadii,MK)\\mol_17.29.54.pdbcc
 cc_plusQ.z58637.zip.xyz\\1,1\O,0,6.26956,0.01182,-0.00161\P,0,4.79664,
 0.00481,-0.00032\O,0,3.91571,-1.24185,-0.00072\O,0,3.9035,1.24321,-0.0
 0065\Ca,0,1.85304,-0.00842,0.00091\O,0,-0.29054,-0.00737,0.00202\Ca,0,
 -2.42454,-0.00299,0.00095\O,0,-4.6253,0.00152,-0.00015\Ca,0,-6.69516,0
 .00488,-0.00118\\Version=EM64T-G03RevE.01\State=1-A\HF=-2750.1916134\R
 MSD=3.612e-05\Thermal=0.\Dipole=-14.4491474,-0.0055393,-0.0007677\PG=C
 01 [X(Ca3O5P1)]\\@


 BOOKS ARE LIGHTHOUSES ERECTED IN THE GREAT SEA OF TIME.
     -- E.P.WHIPPLE
 Job cpu time:  0 days  0 hours  1 minutes 50.3 seconds.
 File lengths (MBytes):  RWF=     36 Int=      0 D2E=      0 Chk=     11 Scr=      1
 Normal termination of Gaussian 03 at Fri Jun 12 18:13:11 2015.
