 Entering Gaussian System, Link 0=/home/timn/tmp/g03.e01/g03
 Input=mol_17.28.35.pdbc_plusQ.z58559.zip.xyz.gjf
 Output=mol_17.28.35.pdbc_plusQ.z58559.zip.xyz.out
 Initial command:
 /home/timn/tmp/g03.e01/l1.exe /home/timn/tmp/g03.e01/Gau-15541.inp -scrdir=/home/timn/tmp/g03.e01/
 Default is to use a total of   2 processors:
                                2 via shared-memory
                                1 via Linda
 Entering Link 1 = /home/timn/tmp/g03.e01/l1.exe PID=     15542.
  
 Copyright (c) 1988,1990,1992,1993,1995,1998,2003,2004,2007, Gaussian, Inc.
                  All Rights Reserved.
  
 This is the Gaussian(R) 03 program.  It is based on the
 the Gaussian(R) 98 system (copyright 1998, Gaussian, Inc.),
 the Gaussian(R) 94 system (copyright 1995, Gaussian, Inc.),
 the Gaussian 92(TM) system (copyright 1992, Gaussian, Inc.),
 the Gaussian 90(TM) system (copyright 1990, Gaussian, Inc.),
 the Gaussian 88(TM) system (copyright 1988, Gaussian, Inc.),
 the Gaussian 86(TM) system (copyright 1986, Carnegie Mellon
 University), and the Gaussian 82(TM) system (copyright 1983,
 Carnegie Mellon University). Gaussian is a federally registered
 trademark of Gaussian, Inc.
  
 This software contains proprietary and confidential information,
 including trade secrets, belonging to Gaussian, Inc.
  
 This software is provided under written license and may be
 used, copied, transmitted, or stored only in accord with that
 written license.
  
 The following legend is applicable only to US Government
 contracts under FAR:
  
                    RESTRICTED RIGHTS LEGEND
  
 Use, reproduction and disclosure by the US Government is
 subject to restrictions as set forth in subparagraphs (a)
 and (c) of the Commercial Computer Software - Restricted
 Rights clause in FAR 52.227-19.
  
 Gaussian, Inc.
 340 Quinnipiac St., Bldg. 40, Wallingford CT 06492
  
  
 ---------------------------------------------------------------
 Warning -- This program may not be used in any manner that
 competes with the business of Gaussian, Inc. or will provide
 assistance to any competitor of Gaussian, Inc.  The licensee
 of this program is prohibited from giving any competitor of
 Gaussian, Inc. access to this program.  By using this program,
 the user acknowledges that Gaussian, Inc. is engaged in the
 business of creating and licensing software in the field of
 computational chemistry and represents and warrants to the
 licensee that it is not a competitor of Gaussian, Inc. and that
 it will not use this program in any manner prohibited above.
 ---------------------------------------------------------------
  

 Cite this work as:
 Gaussian 03, Revision E.01,
 M. J. Frisch, G. W. Trucks, H. B. Schlegel, G. E. Scuseria, 
 M. A. Robb, J. R. Cheeseman, J. A. Montgomery, Jr., T. Vreven, 
 K. N. Kudin, J. C. Burant, J. M. Millam, S. S. Iyengar, J. Tomasi, 
 V. Barone, B. Mennucci, M. Cossi, G. Scalmani, N. Rega, 
 G. A. Petersson, H. Nakatsuji, M. Hada, M. Ehara, K. Toyota, 
 R. Fukuda, J. Hasegawa, M. Ishida, T. Nakajima, Y. Honda, O. Kitao, 
 H. Nakai, M. Klene, X. Li, J. E. Knox, H. P. Hratchian, J. B. Cross, 
 V. Bakken, C. Adamo, J. Jaramillo, R. Gomperts, R. E. Stratmann, 
 O. Yazyev, A. J. Austin, R. Cammi, C. Pomelli, J. W. Ochterski, 
 P. Y. Ayala, K. Morokuma, G. A. Voth, P. Salvador, J. J. Dannenberg, 
 V. G. Zakrzewski, S. Dapprich, A. D. Daniels, M. C. Strain, 
 O. Farkas, D. K. Malick, A. D. Rabuck, K. Raghavachari, 
 J. B. Foresman, J. V. Ortiz, Q. Cui, A. G. Baboul, S. Clifford, 
 J. Cioslowski, B. B. Stefanov, G. Liu, A. Liashenko, P. Piskorz, 
 I. Komaromi, R. L. Martin, D. J. Fox, T. Keith, M. A. Al-Laham, 
 C. Y. Peng, A. Nanayakkara, M. Challacombe, P. M. W. Gill, 
 B. Johnson, W. Chen, M. W. Wong, C. Gonzalez, and J. A. Pople, 
 Gaussian, Inc., Wallingford CT, 2004.
 
 ******************************************
 Gaussian 03:  EM64T-G03RevE.01 11-Sep-2007
                12-Jun-2015 
 ******************************************
 %nproc=2
 Will use up to    2 processors via shared memory.
 Default route:  MP2=Direct MaxDisk=2000MB
 ----------------------------------------------------
 # b3lyp/6-31+G(d,p) int=ultrafine pop=(ReadRadii,MK)
 ----------------------------------------------------

 Warning!  SCF SP cutoffs with diffuse functions may be unreliable.
 Consider SCF=Tight

 1/38=1/1;
 2/17=6,18=5,40=1/2;
 3/5=1,6=6,7=111,11=2,16=1,25=1,30=1,74=-5,75=5/1,2,3;
 4//1;
 5/5=2,32=1,38=5/2;
 6/7=2,8=2,9=2,10=2,15=8,20=101,28=1/1,2;
 99/5=1,9=1/99;
 --------------------------------------
 mol_17.28.35.pdbc_plusQ.z58559.zip.xyz
 --------------------------------------
 Symbolic Z-matrix:
 Charge =  1 Multiplicity = 1
 O                     1.72586  -1.49149   0.00013 
 O                    -0.56476   1.10605  -0.00012 
 Ca                   -2.81833   0.99357   0.00001 
 O                    -2.71287  -1.08835   0.78497 
 O                    -2.71295  -1.08835  -0.78488 
 Ca                   -0.598    -1.30828  -0.00007 
 P                     3.19438  -1.02916   0.00003 
 Ca                    1.43238   1.90255   0.00007 
 O                     3.23512   0.52222  -0.00018 
 
                          Input orientation:                          
 ---------------------------------------------------------------------
 Center     Atomic     Atomic              Coordinates (Angstroms)
 Number     Number      Type              X           Y           Z
 ---------------------------------------------------------------------
    1          8             0        1.725860   -1.491490    0.000130
    2          8             0       -0.564760    1.106050   -0.000120
    3         20             0       -2.818330    0.993570    0.000010
    4          8             0       -2.712870   -1.088350    0.784970
    5          8             0       -2.712950   -1.088350   -0.784880
    6         20             0       -0.598000   -1.308280   -0.000070
    7         15             0        3.194380   -1.029160    0.000030
    8         20             0        1.432380    1.902550    0.000070
    9          8             0        3.235120    0.522220   -0.000180
 ---------------------------------------------------------------------
                    Distance matrix (angstroms):
                    1          2          3          4          5
     1  O    0.000000
     2  O    3.463258   0.000000
     3  Ca   5.179304   2.256375   0.000000
     4  O    4.525574   3.169564   2.227482   0.000000
     5  O    4.525682   3.169536   2.227453   1.569850   0.000000
     6  Ca   2.331071   2.414559   3.198184   2.266568   2.266563
     7  P    1.539578   4.323223   6.343825   5.959466   5.959542
     8  Ca   3.406705   2.150112   4.346813   5.171523   5.171595
     9  O    2.516524   3.844469   6.071773   6.212003   6.212023
                    6          7          8          9
     6  Ca   0.000000
     7  P    3.802638   0.000000
     8  Ca   3.798930   3.420463   0.000000
     9  O    4.247769   1.551915   2.270503   0.000000
 Stoichiometry    Ca3O5P(1+)
 Framework group  C1[X(Ca3O5P)]
 Deg. of freedom    21
 Full point group                 C1
 Largest Abelian subgroup         C1      NOp   1
 Largest concise Abelian subgroup C1      NOp   1
                         Standard orientation:                         
 ---------------------------------------------------------------------
 Center     Atomic     Atomic              Coordinates (Angstroms)
 Number     Number      Type              X           Y           Z
 ---------------------------------------------------------------------
    1          8             0        1.725859   -1.491492    0.000130
    2          8             0       -0.564758    1.106050   -0.000120
    3         20             0       -2.818328    0.993573    0.000010
    4          8             0       -2.712870   -1.088347    0.784970
    5          8             0       -2.712950   -1.088347   -0.784880
    6         20             0       -0.598001   -1.308280   -0.000070
    7         15             0        3.194380   -1.029164    0.000030
    8         20             0        1.432383    1.902548    0.000070
    9          8             0        3.235121    0.522216   -0.000180
 ---------------------------------------------------------------------
 Rotational constants (GHZ):      1.2559017      0.4193915      0.3223051
 Standard basis: 6-31+G(d,p) (6D, 7F)
 There are   199 symmetry adapted basis functions of A   symmetry.
 Integral buffers will be    131072 words long.
 Raffenetti 2 integral format.
 Two-electron integral symmetry is turned on.
   199 basis functions,   456 primitive gaussians,   199 cartesian basis functions
    57 alpha electrons       57 beta electrons
       nuclear repulsion energy       946.9442591201 Hartrees.
 NAtoms=    9 NActive=    9 NUniq=    9 SFac= 7.50D-01 NAtFMM=   80 NAOKFM=F Big=F
 One-electron integrals computed using PRISM.
 NBasis=   199 RedAO= T  NBF=   199
 NBsUse=   199 1.00D-06 NBFU=   199
 Harris functional with IExCor=  402 diagonalized for initial guess.
 ExpMin= 7.10D-03 ExpMax= 3.53D+04 ExpMxC= 5.30D+03 IAcc=3 IRadAn=         5 AccDes= 0.00D+00
 HarFok:  IExCor= 402 AccDes= 0.00D+00 IRadAn=         5 IDoV=1
 ScaDFX=  1.000000  1.000000  1.000000  1.000000
 Initial guess orbital symmetries:
       Occupied  (A) (A) (A) (A) (A) (A) (A) (A) (A) (A) (A) (A)
                 (A) (A) (A) (A) (A) (A) (A) (A) (A) (A) (A) (A)
                 (A) (A) (A) (A) (A) (A) (A) (A) (A) (A) (A) (A)
                 (A) (A) (A) (A) (A) (A) (A) (A) (A) (A) (A) (A)
                 (A) (A) (A) (A) (A) (A) (A) (A) (A)
       Virtual   (A) (A) (A) (A) (A) (A) (A) (A) (A) (A) (A) (A)
                 (A) (A) (A) (A) (A) (A) (A) (A) (A) (A) (A) (A)
                 (A) (A) (A) (A) (A) (A) (A) (A) (A) (A) (A) (A)
                 (A) (A) (A) (A) (A) (A) (A) (A) (A) (A) (A) (A)
                 (A) (A) (A) (A) (A) (A) (A) (A) (A) (A) (A) (A)
                 (A) (A) (A) (A) (A) (A) (A) (A) (A) (A) (A) (A)
                 (A) (A) (A) (A) (A) (A) (A) (A) (A) (A) (A) (A)
                 (A) (A) (A) (A) (A) (A) (A) (A) (A) (A) (A) (A)
                 (A) (A) (A) (A) (A) (A) (A) (A) (A) (A) (A) (A)
                 (A) (A) (A) (A) (A) (A) (A) (A) (A) (A) (A) (A)
                 (A) (A) (A) (A) (A) (A) (A) (A) (A) (A) (A) (A)
                 (A) (A) (A) (A) (A) (A) (A) (A) (A) (A)
 The electronic state of the initial guess is 1-A.
 Requested convergence on RMS density matrix=1.00D-04 within 128 cycles.
 Requested convergence on MAX density matrix=1.00D-02.
 Requested convergence on             energy=1.00D-02.
 No special actions if energy rises.
 EnCoef did     1 forward-backward iterations
 SCF Done:  E(RB+HF-LYP) =  -2750.20951960     A.U. after    8 cycles
             Convg  =    0.5073D-04             -V/T =  2.0029
             S**2   =   0.0000

 **********************************************************************

            Population analysis using the SCF density.

 **********************************************************************

 Orbital symmetries:
       Occupied  (A) (A) (A) (A) (A) (A) (A) (A) (A) (A) (A) (A)
                 (A) (A) (A) (A) (A) (A) (A) (A) (A) (A) (A) (A)
                 (A) (A) (A) (A) (A) (A) (A) (A) (A) (A) (A) (A)
                 (A) (A) (A) (A) (A) (A) (A) (A) (A) (A) (A) (A)
                 (A) (A) (A) (A) (A) (A) (A) (A) (A)
       Virtual   (A) (A) (A) (A) (A) (A) (A) (A) (A) (A) (A) (A)
                 (A) (A) (A) (A) (A) (A) (A) (A) (A) (A) (A) (A)
                 (A) (A) (A) (A) (A) (A) (A) (A) (A) (A) (A) (A)
                 (A) (A) (A) (A) (A) (A) (A) (A) (A) (A) (A) (A)
                 (A) (A) (A) (A) (A) (A) (A) (A) (A) (A) (A) (A)
                 (A) (A) (A) (A) (A) (A) (A) (A) (A) (A) (A) (A)
                 (A) (A) (A) (A) (A) (A) (A) (A) (A) (A) (A) (A)
                 (A) (A) (A) (A) (A) (A) (A) (A) (A) (A) (A) (A)
                 (A) (A) (A) (A) (A) (A) (A) (A) (A) (A) (A) (A)
                 (A) (A) (A) (A) (A) (A) (A) (A) (A) (A) (A) (A)
                 (A) (A) (A) (A) (A) (A) (A) (A) (A) (A) (A) (A)
                 (A) (A) (A) (A) (A) (A) (A) (A) (A) (A)
 The electronic state is 1-A.
 Alpha  occ. eigenvalues -- -145.53396-145.48024-145.44978 -77.30022 -19.27965
 Alpha  occ. eigenvalues --  -19.27481 -19.19914 -19.19909 -19.17881 -15.60298
 Alpha  occ. eigenvalues --  -15.54890 -15.51856 -12.73554 -12.73507 -12.73334
 Alpha  occ. eigenvalues --  -12.68098 -12.68071 -12.67999 -12.65098 -12.65061
 Alpha  occ. eigenvalues --  -12.64931  -6.75541  -4.91985  -4.91757  -4.91321
 Alpha  occ. eigenvalues --   -1.97519  -1.92194  -1.89239  -1.25377  -1.25257
 Alpha  occ. eigenvalues --   -1.24383  -1.20509  -1.19792  -1.19394  -1.17218
 Alpha  occ. eigenvalues --   -1.17081  -1.16763  -1.13769  -1.08258  -1.02445
 Alpha  occ. eigenvalues --   -0.92462  -0.83749  -0.67357  -0.56792  -0.52841
 Alpha  occ. eigenvalues --   -0.52587  -0.45478  -0.43601  -0.43400  -0.41978
 Alpha  occ. eigenvalues --   -0.41118  -0.40749  -0.37991  -0.37313  -0.36419
 Alpha  occ. eigenvalues --   -0.30524  -0.28911
 Alpha virt. eigenvalues --   -0.21329  -0.19764  -0.18064  -0.13533  -0.13442
 Alpha virt. eigenvalues --   -0.11691  -0.10903  -0.10463  -0.08649  -0.08278
 Alpha virt. eigenvalues --   -0.07168  -0.06873  -0.06457  -0.06203  -0.05657
 Alpha virt. eigenvalues --   -0.05516  -0.04723  -0.04635  -0.04614  -0.04285
 Alpha virt. eigenvalues --   -0.03761  -0.03629  -0.03453  -0.03300  -0.03129
 Alpha virt. eigenvalues --   -0.02675  -0.02580  -0.02060  -0.01581   0.00557
 Alpha virt. eigenvalues --    0.00842   0.02236   0.03293   0.03714   0.03967
 Alpha virt. eigenvalues --    0.04367   0.04686   0.05413   0.06070   0.06133
 Alpha virt. eigenvalues --    0.06476   0.07046   0.07467   0.07675   0.08275
 Alpha virt. eigenvalues --    0.08430   0.10254   0.10981   0.11255   0.11331
 Alpha virt. eigenvalues --    0.13157   0.14021   0.14944   0.15748   0.17100
 Alpha virt. eigenvalues --    0.17102   0.17936   0.19388   0.19777   0.20754
 Alpha virt. eigenvalues --    0.21394   0.22646   0.23695   0.25448   0.26718
 Alpha virt. eigenvalues --    0.27620   0.29622   0.31176   0.31676   0.31941
 Alpha virt. eigenvalues --    0.33453   0.35113   0.36312   0.37202   0.38472
 Alpha virt. eigenvalues --    0.40685   0.43727   0.46241   0.48330   0.53216
 Alpha virt. eigenvalues --    0.53707   0.56112   0.56491   0.58892   0.62020
 Alpha virt. eigenvalues --    0.69414   0.83803   0.89920   0.94248   1.03045
 Alpha virt. eigenvalues --    1.06345   1.07895   1.08675   1.10160   1.10498
 Alpha virt. eigenvalues --    1.15092   1.18023   1.18484   1.19153   1.20883
 Alpha virt. eigenvalues --    1.20957   1.24159   1.25780   1.29665   1.32689
 Alpha virt. eigenvalues --    1.38071   1.41650   1.43417   1.51980   1.54157
 Alpha virt. eigenvalues --    1.55003   1.66100   1.66889   1.68525   1.70573
 Alpha virt. eigenvalues --    1.71038   1.76779   1.77256   1.77416   1.79905
 Alpha virt. eigenvalues --    1.82589   1.84480   1.85075   1.85615   1.86862
 Alpha virt. eigenvalues --    1.87733   1.92701   1.94514   2.01969   2.09786
 Alpha virt. eigenvalues --    2.16985   2.21954   2.24284   2.53611   2.68670
 Alpha virt. eigenvalues --    3.07103   3.39454   3.84576   3.90256   3.93976
 Alpha virt. eigenvalues --    4.13723   4.14726
          Condensed to atoms (all electrons):
              1          2          3          4          5          6
     1  O    8.824859  -0.010435   0.009594  -0.000627  -0.000629   0.043529
     2  O   -0.010435   9.017641   0.105146  -0.004351  -0.004348   0.054361
     3  Ca   0.009594   0.105146  18.303808   0.102997   0.102997  -0.047661
     4  O   -0.000627  -0.004351   0.102997   8.484167  -0.032696   0.102249
     5  O   -0.000629  -0.004348   0.102997  -0.032696   8.484149   0.102258
     6  Ca   0.043529   0.054361  -0.047661   0.102249   0.102258  18.336684
     7  P   -0.110013  -0.005757  -0.014943  -0.000224  -0.000224   0.008694
     8  Ca   0.003414   0.192245  -0.009754  -0.000352  -0.000356  -0.006155
     9  O   -0.082306   0.003541   0.004351   0.000044   0.000044  -0.000362
              7          8          9
     1  O   -0.110013   0.003414  -0.082306
     2  O   -0.005757   0.192245   0.003541
     3  Ca  -0.014943  -0.009754   0.004351
     4  O   -0.000224  -0.000352   0.000044
     5  O   -0.000224  -0.000356   0.000044
     6  Ca   0.008694  -0.006155  -0.000362
     7  P   14.541135  -0.033655  -0.050907
     8  Ca  -0.033655  18.240456   0.086640
     9  O   -0.050907   0.086640   8.754407
 Mulliken atomic charges:
              1
     1  O   -0.677386
     2  O   -1.348044
     3  Ca   1.443465
     4  O   -0.651206
     5  O   -0.651194
     6  Ca   1.406403
     7  P    0.665895
     8  Ca   1.527518
     9  O   -0.715451
 Sum of Mulliken charges=   1.00000
 Atomic charges with hydrogens summed into heavy atoms:
              1
     1  O   -0.677386
     2  O   -1.348044
     3  Ca   1.443465
     4  O   -0.651206
     5  O   -0.651194
     6  Ca   1.406403
     7  P    0.665895
     8  Ca   1.527518
     9  O   -0.715451
 Sum of Mulliken charges=   1.00000
 Electronic spatial extent (au):  <R**2>=  2955.7250
 Charge=     1.0000 electrons
 Dipole moment (field-independent basis, Debye):
    X=     1.2577    Y=    12.1937    Z=     0.0006  Tot=    12.2584
 Quadrupole moment (field-independent basis, Debye-Ang):
   XX=   -63.3331   YY=   -46.1921   ZZ=   -77.2339
   XY=   -15.9556   XZ=     0.0022   YZ=     0.0043
 Traceless Quadrupole moment (field-independent basis, Debye-Ang):
   XX=    -1.0801   YY=    16.0609   ZZ=   -14.9809
   XY=   -15.9556   XZ=     0.0022   YZ=     0.0043
 Octapole moment (field-independent basis, Debye-Ang**2):
  XXX=   -87.0006  YYY=    79.9540  ZZZ=     0.0002  XYY=    20.8200
  XXY=   125.6042  XXZ=     0.0054  XZZ=     8.9343  YZZ=    12.7828
  YYZ=     0.0009  XYZ=     0.0028
 Hexadecapole moment (field-independent basis, Debye-Ang**3):
 XXXX= -2459.0997 YYYY=  -630.8972 ZZZZ=  -129.1337 XXXY=  -382.4083
 XXXZ=     0.0178 YYYX=    77.4283 YYYZ=     0.0153 ZZZX=     0.0047
 ZZZY=     0.0077 XXYY=  -482.2627 XXZZ=  -454.9747 YYZZ=  -148.8232
 XXYZ=     0.0135 YYXZ=     0.0022 ZZXY=   -13.7110
 N-N= 9.469442591201D+02 E-N=-8.395463315632D+03  KE= 2.742217554078D+03
 Merz-Kollman atomic radii used.
 Read replacement radii for each type of atom:
 Rad(20) =   1.188000000000D+00
 Atom Element Radius
    1     8    1.40
    2     8    1.40
    3    20    1.19
    4     8    1.40
    5     8    1.40
    6    20    1.19
    7    15    1.80
    8    20    1.19
    9     8    1.40

 **********************************************************************

            Electrostatic Properties Using The SCF Density

 **********************************************************************

       Atomic Center    1 is at   1.725859 -1.491492  0.000130
       Atomic Center    2 is at  -0.564758  1.106050 -0.000120
       Atomic Center    3 is at  -2.818328  0.993573  0.000010
       Atomic Center    4 is at  -2.712870 -1.088347  0.784970
       Atomic Center    5 is at  -2.712950 -1.088347 -0.784880
       Atomic Center    6 is at  -0.598001 -1.308280 -0.000070
       Atomic Center    7 is at   3.194380 -1.029164  0.000030
       Atomic Center    8 is at   1.432383  1.902548  0.000070
       Atomic Center    9 is at   3.235121  0.522216 -0.000180
     886 points will be used for fitting atomic charges
 Fitting point charges to eletrostatic potential
 Charges from ESP fit, RMS=   0.00467 RRMS=   0.03163:
 Charge=   1.00000 Dipole=     1.3121    12.4021     0.0008 Tot=    12.4714
              1
     1  O   -0.668775
     2  O   -1.743126
     3  Ca   1.685391
     4  O   -0.773606
     5  O   -0.773548
     6  Ca   1.677982
     7  P    0.572381
     8  Ca   1.741704
     9  O   -0.718404
 -----------------------------------------------------------------

              Electrostatic Properties (Atomic Units)

 -----------------------------------------------------------------
    Center     Electric         -------- Electric Field --------
               Potential          X             Y             Z
 -----------------------------------------------------------------
    1 Atom    -22.184913
    2 Atom    -22.285702
    3 Atom    -80.060361
    4 Atom    -22.271071
    5 Atom    -22.271072
    6 Atom    -80.090754
    7 Atom    -53.920072
    8 Atom    -80.006598
    9 Atom    -22.189667
 -----------------------------------------------------------------
 1\1\GINC-N035\SP\RB3LYP\6-31+G(d,p)\Ca3O5P1(1+)\TIMN\12-Jun-2015\0\\# 
 b3lyp/6-31+G(d,p) int=ultrafine pop=(ReadRadii,MK)\\mol_17.28.35.pdbc_
 plusQ.z58559.zip.xyz\\1,1\O,0,1.72586,-1.49149,0.00013\O,0,-0.56476,1.
 10605,-0.00012\Ca,0,-2.81833,0.99357,0.00001\O,0,-2.71287,-1.08835,0.7
 8497\O,0,-2.71295,-1.08835,-0.78488\Ca,0,-0.598,-1.30828,-0.00007\P,0,
 3.19438,-1.02916,0.00003\Ca,0,1.43238,1.90255,0.00007\O,0,3.23512,0.52
 222,-0.00018\\Version=EM64T-G03RevE.01\State=1-A\HF=-2750.2095196\RMSD
 =5.073e-05\Thermal=0.\Dipole=0.49482,4.7973694,0.000255\PG=C01 [X(Ca3O
 5P1)]\\@


 A HARD FALL SHOULD MEAN A HIGH BOUNCE 
 IF ONE IS MADE OF THE RIGHT MATERIAL.

                -- THE CHEMIST ANALYST, MARCH 1950
 Job cpu time:  0 days  0 hours  1 minutes 51.2 seconds.
 File lengths (MBytes):  RWF=     36 Int=      0 D2E=      0 Chk=     11 Scr=      1
 Normal termination of Gaussian 03 at Fri Jun 12 18:09:46 2015.
