 Entering Gaussian System, Link 0=/home/timn/tmp/g03.e01/g03
 Input=mol_17.27.8.pdbccc_plusQ.z58529.zip.xyz.gjf
 Output=mol_17.27.8.pdbccc_plusQ.z58529.zip.xyz.out
 Initial command:
 /home/timn/tmp/g03.e01/l1.exe /home/timn/tmp/g03.e01/Gau-13570.inp -scrdir=/home/timn/tmp/g03.e01/
 Default is to use a total of   2 processors:
                                2 via shared-memory
                                1 via Linda
 Entering Link 1 = /home/timn/tmp/g03.e01/l1.exe PID=     13571.
  
 Copyright (c) 1988,1990,1992,1993,1995,1998,2003,2004,2007, Gaussian, Inc.
                  All Rights Reserved.
  
 This is the Gaussian(R) 03 program.  It is based on the
 the Gaussian(R) 98 system (copyright 1998, Gaussian, Inc.),
 the Gaussian(R) 94 system (copyright 1995, Gaussian, Inc.),
 the Gaussian 92(TM) system (copyright 1992, Gaussian, Inc.),
 the Gaussian 90(TM) system (copyright 1990, Gaussian, Inc.),
 the Gaussian 88(TM) system (copyright 1988, Gaussian, Inc.),
 the Gaussian 86(TM) system (copyright 1986, Carnegie Mellon
 University), and the Gaussian 82(TM) system (copyright 1983,
 Carnegie Mellon University). Gaussian is a federally registered
 trademark of Gaussian, Inc.
  
 This software contains proprietary and confidential information,
 including trade secrets, belonging to Gaussian, Inc.
  
 This software is provided under written license and may be
 used, copied, transmitted, or stored only in accord with that
 written license.
  
 The following legend is applicable only to US Government
 contracts under FAR:
  
                    RESTRICTED RIGHTS LEGEND
  
 Use, reproduction and disclosure by the US Government is
 subject to restrictions as set forth in subparagraphs (a)
 and (c) of the Commercial Computer Software - Restricted
 Rights clause in FAR 52.227-19.
  
 Gaussian, Inc.
 340 Quinnipiac St., Bldg. 40, Wallingford CT 06492
  
  
 ---------------------------------------------------------------
 Warning -- This program may not be used in any manner that
 competes with the business of Gaussian, Inc. or will provide
 assistance to any competitor of Gaussian, Inc.  The licensee
 of this program is prohibited from giving any competitor of
 Gaussian, Inc. access to this program.  By using this program,
 the user acknowledges that Gaussian, Inc. is engaged in the
 business of creating and licensing software in the field of
 computational chemistry and represents and warrants to the
 licensee that it is not a competitor of Gaussian, Inc. and that
 it will not use this program in any manner prohibited above.
 ---------------------------------------------------------------
  

 Cite this work as:
 Gaussian 03, Revision E.01,
 M. J. Frisch, G. W. Trucks, H. B. Schlegel, G. E. Scuseria, 
 M. A. Robb, J. R. Cheeseman, J. A. Montgomery, Jr., T. Vreven, 
 K. N. Kudin, J. C. Burant, J. M. Millam, S. S. Iyengar, J. Tomasi, 
 V. Barone, B. Mennucci, M. Cossi, G. Scalmani, N. Rega, 
 G. A. Petersson, H. Nakatsuji, M. Hada, M. Ehara, K. Toyota, 
 R. Fukuda, J. Hasegawa, M. Ishida, T. Nakajima, Y. Honda, O. Kitao, 
 H. Nakai, M. Klene, X. Li, J. E. Knox, H. P. Hratchian, J. B. Cross, 
 V. Bakken, C. Adamo, J. Jaramillo, R. Gomperts, R. E. Stratmann, 
 O. Yazyev, A. J. Austin, R. Cammi, C. Pomelli, J. W. Ochterski, 
 P. Y. Ayala, K. Morokuma, G. A. Voth, P. Salvador, J. J. Dannenberg, 
 V. G. Zakrzewski, S. Dapprich, A. D. Daniels, M. C. Strain, 
 O. Farkas, D. K. Malick, A. D. Rabuck, K. Raghavachari, 
 J. B. Foresman, J. V. Ortiz, Q. Cui, A. G. Baboul, S. Clifford, 
 J. Cioslowski, B. B. Stefanov, G. Liu, A. Liashenko, P. Piskorz, 
 I. Komaromi, R. L. Martin, D. J. Fox, T. Keith, M. A. Al-Laham, 
 C. Y. Peng, A. Nanayakkara, M. Challacombe, P. M. W. Gill, 
 B. Johnson, W. Chen, M. W. Wong, C. Gonzalez, and J. A. Pople, 
 Gaussian, Inc., Wallingford CT, 2004.
 
 ******************************************
 Gaussian 03:  EM64T-G03RevE.01 11-Sep-2007
                12-Jun-2015 
 ******************************************
 %nproc=2
 Will use up to    2 processors via shared memory.
 Default route:  MP2=Direct MaxDisk=2000MB
 ----------------------------------------------------
 # b3lyp/6-31+G(d,p) int=ultrafine pop=(ReadRadii,MK)
 ----------------------------------------------------

 Warning!  SCF SP cutoffs with diffuse functions may be unreliable.
 Consider SCF=Tight

 1/38=1/1;
 2/17=6,18=5,40=1/2;
 3/5=1,6=6,7=111,11=2,16=1,25=1,30=1,74=-5,75=5/1,2,3;
 4//1;
 5/5=2,32=1,38=5/2;
 6/7=2,8=2,9=2,10=2,15=8,20=101,28=1/1,2;
 99/5=1,9=1/99;
 ---------------------------------------
 mol_17.27.8.pdbccc_plusQ.z58529.zip.xyz
 ---------------------------------------
 Symbolic Z-matrix:
 Charge =  1 Multiplicity = 1
 O                     0.16442  -1.44505   0.93062 
 O                     0.49883  -0.02117  -1.70142 
 Ca                   -1.28663  -1.23082  -0.91982 
 O                    -2.56004   0.08784   0.3907 
 O                    -1.25892   0.76262   0.69889 
 P                    -0.04739  -0.04804   1.76345 
 O                     1.16085   0.88104   1.11442 
 Ca                    2.03249  -0.78304  -0.26861 
 Ca                    0.08764   1.94378  -0.70743 
 
                          Input orientation:                          
 ---------------------------------------------------------------------
 Center     Atomic     Atomic              Coordinates (Angstroms)
 Number     Number      Type              X           Y           Z
 ---------------------------------------------------------------------
    1          8             0        0.164420   -1.445050    0.930620
    2          8             0        0.498830   -0.021170   -1.701420
    3         20             0       -1.286630   -1.230820   -0.919820
    4          8             0       -2.560040    0.087840    0.390700
    5          8             0       -1.258920    0.762620    0.698890
    6         15             0       -0.047390   -0.048040    1.763450
    7          8             0        1.160850    0.881040    1.114420
    8         20             0        2.032490   -0.783040   -0.268610
    9         20             0        0.087640    1.943780   -0.707430
 ---------------------------------------------------------------------
                    Distance matrix (angstroms):
                    1          2          3          4          5
     1  O    0.000000
     2  O    3.011129   0.000000
     3  Ca   2.361264   2.293909   0.000000
     4  O    3.172373   3.707497   2.253420   0.000000
     5  O    2.636930   3.076605   2.568033   1.497739   0.000000
     6  P    1.640154   3.507763   3.183492   2.866412   1.805066
     7  O    2.537193   3.030051   3.819456   3.872720   2.458043
     8  Ca   2.316483   2.232824   3.411911   4.720641   3.762778
     9  Ca   3.764741   2.240116   3.465806   3.414764   2.277301
                    6          7          8          9
     6  P    0.000000
     7  O    1.656585   0.000000
     8  Ca   2.999232   2.332743   0.000000
     9  Ca   3.176606   2.366502   3.377951   0.000000
 Stoichiometry    Ca3O5P(1+)
 Framework group  C1[X(Ca3O5P)]
 Deg. of freedom    21
 Full point group                 C1
 Largest Abelian subgroup         C1      NOp   1
 Largest concise Abelian subgroup C1      NOp   1
                         Standard orientation:                         
 ---------------------------------------------------------------------
 Center     Atomic     Atomic              Coordinates (Angstroms)
 Number     Number      Type              X           Y           Z
 ---------------------------------------------------------------------
    1          8             0        0.164412   -1.445051    0.930618
    2          8             0        0.498828   -0.021172   -1.701422
    3         20             0       -1.286637   -1.230816   -0.919822
    4          8             0       -2.560042    0.087849    0.390698
    5          8             0       -1.258920    0.762624    0.698888
    6         15             0       -0.047393   -0.048040    1.763448
    7          8             0        1.160851    0.881035    1.114418
    8         20             0        2.032485   -0.783048   -0.268612
    9         20             0        0.087645    1.943779   -0.707432
 ---------------------------------------------------------------------
 Rotational constants (GHZ):      0.9452903      0.8008713      0.7441726
 Standard basis: 6-31+G(d,p) (6D, 7F)
 There are   199 symmetry adapted basis functions of A   symmetry.
 Integral buffers will be    131072 words long.
 Raffenetti 2 integral format.
 Two-electron integral symmetry is turned on.
   199 basis functions,   456 primitive gaussians,   199 cartesian basis functions
    57 alpha electrons       57 beta electrons
       nuclear repulsion energy      1090.3255034819 Hartrees.
 NAtoms=    9 NActive=    9 NUniq=    9 SFac= 7.50D-01 NAtFMM=   80 NAOKFM=F Big=F
 One-electron integrals computed using PRISM.
 NBasis=   199 RedAO= T  NBF=   199
 NBsUse=   199 1.00D-06 NBFU=   199
 Harris functional with IExCor=  402 diagonalized for initial guess.
 ExpMin= 7.10D-03 ExpMax= 3.53D+04 ExpMxC= 5.30D+03 IAcc=3 IRadAn=         5 AccDes= 0.00D+00
 HarFok:  IExCor= 402 AccDes= 0.00D+00 IRadAn=         5 IDoV=1
 ScaDFX=  1.000000  1.000000  1.000000  1.000000
 Initial guess orbital symmetries:
       Occupied  (A) (A) (A) (A) (A) (A) (A) (A) (A) (A) (A) (A)
                 (A) (A) (A) (A) (A) (A) (A) (A) (A) (A) (A) (A)
                 (A) (A) (A) (A) (A) (A) (A) (A) (A) (A) (A) (A)
                 (A) (A) (A) (A) (A) (A) (A) (A) (A) (A) (A) (A)
                 (A) (A) (A) (A) (A) (A) (A) (A) (A)
       Virtual   (A) (A) (A) (A) (A) (A) (A) (A) (A) (A) (A) (A)
                 (A) (A) (A) (A) (A) (A) (A) (A) (A) (A) (A) (A)
                 (A) (A) (A) (A) (A) (A) (A) (A) (A) (A) (A) (A)
                 (A) (A) (A) (A) (A) (A) (A) (A) (A) (A) (A) (A)
                 (A) (A) (A) (A) (A) (A) (A) (A) (A) (A) (A) (A)
                 (A) (A) (A) (A) (A) (A) (A) (A) (A) (A) (A) (A)
                 (A) (A) (A) (A) (A) (A) (A) (A) (A) (A) (A) (A)
                 (A) (A) (A) (A) (A) (A) (A) (A) (A) (A) (A) (A)
                 (A) (A) (A) (A) (A) (A) (A) (A) (A) (A) (A) (A)
                 (A) (A) (A) (A) (A) (A) (A) (A) (A) (A) (A) (A)
                 (A) (A) (A) (A) (A) (A) (A) (A) (A) (A) (A) (A)
                 (A) (A) (A) (A) (A) (A) (A) (A) (A) (A)
 The electronic state of the initial guess is 1-A.
 Requested convergence on RMS density matrix=1.00D-04 within 128 cycles.
 Requested convergence on MAX density matrix=1.00D-02.
 Requested convergence on             energy=1.00D-02.
 No special actions if energy rises.
 EnCoef did     3 forward-backward iterations
 SCF Done:  E(RB+HF-LYP) =  -2750.19417665     A.U. after    9 cycles
             Convg  =    0.4249D-04             -V/T =  2.0029
             S**2   =   0.0000

 **********************************************************************

            Population analysis using the SCF density.

 **********************************************************************

 Orbital symmetries:
       Occupied  (A) (A) (A) (A) (A) (A) (A) (A) (A) (A) (A) (A)
                 (A) (A) (A) (A) (A) (A) (A) (A) (A) (A) (A) (A)
                 (A) (A) (A) (A) (A) (A) (A) (A) (A) (A) (A) (A)
                 (A) (A) (A) (A) (A) (A) (A) (A) (A) (A) (A) (A)
                 (A) (A) (A) (A) (A) (A) (A) (A) (A)
       Virtual   (A) (A) (A) (A) (A) (A) (A) (A) (A) (A) (A) (A)
                 (A) (A) (A) (A) (A) (A) (A) (A) (A) (A) (A) (A)
                 (A) (A) (A) (A) (A) (A) (A) (A) (A) (A) (A) (A)
                 (A) (A) (A) (A) (A) (A) (A) (A) (A) (A) (A) (A)
                 (A) (A) (A) (A) (A) (A) (A) (A) (A) (A) (A) (A)
                 (A) (A) (A) (A) (A) (A) (A) (A) (A) (A) (A) (A)
                 (A) (A) (A) (A) (A) (A) (A) (A) (A) (A) (A) (A)
                 (A) (A) (A) (A) (A) (A) (A) (A) (A) (A) (A) (A)
                 (A) (A) (A) (A) (A) (A) (A) (A) (A) (A) (A) (A)
                 (A) (A) (A) (A) (A) (A) (A) (A) (A) (A) (A) (A)
                 (A) (A) (A) (A) (A) (A) (A) (A) (A) (A) (A) (A)
                 (A) (A) (A) (A) (A) (A) (A) (A) (A) (A)
 The electronic state is 1-A.
 Alpha  occ. eigenvalues -- -145.51664-145.51592-145.48716 -77.27299 -19.29100
 Alpha  occ. eigenvalues --  -19.23564 -19.23482 -19.23302 -19.17355 -15.58476
 Alpha  occ. eigenvalues --  -15.58418 -15.55564 -12.71690 -12.71652 -12.71625
 Alpha  occ. eigenvalues --  -12.71604 -12.71590 -12.71545 -12.68792 -12.68758
 Alpha  occ. eigenvalues --  -12.68658  -6.72395  -4.88801  -4.88687  -4.88153
 Alpha  occ. eigenvalues --   -1.95720  -1.95665  -1.92872  -1.23974  -1.23549
 Alpha  occ. eigenvalues --   -1.23410  -1.23059  -1.23025  -1.22525  -1.21071
 Alpha  occ. eigenvalues --   -1.20546  -1.19976  -1.13377  -1.07560  -1.03103
 Alpha  occ. eigenvalues --   -0.92325  -0.90596  -0.65536  -0.55299  -0.53392
 Alpha  occ. eigenvalues --   -0.51717  -0.49581  -0.46911  -0.44118  -0.42324
 Alpha  occ. eigenvalues --   -0.40294  -0.37801  -0.37637  -0.36827  -0.35225
 Alpha  occ. eigenvalues --   -0.33502  -0.32028
 Alpha virt. eigenvalues --   -0.20902  -0.19064  -0.17421  -0.13458  -0.12278
 Alpha virt. eigenvalues --   -0.11627  -0.10496  -0.10036  -0.08914  -0.08220
 Alpha virt. eigenvalues --   -0.07981  -0.06859  -0.06591  -0.06168  -0.05829
 Alpha virt. eigenvalues --   -0.05026  -0.04875  -0.04697  -0.04538  -0.04330
 Alpha virt. eigenvalues --   -0.04009  -0.03630  -0.03307  -0.03184  -0.02971
 Alpha virt. eigenvalues --   -0.02965  -0.02005  -0.00869   0.00735   0.01604
 Alpha virt. eigenvalues --    0.01797   0.02563   0.03300   0.04145   0.04757
 Alpha virt. eigenvalues --    0.04941   0.05316   0.05712   0.05830   0.06044
 Alpha virt. eigenvalues --    0.06392   0.06751   0.07236   0.07597   0.08122
 Alpha virt. eigenvalues --    0.08942   0.09522   0.09873   0.10453   0.11381
 Alpha virt. eigenvalues --    0.13091   0.14203   0.14815   0.17087   0.17801
 Alpha virt. eigenvalues --    0.18451   0.19743   0.20382   0.21062   0.22362
 Alpha virt. eigenvalues --    0.22980   0.24036   0.24363   0.26034   0.26755
 Alpha virt. eigenvalues --    0.28257   0.29332   0.31421   0.33106   0.33390
 Alpha virt. eigenvalues --    0.34388   0.35322   0.35628   0.37004   0.38646
 Alpha virt. eigenvalues --    0.40216   0.42025   0.43856   0.49174   0.51866
 Alpha virt. eigenvalues --    0.52350   0.57988   0.61337   0.64204   0.65866
 Alpha virt. eigenvalues --    0.78173   0.83732   0.86173   0.90813   0.94368
 Alpha virt. eigenvalues --    1.09187   1.11331   1.13658   1.15698   1.15895
 Alpha virt. eigenvalues --    1.17812   1.19017   1.19236   1.21818   1.21923
 Alpha virt. eigenvalues --    1.23177   1.24331   1.28700   1.31225   1.33709
 Alpha virt. eigenvalues --    1.36859   1.51240   1.53372   1.54930   1.57596
 Alpha virt. eigenvalues --    1.60304   1.63666   1.67907   1.70949   1.73702
 Alpha virt. eigenvalues --    1.75146   1.80603   1.82490   1.84107   1.84836
 Alpha virt. eigenvalues --    1.85763   1.86564   1.88291   1.90447   1.91838
 Alpha virt. eigenvalues --    1.92721   1.97216   1.98866   2.01419   2.10465
 Alpha virt. eigenvalues --    2.15554   2.24701   2.32348   2.48549   2.57883
 Alpha virt. eigenvalues --    3.09314   3.50971   3.99669   4.07031   4.15201
 Alpha virt. eigenvalues --    4.23965   4.36716
          Condensed to atoms (all electrons):
              1          2          3          4          5          6
     1  O    8.931121   0.029776   0.054889   0.031290   0.006810  -0.153051
     2  O    0.029776   8.860733   0.108746  -0.010413   0.019095  -0.042570
     3  Ca   0.054889   0.108746  18.368470   0.174206  -0.022271  -0.050950
     4  O    0.031290  -0.010413   0.174206   8.558831  -0.112476  -0.066372
     5  O    0.006810   0.019095  -0.022271  -0.112476   8.596556  -0.060786
     6  P   -0.153051  -0.042570  -0.050950  -0.066372  -0.060786  14.407825
     7  O    0.037833   0.028182   0.013737   0.009943   0.085872  -0.144404
     8  Ca   0.064530   0.133717  -0.054233   0.006850   0.012714   0.019674
     9  Ca   0.016074   0.134278  -0.010300  -0.022656   0.064281  -0.010999
              7          8          9
     1  O    0.037833   0.064530   0.016074
     2  O    0.028182   0.133717   0.134278
     3  Ca   0.013737  -0.054233  -0.010300
     4  O    0.009943   0.006850  -0.022656
     5  O    0.085872   0.012714   0.064281
     6  P   -0.144404   0.019674  -0.010999
     7  O    8.848608   0.067803   0.053981
     8  Ca   0.067803  18.391609  -0.071494
     9  Ca   0.053981  -0.071494  18.353632
 Mulliken atomic charges:
              1
     1  O   -1.019274
     2  O   -1.261544
     3  Ca   1.417707
     4  O   -0.569204
     5  O   -0.589796
     6  P    1.101633
     7  O   -1.001554
     8  Ca   1.428829
     9  Ca   1.493203
 Sum of Mulliken charges=   1.00000
 Atomic charges with hydrogens summed into heavy atoms:
              1
     1  O   -1.019274
     2  O   -1.261544
     3  Ca   1.417707
     4  O   -0.569204
     5  O   -0.589796
     6  P    1.101633
     7  O   -1.001554
     8  Ca   1.428829
     9  Ca   1.493203
 Sum of Mulliken charges=   1.00000
 Electronic spatial extent (au):  <R**2>=  1782.0658
 Charge=     1.0000 electrons
 Dipole moment (field-independent basis, Debye):
    X=     6.9356    Y=    -0.1525    Z=    -8.5383  Tot=    11.0013
 Quadrupole moment (field-independent basis, Debye-Ang):
   XX=   -58.4007   YY=   -40.8371   ZZ=   -88.3288
   XY=     0.3861   XZ=     9.1524   YZ=    -0.3826
 Traceless Quadrupole moment (field-independent basis, Debye-Ang):
   XX=     4.1215   YY=    21.6851   ZZ=   -25.8066
   XY=     0.3861   XZ=     9.1524   YZ=    -0.3826
 Octapole moment (field-independent basis, Debye-Ang**2):
  XXX=   106.5065  YYY=    50.9223  ZZZ=    -6.1046  XYY=    -3.9922
  XXY=   -53.9075  XXZ=   -40.7273  XZZ=   -18.1699  YZZ=    -1.2217
  YYZ=   -56.6276  XYZ=   -12.6889
 Hexadecapole moment (field-independent basis, Debye-Ang**3):
 XXXX=  -740.7866 YYYY=  -407.8184 ZZZZ=  -730.5669 XXXY=   -30.3528
 XXXZ=    27.7750 YYYX=    19.4353 YYYZ=   -20.0211 ZZZX=    44.2368
 ZZZY=     1.6539 XXYY=  -182.2206 XXZZ=  -239.9795 YYZZ=  -179.8654
 XXYZ=    16.5481 YYXZ=    12.8817 ZZXY=     7.7707
 N-N= 1.090325503482D+03 E-N=-8.681163971702D+03  KE= 2.742202489138D+03
 Merz-Kollman atomic radii used.
 Read replacement radii for each type of atom:
 Rad(20) =   1.188000000000D+00
 Atom Element Radius
    1     8    1.40
    2     8    1.40
    3    20    1.19
    4     8    1.40
    5     8    1.40
    6    15    1.80
    7     8    1.40
    8    20    1.19
    9    20    1.19

 **********************************************************************

            Electrostatic Properties Using The SCF Density

 **********************************************************************

       Atomic Center    1 is at   0.164412 -1.445051  0.930618
       Atomic Center    2 is at   0.498828 -0.021172 -1.701422
       Atomic Center    3 is at  -1.286637 -1.230816 -0.919822
       Atomic Center    4 is at  -2.560042  0.087849  0.390698
       Atomic Center    5 is at  -1.258920  0.762624  0.698888
       Atomic Center    6 is at  -0.047393 -0.048040  1.763448
       Atomic Center    7 is at   1.160851  0.881035  1.114418
       Atomic Center    8 is at   2.032485 -0.783048 -0.268612
       Atomic Center    9 is at   0.087645  1.943779 -0.707432
     731 points will be used for fitting atomic charges
 Fitting point charges to eletrostatic potential
 Charges from ESP fit, RMS=   0.00539 RRMS=   0.03345:
 Charge=   1.00000 Dipole=     7.1107    -0.0835    -8.6981 Tot=    11.2351
              1
     1  O   -0.902037
     2  O   -1.618627
     3  Ca   1.645828
     4  O   -0.634019
     5  O   -0.411562
     6  P    0.550437
     7  O   -0.932849
     8  Ca   1.661828
     9  Ca   1.641001
 -----------------------------------------------------------------

              Electrostatic Properties (Atomic Units)

 -----------------------------------------------------------------
    Center     Electric         -------- Electric Field --------
               Potential          X             Y             Z
 -----------------------------------------------------------------
    1 Atom    -22.231461
    2 Atom    -22.289714
    3 Atom    -80.053921
    4 Atom    -22.239593
    5 Atom    -22.175657
    6 Atom    -53.943343
    7 Atom    -22.225775
    8 Atom    -80.025060
    9 Atom    -80.024280
 -----------------------------------------------------------------
 1\1\GINC-N031\SP\RB3LYP\6-31+G(d,p)\Ca3O5P1(1+)\TIMN\12-Jun-2015\0\\# 
 b3lyp/6-31+G(d,p) int=ultrafine pop=(ReadRadii,MK)\\mol_17.27.8.pdbccc
 _plusQ.z58529.zip.xyz\\1,1\O,0,0.16442,-1.44505,0.93062\O,0,0.49883,-0
 .02117,-1.70142\Ca,0,-1.28663,-1.23082,-0.91982\O,0,-2.56004,0.08784,0
 .3907\O,0,-1.25892,0.76262,0.69889\P,0,-0.04739,-0.04804,1.76345\O,0,1
 .16085,0.88104,1.11442\Ca,0,2.03249,-0.78304,-0.26861\Ca,0,0.08764,1.9
 4378,-0.70743\\Version=EM64T-G03RevE.01\State=1-A\HF=-2750.1941767\RMS
 D=4.249e-05\Thermal=0.\Dipole=2.7286746,-0.0599835,-3.3592194\PG=C01 [
 X(Ca3O5P1)]\\@


 THE TEST OF A FIRST RATE INTELLIGENCE IS THE ABILITY TO HOLD TWO OPPOSED
 IDEAS IN THE MIND AT THE SAME TIME, AND STILL RETAIN THE ABILITY TO FUNCTION.
 ONE SHOULD, FOR EXAMPLE, BE ABLE TO SEE THAT THINGS ARE HOPELESS AND YET BE
 DETERMINED TO MAKE THEM OTHERWISE.

                                                       -- F. SCOTT FITZGERALD
 Job cpu time:  0 days  0 hours  2 minutes 27.7 seconds.
 File lengths (MBytes):  RWF=     36 Int=      0 D2E=      0 Chk=     11 Scr=      1
 Normal termination of Gaussian 03 at Fri Jun 12 18:08:28 2015.
