 Entering Gaussian System, Link 0=/home/timn/tmp/g03.e01/g03
 Input=mol_17.23.9.pdbc_plusQ.z58264.zip.xyz.gjf
 Output=mol_17.23.9.pdbc_plusQ.z58264.zip.xyz.out
 Initial command:
 /home/timn/tmp/g03.e01/l1.exe /home/timn/tmp/g03.e01/Gau-19987.inp -scrdir=/home/timn/tmp/g03.e01/
 Default is to use a total of   2 processors:
                                2 via shared-memory
                                1 via Linda
 Entering Link 1 = /home/timn/tmp/g03.e01/l1.exe PID=     19988.
  
 Copyright (c) 1988,1990,1992,1993,1995,1998,2003,2004,2007, Gaussian, Inc.
                  All Rights Reserved.
  
 This is the Gaussian(R) 03 program.  It is based on the
 the Gaussian(R) 98 system (copyright 1998, Gaussian, Inc.),
 the Gaussian(R) 94 system (copyright 1995, Gaussian, Inc.),
 the Gaussian 92(TM) system (copyright 1992, Gaussian, Inc.),
 the Gaussian 90(TM) system (copyright 1990, Gaussian, Inc.),
 the Gaussian 88(TM) system (copyright 1988, Gaussian, Inc.),
 the Gaussian 86(TM) system (copyright 1986, Carnegie Mellon
 University), and the Gaussian 82(TM) system (copyright 1983,
 Carnegie Mellon University). Gaussian is a federally registered
 trademark of Gaussian, Inc.
  
 This software contains proprietary and confidential information,
 including trade secrets, belonging to Gaussian, Inc.
  
 This software is provided under written license and may be
 used, copied, transmitted, or stored only in accord with that
 written license.
  
 The following legend is applicable only to US Government
 contracts under FAR:
  
                    RESTRICTED RIGHTS LEGEND
  
 Use, reproduction and disclosure by the US Government is
 subject to restrictions as set forth in subparagraphs (a)
 and (c) of the Commercial Computer Software - Restricted
 Rights clause in FAR 52.227-19.
  
 Gaussian, Inc.
 340 Quinnipiac St., Bldg. 40, Wallingford CT 06492
  
  
 ---------------------------------------------------------------
 Warning -- This program may not be used in any manner that
 competes with the business of Gaussian, Inc. or will provide
 assistance to any competitor of Gaussian, Inc.  The licensee
 of this program is prohibited from giving any competitor of
 Gaussian, Inc. access to this program.  By using this program,
 the user acknowledges that Gaussian, Inc. is engaged in the
 business of creating and licensing software in the field of
 computational chemistry and represents and warrants to the
 licensee that it is not a competitor of Gaussian, Inc. and that
 it will not use this program in any manner prohibited above.
 ---------------------------------------------------------------
  

 Cite this work as:
 Gaussian 03, Revision E.01,
 M. J. Frisch, G. W. Trucks, H. B. Schlegel, G. E. Scuseria, 
 M. A. Robb, J. R. Cheeseman, J. A. Montgomery, Jr., T. Vreven, 
 K. N. Kudin, J. C. Burant, J. M. Millam, S. S. Iyengar, J. Tomasi, 
 V. Barone, B. Mennucci, M. Cossi, G. Scalmani, N. Rega, 
 G. A. Petersson, H. Nakatsuji, M. Hada, M. Ehara, K. Toyota, 
 R. Fukuda, J. Hasegawa, M. Ishida, T. Nakajima, Y. Honda, O. Kitao, 
 H. Nakai, M. Klene, X. Li, J. E. Knox, H. P. Hratchian, J. B. Cross, 
 V. Bakken, C. Adamo, J. Jaramillo, R. Gomperts, R. E. Stratmann, 
 O. Yazyev, A. J. Austin, R. Cammi, C. Pomelli, J. W. Ochterski, 
 P. Y. Ayala, K. Morokuma, G. A. Voth, P. Salvador, J. J. Dannenberg, 
 V. G. Zakrzewski, S. Dapprich, A. D. Daniels, M. C. Strain, 
 O. Farkas, D. K. Malick, A. D. Rabuck, K. Raghavachari, 
 J. B. Foresman, J. V. Ortiz, Q. Cui, A. G. Baboul, S. Clifford, 
 J. Cioslowski, B. B. Stefanov, G. Liu, A. Liashenko, P. Piskorz, 
 I. Komaromi, R. L. Martin, D. J. Fox, T. Keith, M. A. Al-Laham, 
 C. Y. Peng, A. Nanayakkara, M. Challacombe, P. M. W. Gill, 
 B. Johnson, W. Chen, M. W. Wong, C. Gonzalez, and J. A. Pople, 
 Gaussian, Inc., Wallingford CT, 2004.
 
 ******************************************
 Gaussian 03:  EM64T-G03RevE.01 11-Sep-2007
                12-Jun-2015 
 ******************************************
 %nproc=2
 Will use up to    2 processors via shared memory.
 Default route:  MP2=Direct MaxDisk=2000MB
 ----------------------------------------------------
 # b3lyp/6-31+G(d,p) int=ultrafine pop=(ReadRadii,MK)
 ----------------------------------------------------

 Warning!  SCF SP cutoffs with diffuse functions may be unreliable.
 Consider SCF=Tight

 1/38=1/1;
 2/17=6,18=5,40=1/2;
 3/5=1,6=6,7=111,11=2,16=1,25=1,30=1,74=-5,75=5/1,2,3;
 4//1;
 5/5=2,32=1,38=5/2;
 6/7=2,8=2,9=2,10=2,15=8,20=101,28=1/1,2;
 99/5=1,9=1/99;
 -------------------------------------
 mol_17.23.9.pdbc_plusQ.z58264.zip.xyz
 -------------------------------------
 Symbolic Z-matrix:
 Charge =  1 Multiplicity = 1
 O                    -1.23763   1.28518  -0.44068 
 P                    -1.06534   0.00002  -1.53064 
 Ca                   -1.6257   -0.00003   1.38996 
 O                     0.59001   0.00002  -1.65623 
 O                    -1.2376   -1.28519  -0.44073 
 Ca                    1.05409  -1.67182  -0.13838 
 O                     0.60836  -0.00001   1.52125 
 O                     2.06824   0.        1.10324 
 Ca                    1.05406   1.67184  -0.13834 
 
                          Input orientation:                          
 ---------------------------------------------------------------------
 Center     Atomic     Atomic              Coordinates (Angstroms)
 Number     Number      Type              X           Y           Z
 ---------------------------------------------------------------------
    1          8             0       -1.237630    1.285180   -0.440680
    2         15             0       -1.065340    0.000020   -1.530640
    3         20             0       -1.625700   -0.000030    1.389960
    4          8             0        0.590010    0.000020   -1.656230
    5          8             0       -1.237600   -1.285190   -0.440730
    6         20             0        1.054090   -1.671820   -0.138380
    7          8             0        0.608360   -0.000010    1.521250
    8          8             0        2.068240    0.000000    1.103240
    9         20             0        1.054060    1.671840   -0.138340
 ---------------------------------------------------------------------
                    Distance matrix (angstroms):
                    1          2          3          4          5
     1  O    0.000000
     2  P    1.693911   0.000000
     3  Ca   2.270155   2.973871   0.000000
     4  O    2.543514   1.660107   3.766782   0.000000
     5  O    2.570370   1.693913   2.270173   2.543494   0.000000
     6  Ca   3.753294   3.037338   3.508843   2.305274   2.343660
     7  O    2.984721   3.480705   2.237914   3.177533   2.984731
     8  O    3.868353   4.093488   3.705051   3.130469   3.868350
     9  Ca   2.343663   3.037324   3.508841   2.305280   3.753288
                    6          7          8          9
     6  Ca   0.000000
     7  O    2.397498   0.000000
     8  O    2.316269   1.518546   0.000000
     9  Ca   3.343660   2.397492   2.316275   0.000000
 Stoichiometry    Ca3O5P(1+)
 Framework group  C1[X(Ca3O5P)]
 Deg. of freedom    21
 Full point group                 C1
 Largest Abelian subgroup         C1      NOp   1
 Largest concise Abelian subgroup C1      NOp   1
                         Standard orientation:                         
 ---------------------------------------------------------------------
 Center     Atomic     Atomic              Coordinates (Angstroms)
 Number     Number      Type              X           Y           Z
 ---------------------------------------------------------------------
    1          8             0       -1.237632    1.285176   -0.440680
    2         15             0       -1.065339    0.000017   -1.530640
    3         20             0       -1.625699   -0.000034    1.389960
    4          8             0        0.590011    0.000020   -1.656230
    5          8             0       -1.237597   -1.285194   -0.440730
    6         20             0        1.054094   -1.671819   -0.138380
    7          8             0        0.608361   -0.000010    1.521250
    8          8             0        2.068241    0.000004    1.103240
    9         20             0        1.054057    1.671841   -0.138340
 ---------------------------------------------------------------------
 Rotational constants (GHZ):      0.9462806      0.8199657      0.7962082
 Standard basis: 6-31+G(d,p) (6D, 7F)
 There are   199 symmetry adapted basis functions of A   symmetry.
 Integral buffers will be    131072 words long.
 Raffenetti 2 integral format.
 Two-electron integral symmetry is turned on.
   199 basis functions,   456 primitive gaussians,   199 cartesian basis functions
    57 alpha electrons       57 beta electrons
       nuclear repulsion energy      1104.9657008161 Hartrees.
 NAtoms=    9 NActive=    9 NUniq=    9 SFac= 7.50D-01 NAtFMM=   80 NAOKFM=F Big=F
 One-electron integrals computed using PRISM.
 NBasis=   199 RedAO= T  NBF=   199
 NBsUse=   199 1.00D-06 NBFU=   199
 Harris functional with IExCor=  402 diagonalized for initial guess.
 ExpMin= 7.10D-03 ExpMax= 3.53D+04 ExpMxC= 5.30D+03 IAcc=3 IRadAn=         5 AccDes= 0.00D+00
 HarFok:  IExCor= 402 AccDes= 0.00D+00 IRadAn=         5 IDoV=1
 ScaDFX=  1.000000  1.000000  1.000000  1.000000
 Initial guess orbital symmetries:
       Occupied  (A) (A) (A) (A) (A) (A) (A) (A) (A) (A) (A) (A)
                 (A) (A) (A) (A) (A) (A) (A) (A) (A) (A) (A) (A)
                 (A) (A) (A) (A) (A) (A) (A) (A) (A) (A) (A) (A)
                 (A) (A) (A) (A) (A) (A) (A) (A) (A) (A) (A) (A)
                 (A) (A) (A) (A) (A) (A) (A) (A) (A)
       Virtual   (A) (A) (A) (A) (A) (A) (A) (A) (A) (A) (A) (A)
                 (A) (A) (A) (A) (A) (A) (A) (A) (A) (A) (A) (A)
                 (A) (A) (A) (A) (A) (A) (A) (A) (A) (A) (A) (A)
                 (A) (A) (A) (A) (A) (A) (A) (A) (A) (A) (A) (A)
                 (A) (A) (A) (A) (A) (A) (A) (A) (A) (A) (A) (A)
                 (A) (A) (A) (A) (A) (A) (A) (A) (A) (A) (A) (A)
                 (A) (A) (A) (A) (A) (A) (A) (A) (A) (A) (A) (A)
                 (A) (A) (A) (A) (A) (A) (A) (A) (A) (A) (A) (A)
                 (A) (A) (A) (A) (A) (A) (A) (A) (A) (A) (A) (A)
                 (A) (A) (A) (A) (A) (A) (A) (A) (A) (A) (A) (A)
                 (A) (A) (A) (A) (A) (A) (A) (A) (A) (A) (A) (A)
                 (A) (A) (A) (A) (A) (A) (A) (A) (A) (A)
 The electronic state of the initial guess is 1-A.
 Requested convergence on RMS density matrix=1.00D-04 within 128 cycles.
 Requested convergence on MAX density matrix=1.00D-02.
 Requested convergence on             energy=1.00D-02.
 No special actions if energy rises.
 SCF Done:  E(RB+HF-LYP) =  -2750.24881793     A.U. after    7 cycles
             Convg  =    0.5381D-04             -V/T =  2.0029
             S**2   =   0.0000

 **********************************************************************

            Population analysis using the SCF density.

 **********************************************************************

 Orbital symmetries:
       Occupied  (A) (A) (A) (A) (A) (A) (A) (A) (A) (A) (A) (A)
                 (A) (A) (A) (A) (A) (A) (A) (A) (A) (A) (A) (A)
                 (A) (A) (A) (A) (A) (A) (A) (A) (A) (A) (A) (A)
                 (A) (A) (A) (A) (A) (A) (A) (A) (A) (A) (A) (A)
                 (A) (A) (A) (A) (A) (A) (A) (A) (A)
       Virtual   (A) (A) (A) (A) (A) (A) (A) (A) (A) (A) (A) (A)
                 (A) (A) (A) (A) (A) (A) (A) (A) (A) (A) (A) (A)
                 (A) (A) (A) (A) (A) (A) (A) (A) (A) (A) (A) (A)
                 (A) (A) (A) (A) (A) (A) (A) (A) (A) (A) (A) (A)
                 (A) (A) (A) (A) (A) (A) (A) (A) (A) (A) (A) (A)
                 (A) (A) (A) (A) (A) (A) (A) (A) (A) (A) (A) (A)
                 (A) (A) (A) (A) (A) (A) (A) (A) (A) (A) (A) (A)
                 (A) (A) (A) (A) (A) (A) (A) (A) (A) (A) (A) (A)
                 (A) (A) (A) (A) (A) (A) (A) (A) (A) (A) (A) (A)
                 (A) (A) (A) (A) (A) (A) (A) (A) (A) (A) (A) (A)
                 (A) (A) (A) (A) (A) (A) (A) (A) (A) (A) (A) (A)
                 (A) (A) (A) (A) (A) (A) (A) (A) (A) (A)
 The electronic state is 1-A.
 Alpha  occ. eigenvalues -- -145.52376-145.50179-145.50174 -77.25160 -19.25914
 Alpha  occ. eigenvalues --  -19.25462 -19.21787 -19.21787 -19.21337 -15.59134
 Alpha  occ. eigenvalues --  -15.56978 -15.56974 -12.72323 -12.72318 -12.72292
 Alpha  occ. eigenvalues --  -12.70185 -12.70184 -12.70176 -12.70176 -12.70097
 Alpha  occ. eigenvalues --  -12.70096  -6.70247  -4.86601  -4.86593  -4.86033
 Alpha  occ. eigenvalues --   -1.96314  -1.94230  -1.94164  -1.24342  -1.23871
 Alpha  occ. eigenvalues --   -1.23774  -1.22782  -1.22077  -1.21717  -1.21641
 Alpha  occ. eigenvalues --   -1.21522  -1.21224  -1.10034  -1.07327  -1.00854
 Alpha  occ. eigenvalues --   -1.00733  -0.89079  -0.63098  -0.51346  -0.51080
 Alpha  occ. eigenvalues --   -0.50980  -0.49236  -0.48453  -0.46047  -0.43792
 Alpha  occ. eigenvalues --   -0.43560  -0.38837  -0.38644  -0.38613  -0.35303
 Alpha  occ. eigenvalues --   -0.33992  -0.31705
 Alpha virt. eigenvalues --   -0.20297  -0.18388  -0.17632  -0.12782  -0.12602
 Alpha virt. eigenvalues --   -0.10902  -0.09918  -0.09097  -0.08254  -0.07949
 Alpha virt. eigenvalues --   -0.07349  -0.06562  -0.06018  -0.05817  -0.04928
 Alpha virt. eigenvalues --   -0.04869  -0.04857  -0.04686  -0.04487  -0.04309
 Alpha virt. eigenvalues --   -0.04013  -0.03911  -0.03218  -0.02973  -0.02948
 Alpha virt. eigenvalues --   -0.02712  -0.01825  -0.00968   0.00846   0.01989
 Alpha virt. eigenvalues --    0.02247   0.03415   0.04333   0.04541   0.04866
 Alpha virt. eigenvalues --    0.05220   0.05245   0.06159   0.06287   0.07053
 Alpha virt. eigenvalues --    0.07073   0.07100   0.07502   0.07555   0.07794
 Alpha virt. eigenvalues --    0.08502   0.09369   0.10327   0.11205   0.11843
 Alpha virt. eigenvalues --    0.12312   0.14923   0.14937   0.16118   0.17404
 Alpha virt. eigenvalues --    0.18782   0.20650   0.21079   0.21102   0.23271
 Alpha virt. eigenvalues --    0.23561   0.23710   0.24625   0.25780   0.27285
 Alpha virt. eigenvalues --    0.28001   0.29793   0.31572   0.33560   0.33942
 Alpha virt. eigenvalues --    0.34441   0.36041   0.36690   0.38771   0.39283
 Alpha virt. eigenvalues --    0.41198   0.45564   0.46017   0.53546   0.54397
 Alpha virt. eigenvalues --    0.55431   0.62683   0.63190   0.63524   0.66203
 Alpha virt. eigenvalues --    0.81581   0.85412   0.90492   0.93095   0.99272
 Alpha virt. eigenvalues --    1.11604   1.11887   1.15491   1.16011   1.17645
 Alpha virt. eigenvalues --    1.18026   1.19910   1.19985   1.20441   1.22320
 Alpha virt. eigenvalues --    1.22900   1.27533   1.31244   1.33939   1.38930
 Alpha virt. eigenvalues --    1.45491   1.46500   1.49260   1.57015   1.58132
 Alpha virt. eigenvalues --    1.60028   1.64340   1.68042   1.71384   1.73206
 Alpha virt. eigenvalues --    1.76847   1.78165   1.78944   1.81318   1.84880
 Alpha virt. eigenvalues --    1.86389   1.87077   1.89503   1.90272   1.91243
 Alpha virt. eigenvalues --    1.92838   1.93666   1.99376   2.00501   2.11324
 Alpha virt. eigenvalues --    2.21661   2.24626   2.36555   2.52317   2.56759
 Alpha virt. eigenvalues --    3.07044   3.54030   4.03186   4.09911   4.14253
 Alpha virt. eigenvalues --    4.19221   4.32882
          Condensed to atoms (all electrons):
              1          2          3          4          5          6
     1  O    8.964524  -0.177631   0.074743   0.050135   0.043510   0.004981
     2  P   -0.177631  14.403881   0.026293  -0.171459  -0.177623   0.017292
     3  Ca   0.074743   0.026293  18.362453   0.013830   0.074743  -0.045153
     4  O    0.050135  -0.171459   0.013830   8.936088   0.050135   0.065854
     5  O    0.043510  -0.177623   0.074743   0.050135   8.964525   0.060504
     6  Ca   0.004981   0.017292  -0.045153   0.065854   0.060504  18.339524
     7  O    0.029678  -0.024651   0.088650   0.022382   0.029677   0.038151
     8  O   -0.006646   0.003348  -0.033270   0.002033  -0.006646   0.104050
     9  Ca   0.060505   0.017290  -0.045155   0.065856   0.004981  -0.047899
              7          8          9
     1  O    0.029678  -0.006646   0.060505
     2  P   -0.024651   0.003348   0.017290
     3  Ca   0.088650  -0.033270  -0.045155
     4  O    0.022382   0.002033   0.065856
     5  O    0.029677  -0.006646   0.004981
     6  Ca   0.038151   0.104050  -0.047899
     7  O    8.604389  -0.100975   0.038151
     8  O   -0.100975   8.577655   0.104051
     9  Ca   0.038151   0.104051  18.339525
 Mulliken atomic charges:
              1
     1  O   -1.043800
     2  P    1.083260
     3  Ca   1.482865
     4  O   -1.034854
     5  O   -1.043807
     6  Ca   1.462696
     7  O   -0.725453
     8  O   -0.643600
     9  Ca   1.462694
 Sum of Mulliken charges=   1.00000
 Atomic charges with hydrogens summed into heavy atoms:
              1
     1  O   -1.043800
     2  P    1.083260
     3  Ca   1.482865
     4  O   -1.034854
     5  O   -1.043807
     6  Ca   1.462696
     7  O   -0.725453
     8  O   -0.643600
     9  Ca   1.462694
 Sum of Mulliken charges=   1.00000
 Electronic spatial extent (au):  <R**2>=  1728.8161
 Charge=     1.0000 electrons
 Dipole moment (field-independent basis, Debye):
    X=     0.9437    Y=     0.0000    Z=     6.2013  Tot=     6.2727
 Quadrupole moment (field-independent basis, Debye-Ang):
   XX=   -63.7403   YY=   -44.2160   ZZ=   -80.5198
   XY=     0.0001   XZ=   -28.3134   YZ=     0.0000
 Traceless Quadrupole moment (field-independent basis, Debye-Ang):
   XX=    -0.9149   YY=    18.6094   ZZ=   -17.6944
   XY=     0.0001   XZ=   -28.3134   YZ=     0.0000
 Octapole moment (field-independent basis, Debye-Ang**2):
  XXX=   -20.1120  YYY=     0.0021  ZZZ=    45.2407  XYY=    73.8029
  XXY=    -0.0022  XXZ=    28.1362  XZZ=   -39.2256  YZZ=    -0.0008
  YYZ=     4.8761  XYZ=     0.0017
 Hexadecapole moment (field-independent basis, Debye-Ang**3):
 XXXX=  -745.9633 YYYY=  -401.4002 ZZZZ=  -673.8261 XXXY=     0.0008
 XXXZ=  -157.7303 YYYX=     0.0003 YYYZ=     0.0006 ZZZX=  -109.8519
 ZZZY=     0.0002 XXYY=  -182.3993 XXZZ=  -218.8775 YYZZ=  -189.6599
 XXYZ=    -0.0004 YYXZ=   -34.9770 ZZXY=     0.0006
 N-N= 1.104965700816D+03 E-N=-8.710588385630D+03  KE= 2.742232233915D+03
 Merz-Kollman atomic radii used.
 Read replacement radii for each type of atom:
 Rad(20) =   1.188000000000D+00
 Atom Element Radius
    1     8    1.40
    2    15    1.80
    3    20    1.19
    4     8    1.40
    5     8    1.40
    6    20    1.19
    7     8    1.40
    8     8    1.40
    9    20    1.19

 **********************************************************************

            Electrostatic Properties Using The SCF Density

 **********************************************************************

       Atomic Center    1 is at  -1.237632  1.285176 -0.440680
       Atomic Center    2 is at  -1.065339  0.000017 -1.530640
       Atomic Center    3 is at  -1.625699 -0.000034  1.389960
       Atomic Center    4 is at   0.590011  0.000020 -1.656230
       Atomic Center    5 is at  -1.237597 -1.285194 -0.440730
       Atomic Center    6 is at   1.054094 -1.671819 -0.138380
       Atomic Center    7 is at   0.608361 -0.000010  1.521250
       Atomic Center    8 is at   2.068241  0.000004  1.103240
       Atomic Center    9 is at   1.054057  1.671841 -0.138340
     741 points will be used for fitting atomic charges
 Fitting point charges to eletrostatic potential
 Charges from ESP fit, RMS=   0.00661 RRMS=   0.04151:
 Charge=   1.00000 Dipole=     0.8097     0.0000     6.0187 Tot=     6.0730
              1
     1  O   -0.985444
     2  P    0.536293
     3  Ca   1.647905
     4  O   -0.940747
     5  O   -0.985446
     6  Ca   1.675138
     7  O   -0.931402
     8  O   -0.691434
     9  Ca   1.675138
 -----------------------------------------------------------------

              Electrostatic Properties (Atomic Units)

 -----------------------------------------------------------------
    Center     Electric         -------- Electric Field --------
               Potential          X             Y             Z
 -----------------------------------------------------------------
    1 Atom    -22.248517
    2 Atom    -53.962497
    3 Atom    -80.016376
    4 Atom    -22.248673
    5 Atom    -22.248524
    6 Atom    -80.039011
    7 Atom    -22.204647
    8 Atom    -22.216086
    9 Atom    -80.039009
 -----------------------------------------------------------------
 1\1\GINC-N022\SP\RB3LYP\6-31+G(d,p)\Ca3O5P1(1+)\TIMN\12-Jun-2015\0\\# 
 b3lyp/6-31+G(d,p) int=ultrafine pop=(ReadRadii,MK)\\mol_17.23.9.pdbc_p
 lusQ.z58264.zip.xyz\\1,1\O,0,-1.23763,1.28518,-0.44068\P,0,-1.06534,0.
 00002,-1.53064\Ca,0,-1.6257,-0.00003,1.38996\O,0,0.59001,0.00002,-1.65
 623\O,0,-1.2376,-1.28519,-0.44073\Ca,0,1.05409,-1.67182,-0.13838\O,0,0
 .60836,-0.00001,1.52125\O,0,2.06824,0.,1.10324\Ca,0,1.05406,1.67184,-0
 .13834\\Version=EM64T-G03RevE.01\State=1-A\HF=-2750.2488179\RMSD=5.381
 e-05\Thermal=0.\Dipole=0.3712634,-0.0000059,2.4397867\PG=C01 [X(Ca3O5P
 1)]\\@


 IF IT'S NOT TRUE, IT'S WELL INVENTED -- DANTE
 Job cpu time:  0 days  0 hours  1 minutes 56.8 seconds.
 File lengths (MBytes):  RWF=     36 Int=      0 D2E=      0 Chk=     11 Scr=      1
 Normal termination of Gaussian 03 at Fri Jun 12 17:54:29 2015.
