 Entering Gaussian System, Link 0=/home/timn/tmp/g03.e01/g03
 Input=mol_17.23.34.pdbcc_plusQ.z58235.zip.xyz.gjf
 Output=mol_17.23.34.pdbcc_plusQ.z58235.zip.xyz.out
 Initial command:
 /home/timn/tmp/g03.e01/l1.exe /home/timn/tmp/g03.e01/Gau-14735.inp -scrdir=/home/timn/tmp/g03.e01/
 Default is to use a total of   2 processors:
                                2 via shared-memory
                                1 via Linda
 Entering Link 1 = /home/timn/tmp/g03.e01/l1.exe PID=     14736.
  
 Copyright (c) 1988,1990,1992,1993,1995,1998,2003,2004,2007, Gaussian, Inc.
                  All Rights Reserved.
  
 This is the Gaussian(R) 03 program.  It is based on the
 the Gaussian(R) 98 system (copyright 1998, Gaussian, Inc.),
 the Gaussian(R) 94 system (copyright 1995, Gaussian, Inc.),
 the Gaussian 92(TM) system (copyright 1992, Gaussian, Inc.),
 the Gaussian 90(TM) system (copyright 1990, Gaussian, Inc.),
 the Gaussian 88(TM) system (copyright 1988, Gaussian, Inc.),
 the Gaussian 86(TM) system (copyright 1986, Carnegie Mellon
 University), and the Gaussian 82(TM) system (copyright 1983,
 Carnegie Mellon University). Gaussian is a federally registered
 trademark of Gaussian, Inc.
  
 This software contains proprietary and confidential information,
 including trade secrets, belonging to Gaussian, Inc.
  
 This software is provided under written license and may be
 used, copied, transmitted, or stored only in accord with that
 written license.
  
 The following legend is applicable only to US Government
 contracts under FAR:
  
                    RESTRICTED RIGHTS LEGEND
  
 Use, reproduction and disclosure by the US Government is
 subject to restrictions as set forth in subparagraphs (a)
 and (c) of the Commercial Computer Software - Restricted
 Rights clause in FAR 52.227-19.
  
 Gaussian, Inc.
 340 Quinnipiac St., Bldg. 40, Wallingford CT 06492
  
  
 ---------------------------------------------------------------
 Warning -- This program may not be used in any manner that
 competes with the business of Gaussian, Inc. or will provide
 assistance to any competitor of Gaussian, Inc.  The licensee
 of this program is prohibited from giving any competitor of
 Gaussian, Inc. access to this program.  By using this program,
 the user acknowledges that Gaussian, Inc. is engaged in the
 business of creating and licensing software in the field of
 computational chemistry and represents and warrants to the
 licensee that it is not a competitor of Gaussian, Inc. and that
 it will not use this program in any manner prohibited above.
 ---------------------------------------------------------------
  

 Cite this work as:
 Gaussian 03, Revision E.01,
 M. J. Frisch, G. W. Trucks, H. B. Schlegel, G. E. Scuseria, 
 M. A. Robb, J. R. Cheeseman, J. A. Montgomery, Jr., T. Vreven, 
 K. N. Kudin, J. C. Burant, J. M. Millam, S. S. Iyengar, J. Tomasi, 
 V. Barone, B. Mennucci, M. Cossi, G. Scalmani, N. Rega, 
 G. A. Petersson, H. Nakatsuji, M. Hada, M. Ehara, K. Toyota, 
 R. Fukuda, J. Hasegawa, M. Ishida, T. Nakajima, Y. Honda, O. Kitao, 
 H. Nakai, M. Klene, X. Li, J. E. Knox, H. P. Hratchian, J. B. Cross, 
 V. Bakken, C. Adamo, J. Jaramillo, R. Gomperts, R. E. Stratmann, 
 O. Yazyev, A. J. Austin, R. Cammi, C. Pomelli, J. W. Ochterski, 
 P. Y. Ayala, K. Morokuma, G. A. Voth, P. Salvador, J. J. Dannenberg, 
 V. G. Zakrzewski, S. Dapprich, A. D. Daniels, M. C. Strain, 
 O. Farkas, D. K. Malick, A. D. Rabuck, K. Raghavachari, 
 J. B. Foresman, J. V. Ortiz, Q. Cui, A. G. Baboul, S. Clifford, 
 J. Cioslowski, B. B. Stefanov, G. Liu, A. Liashenko, P. Piskorz, 
 I. Komaromi, R. L. Martin, D. J. Fox, T. Keith, M. A. Al-Laham, 
 C. Y. Peng, A. Nanayakkara, M. Challacombe, P. M. W. Gill, 
 B. Johnson, W. Chen, M. W. Wong, C. Gonzalez, and J. A. Pople, 
 Gaussian, Inc., Wallingford CT, 2004.
 
 ******************************************
 Gaussian 03:  EM64T-G03RevE.01 11-Sep-2007
                12-Jun-2015 
 ******************************************
 %nproc=2
 Will use up to    2 processors via shared memory.
 Default route:  MP2=Direct MaxDisk=2000MB
 ----------------------------------------------------
 # b3lyp/6-31+G(d,p) int=ultrafine pop=(ReadRadii,MK)
 ----------------------------------------------------

 Warning!  SCF SP cutoffs with diffuse functions may be unreliable.
 Consider SCF=Tight

 1/38=1/1;
 2/17=6,18=5,40=1/2;
 3/5=1,6=6,7=111,11=2,16=1,25=1,30=1,74=-5,75=5/1,2,3;
 4//1;
 5/5=2,32=1,38=5/2;
 6/7=2,8=2,9=2,10=2,15=8,20=101,28=1/1,2;
 99/5=1,9=1/99;
 ---------------------------------------
 mol_17.23.34.pdbcc_plusQ.z58235.zip.xyz
 ---------------------------------------
 Symbolic Z-matrix:
 Charge =  1 Multiplicity = 1
 O                    -2.61405  -0.13994   0. 
 P                    -1.30543  -0.96      0. 
 O                    -1.30891  -2.49909   0. 
 Ca                    1.14763  -2.64501   0. 
 Ca                    2.20049   1.11853   0. 
 O                     2.51752  -1.02414   0. 
 O                     0.        1.19574   0. 
 O                     0.30915   2.71952   0. 
 Ca                   -1.93053   2.14564   0. 
 
                          Input orientation:                          
 ---------------------------------------------------------------------
 Center     Atomic     Atomic              Coordinates (Angstroms)
 Number     Number      Type              X           Y           Z
 ---------------------------------------------------------------------
    1          8             0       -2.614050   -0.139940    0.000000
    2         15             0       -1.305430   -0.960000    0.000000
    3          8             0       -1.308910   -2.499090    0.000000
    4         20             0        1.147630   -2.645010    0.000000
    5         20             0        2.200490    1.118530    0.000000
    6          8             0        2.517520   -1.024140    0.000000
    7          8             0        0.000000    1.195740    0.000000
    8          8             0        0.309150    2.719520    0.000000
    9         20             0       -1.930530    2.145640    0.000000
 ---------------------------------------------------------------------
                    Distance matrix (angstroms):
                    1          2          3          4          5
     1  O    0.000000
     2  P    1.544340   0.000000
     3  O    2.696104   1.539094   0.000000
     4  Ca   4.519470   2.976031   2.460870   0.000000
     5  Ca   4.976298   4.075753   5.040145   3.908036   0.000000
     6  O    5.207189   3.823488   4.100859   2.122220   2.165997
     7  O    2.935524   2.520191   3.919823   4.008543   2.201844
     8  O    4.089206   4.018176   5.463699   5.429662   2.477970
     9  Ca   2.385598   3.167925   4.686142   5.694330   4.256792
                    6          7          8          9
     6  O    0.000000
     7  O    3.356453   0.000000
     8  O    4.346480   1.554824   0.000000
     9  Ca   5.461928   2.151571   2.312035   0.000000
 Stoichiometry    Ca3O5P(1+)
 Framework group  CS[SG(Ca3O5P)]
 Deg. of freedom    15
 Full point group                 CS
 Largest Abelian subgroup         CS      NOp   2
 Largest concise Abelian subgroup C1      NOp   1
                         Standard orientation:                         
 ---------------------------------------------------------------------
 Center     Atomic     Atomic              Coordinates (Angstroms)
 Number     Number      Type              X           Y           Z
 ---------------------------------------------------------------------
    1          8             0       -2.614050   -0.139939    0.000000
    2         15             0       -1.305430   -0.959999    0.000000
    3          8             0       -1.308911   -2.499089    0.000000
    4         20             0        1.147629   -2.645010    0.000000
    5         20             0        2.200490    1.118530    0.000000
    6          8             0        2.517520   -1.024140    0.000000
    7          8             0        0.000000    1.195741    0.000000
    8          8             0        0.309150    2.719521    0.000000
    9         20             0       -1.930530    2.145641    0.000000
 ---------------------------------------------------------------------
 Rotational constants (GHZ):      0.8259117      0.5770481      0.3397038
 Standard basis: 6-31+G(d,p) (6D, 7F)
 There are   147 symmetry adapted basis functions of A'  symmetry.
 There are    52 symmetry adapted basis functions of A"  symmetry.
 Integral buffers will be    131072 words long.
 Raffenetti 2 integral format.
 Two-electron integral symmetry is turned on.
   199 basis functions,   456 primitive gaussians,   199 cartesian basis functions
    57 alpha electrons       57 beta electrons
       nuclear repulsion energy       945.4102369668 Hartrees.
 NAtoms=    9 NActive=    9 NUniq=    9 SFac= 7.50D-01 NAtFMM=   80 NAOKFM=F Big=F
 One-electron integrals computed using PRISM.
 NBasis=   199 RedAO= T  NBF=   147    52
 NBsUse=   199 1.00D-06 NBFU=   147    52
 Harris functional with IExCor=  402 diagonalized for initial guess.
 ExpMin= 7.10D-03 ExpMax= 3.53D+04 ExpMxC= 5.30D+03 IAcc=3 IRadAn=         5 AccDes= 0.00D+00
 HarFok:  IExCor= 402 AccDes= 0.00D+00 IRadAn=         5 IDoV=1
 ScaDFX=  1.000000  1.000000  1.000000  1.000000
 Initial guess orbital symmetries:
       Occupied  (A') (A') (A') (A') (A') (A') (A') (A') (A') (A')
                 (A') (A') (A') (A') (A") (A') (A') (A") (A') (A')
                 (A") (A') (A') (A') (A") (A') (A') (A') (A') (A')
                 (A') (A') (A') (A') (A") (A") (A") (A') (A') (A')
                 (A') (A') (A') (A') (A') (A') (A") (A') (A") (A')
                 (A') (A') (A") (A") (A') (A") (A')
       Virtual   (A') (A") (A') (A') (A') (A") (A') (A") (A') (A")
                 (A') (A') (A') (A') (A') (A') (A') (A") (A') (A")
                 (A") (A') (A') (A') (A') (A') (A') (A') (A") (A')
                 (A') (A") (A") (A') (A') (A") (A') (A') (A') (A")
                 (A") (A') (A") (A') (A") (A') (A') (A') (A') (A")
                 (A') (A") (A') (A') (A') (A") (A') (A') (A') (A")
                 (A') (A") (A') (A') (A") (A') (A') (A") (A') (A')
                 (A') (A') (A') (A') (A") (A') (A') (A') (A') (A')
                 (A") (A') (A") (A') (A') (A') (A') (A') (A') (A')
                 (A") (A") (A") (A') (A") (A') (A") (A') (A') (A')
                 (A') (A') (A') (A') (A') (A') (A') (A") (A') (A')
                 (A') (A') (A') (A") (A") (A") (A") (A') (A") (A')
                 (A") (A') (A') (A') (A') (A") (A') (A') (A") (A')
                 (A') (A") (A') (A') (A') (A') (A') (A') (A') (A')
                 (A') (A')
 The electronic state of the initial guess is 1-A'.
 Requested convergence on RMS density matrix=1.00D-04 within 128 cycles.
 Requested convergence on MAX density matrix=1.00D-02.
 Requested convergence on             energy=1.00D-02.
 No special actions if energy rises.
 EnCoef did     2 forward-backward iterations
 EnCoef did     2 forward-backward iterations
 EnCoef did     4 forward-backward iterations
 SCF Done:  E(RB+HF-LYP) =  -2750.13357459     A.U. after   10 cycles
             Convg  =    0.6504D-04             -V/T =  2.0029
             S**2   =   0.0000

 **********************************************************************

            Population analysis using the SCF density.

 **********************************************************************

 Orbital symmetries:
       Occupied  (A') (A') (A') (A') (A') (A') (A') (A') (A') (A')
                 (A') (A') (A") (A') (A') (A") (A') (A') (A") (A')
                 (A') (A') (A") (A') (A') (A') (A') (A') (A') (A")
                 (A') (A") (A') (A') (A') (A") (A') (A') (A') (A')
                 (A') (A') (A') (A') (A') (A") (A') (A') (A") (A')
                 (A") (A') (A') (A') (A") (A") (A')
       Virtual   (A') (A') (A") (A') (A") (A') (A") (A') (A') (A")
                 (A') (A') (A') (A') (A') (A") (A') (A') (A') (A")
                 (A") (A') (A') (A') (A') (A') (A") (A') (A') (A')
                 (A') (A') (A") (A') (A") (A') (A') (A") (A") (A')
                 (A") (A') (A") (A') (A') (A") (A') (A") (A') (A')
                 (A") (A') (A') (A') (A") (A') (A') (A') (A') (A")
                 (A") (A') (A') (A') (A") (A') (A") (A') (A') (A')
                 (A') (A') (A') (A") (A') (A') (A') (A') (A') (A')
                 (A") (A') (A") (A') (A') (A') (A') (A') (A') (A')
                 (A") (A") (A") (A') (A') (A") (A') (A") (A') (A')
                 (A') (A') (A') (A') (A') (A') (A') (A') (A') (A")
                 (A') (A') (A') (A") (A") (A") (A') (A') (A") (A')
                 (A') (A") (A") (A") (A') (A') (A") (A') (A') (A')
                 (A') (A") (A') (A') (A') (A') (A') (A') (A') (A')
                 (A') (A')
 The electronic state is 1-A'.
 Alpha  occ. eigenvalues -- -145.53144-145.49933-145.45493 -77.27358 -19.26250
 Alpha  occ. eigenvalues --  -19.26053 -19.23343 -19.23111 -19.11531 -15.59926
 Alpha  occ. eigenvalues --  -15.56806 -15.52380 -12.73198 -12.73089 -12.73033
 Alpha  occ. eigenvalues --  -12.70057 -12.70026 -12.69849 -12.65652 -12.65561
 Alpha  occ. eigenvalues --  -12.65430  -6.72956  -4.89347  -4.89170  -4.88802
 Alpha  occ. eigenvalues --   -1.96951  -1.93914  -1.89676  -1.24786  -1.24753
 Alpha  occ. eigenvalues --   -1.24036  -1.21733  -1.21674  -1.20577  -1.17707
 Alpha  occ. eigenvalues --   -1.17666  -1.16588  -1.11549  -1.07228  -1.06391
 Alpha  occ. eigenvalues --   -0.86991  -0.85661  -0.64353  -0.53133  -0.52575
 Alpha  occ. eigenvalues --   -0.50287  -0.46712  -0.46434  -0.44224  -0.43751
 Alpha  occ. eigenvalues --   -0.43578  -0.35545  -0.34746  -0.31901  -0.31217
 Alpha  occ. eigenvalues --   -0.29797  -0.29513
 Alpha virt. eigenvalues --   -0.20003  -0.17686  -0.17325  -0.15028  -0.11894
 Alpha virt. eigenvalues --   -0.10338  -0.10268  -0.09997  -0.09109  -0.08531
 Alpha virt. eigenvalues --   -0.08203  -0.06882  -0.06467  -0.05836  -0.05329
 Alpha virt. eigenvalues --   -0.04959  -0.04959  -0.04449  -0.04153  -0.04134
 Alpha virt. eigenvalues --   -0.03965  -0.03746  -0.03542  -0.03166  -0.02977
 Alpha virt. eigenvalues --   -0.02476  -0.02333  -0.02296  -0.00051   0.00372
 Alpha virt. eigenvalues --    0.01687   0.02869   0.03509   0.03589   0.04238
 Alpha virt. eigenvalues --    0.04616   0.05262   0.05645   0.06082   0.06671
 Alpha virt. eigenvalues --    0.07110   0.07536   0.08227   0.08244   0.08888
 Alpha virt. eigenvalues --    0.09647   0.10624   0.10721   0.10821   0.11745
 Alpha virt. eigenvalues --    0.12466   0.12726   0.13752   0.14753   0.14979
 Alpha virt. eigenvalues --    0.16091   0.18261   0.18497   0.18895   0.18944
 Alpha virt. eigenvalues --    0.20781   0.20948   0.23271   0.26082   0.27199
 Alpha virt. eigenvalues --    0.27899   0.29351   0.29577   0.32012   0.32960
 Alpha virt. eigenvalues --    0.33287   0.34385   0.36041   0.36322   0.37338
 Alpha virt. eigenvalues --    0.39356   0.40634   0.45314   0.48994   0.51398
 Alpha virt. eigenvalues --    0.57321   0.58099   0.58429   0.59944   0.67691
 Alpha virt. eigenvalues --    0.71967   0.75244   0.81176   0.92116   0.95954
 Alpha virt. eigenvalues --    1.05218   1.09344   1.10352   1.10474   1.14309
 Alpha virt. eigenvalues --    1.14546   1.16504   1.16647   1.17903   1.19703
 Alpha virt. eigenvalues --    1.21417   1.22342   1.24757   1.30019   1.30925
 Alpha virt. eigenvalues --    1.35768   1.43696   1.44727   1.48564   1.50554
 Alpha virt. eigenvalues --    1.54208   1.60197   1.62074   1.67929   1.69936
 Alpha virt. eigenvalues --    1.73139   1.75402   1.78180   1.80371   1.81293
 Alpha virt. eigenvalues --    1.83778   1.84616   1.85460   1.86475   1.87595
 Alpha virt. eigenvalues --    1.89764   1.92743   1.96949   2.00888   2.04304
 Alpha virt. eigenvalues --    2.10044   2.20231   2.22739   2.60644   2.70690
 Alpha virt. eigenvalues --    3.08148   3.40576   3.85346   3.89994   3.99343
 Alpha virt. eigenvalues --    4.05659   4.18520
          Condensed to atoms (all electrons):
              1          2          3          4          5          6
     1  O    8.731347  -0.091900   0.059575   0.025739  -0.003098   0.003553
     2  P   -0.091900  15.250728  -0.624943  -0.069052   0.041563  -0.033570
     3  O    0.059575  -0.624943   9.102403   0.071821  -0.012417   0.004656
     4  Ca   0.025739  -0.069052   0.071821  18.307185  -0.019262   0.257722
     5  Ca  -0.003098   0.041563  -0.012417  -0.019262  18.272148   0.186768
     6  O    0.003553  -0.033570   0.004656   0.257722   0.186768   8.795124
     7  O   -0.020630  -0.025155  -0.031353   0.012897   0.045815   0.006138
     8  O   -0.012822   0.011947  -0.006357  -0.004702   0.084170  -0.001243
     9  Ca   0.059424  -0.036382   0.018057   0.006358  -0.017930   0.001763
              7          8          9
     1  O   -0.020630  -0.012822   0.059424
     2  P   -0.025155   0.011947  -0.036382
     3  O   -0.031353  -0.006357   0.018057
     4  Ca   0.012897  -0.004702   0.006358
     5  Ca   0.045815   0.084170  -0.017930
     6  O    0.006138  -0.001243   0.001763
     7  O    8.713779  -0.160924   0.097918
     8  O   -0.160924   8.730547   0.111342
     9  Ca   0.097918   0.111342  18.225769
 Mulliken atomic charges:
              1
     1  O   -0.751188
     2  P    0.576763
     3  O   -0.581441
     4  Ca   1.411294
     5  Ca   1.422243
     6  O   -1.220910
     7  O   -0.638485
     8  O   -0.751958
     9  Ca   1.533681
 Sum of Mulliken charges=   1.00000
 Atomic charges with hydrogens summed into heavy atoms:
              1
     1  O   -0.751188
     2  P    0.576763
     3  O   -0.581441
     4  Ca   1.411294
     5  Ca   1.422243
     6  O   -1.220910
     7  O   -0.638485
     8  O   -0.751958
     9  Ca   1.533681
 Sum of Mulliken charges=   1.00000
 Electronic spatial extent (au):  <R**2>=  2775.2377
 Charge=     1.0000 electrons
 Dipole moment (field-independent basis, Debye):
    X=    -0.7751    Y=     3.5938    Z=     0.0000  Tot=     3.6764
 Quadrupole moment (field-independent basis, Debye-Ang):
   XX=   -60.1663   YY=   -29.5432   ZZ=   -73.8946
   XY=   -27.7769   XZ=     0.0000   YZ=     0.0000
 Traceless Quadrupole moment (field-independent basis, Debye-Ang):
   XX=    -5.6316   YY=    24.9915   ZZ=   -19.3599
   XY=   -27.7769   XZ=     0.0000   YZ=     0.0000
 Octapole moment (field-independent basis, Debye-Ang**2):
  XXX=   -19.4615  YYY=   -70.9572  ZZZ=     0.0000  XYY=     7.0439
  XXY=   141.4459  XXZ=     0.0000  XZZ=    -1.7849  YZZ=     4.2525
  YYZ=     0.0000  XYZ=     0.0000
 Hexadecapole moment (field-independent basis, Debye-Ang**3):
 XXXX= -1509.5190 YYYY= -1251.5742 ZZZZ=   -84.8257 XXXY=   117.4384
 XXXZ=     0.0000 YYYX=  -311.0935 YYYZ=     0.0000 ZZZX=     0.0000
 ZZZY=     0.0000 XXYY=  -279.0051 XXZZ=  -243.9534 YYZZ=  -260.9553
 XXYZ=     0.0000 YYXZ=     0.0000 ZZXY=    22.5194
 N-N= 9.454102369668D+02 E-N=-8.392582653258D+03  KE= 2.742135059970D+03
 Symmetry A'   KE= 2.475778397638D+03
 Symmetry A"   KE= 2.663566623322D+02
 Merz-Kollman atomic radii used.
 Read replacement radii for each type of atom:
 Rad(20) =   1.188000000000D+00
 Atom Element Radius
    1     8    1.40
    2    15    1.80
    3     8    1.40
    4    20    1.19
    5    20    1.19
    6     8    1.40
    7     8    1.40
    8     8    1.40
    9    20    1.19

 **********************************************************************

            Electrostatic Properties Using The SCF Density

 **********************************************************************

       Atomic Center    1 is at  -2.614050 -0.139939  0.000000
       Atomic Center    2 is at  -1.305430 -0.959999  0.000000
       Atomic Center    3 is at  -1.308911 -2.499089  0.000000
       Atomic Center    4 is at   1.147629 -2.645010  0.000000
       Atomic Center    5 is at   2.200490  1.118530  0.000000
       Atomic Center    6 is at   2.517520 -1.024140  0.000000
       Atomic Center    7 is at   0.000000  1.195741  0.000000
       Atomic Center    8 is at   0.309150  2.719521  0.000000
       Atomic Center    9 is at  -1.930530  2.145641  0.000000
     805 points will be used for fitting atomic charges
 Fitting point charges to eletrostatic potential
 Charges from ESP fit, RMS=   0.00632 RRMS=   0.04205:
 Charge=   1.00000 Dipole=    -0.5941     3.7414     0.0000 Tot=     3.7883
              1
     1  O   -0.587321
     2  P    0.475372
     3  O   -0.616373
     4  Ca   1.629203
     5  Ca   1.757760
     6  O   -1.599798
     7  O   -0.957949
     8  O   -0.812421
     9  Ca   1.711529
 -----------------------------------------------------------------

              Electrostatic Properties (Atomic Units)

 -----------------------------------------------------------------
    Center     Electric         -------- Electric Field --------
               Potential          X             Y             Z
 -----------------------------------------------------------------
    1 Atom    -22.204189
    2 Atom    -53.944537
    3 Atom    -22.207207
    4 Atom    -80.043312
    5 Atom    -80.085092
    6 Atom    -22.342496
    7 Atom    -22.237494
    8 Atom    -22.240461
    9 Atom    -80.008561
 -----------------------------------------------------------------
 1\1\GINC-N035\SP\RB3LYP\6-31+G(d,p)\Ca3O5P1(1+)\TIMN\12-Jun-2015\0\\# 
 b3lyp/6-31+G(d,p) int=ultrafine pop=(ReadRadii,MK)\\mol_17.23.34.pdbcc
 _plusQ.z58235.zip.xyz\\1,1\O,0,-2.61405,-0.13994,0.\P,0,-1.30543,-0.96
 ,0.\O,0,-1.30891,-2.49909,0.\Ca,0,1.14763,-2.64501,0.\Ca,0,2.20049,1.1
 1853,0.\O,0,2.51752,-1.02414,0.\O,0,0.,1.19574,0.\O,0,0.30915,2.71952,
 0.\Ca,0,-1.93053,2.14564,0.\\Version=EM64T-G03RevE.01\State=1-A'\HF=-2
 750.1335746\RMSD=6.504e-05\Thermal=0.\Dipole=-0.3049427,1.4138918,0.\P
 G=CS [SG(Ca3O5P1)]\\@


  THE LARGE PRINT GIVETH,
  AND THE SMALL PRINT TAKETH AWAY.

                     -- TOM WAITES
 Job cpu time:  0 days  0 hours  1 minutes 51.7 seconds.
 File lengths (MBytes):  RWF=     36 Int=      0 D2E=      0 Chk=     11 Scr=      1
 Normal termination of Gaussian 03 at Fri Jun 12 17:52:45 2015.
