 Entering Gaussian System, Link 0=/home/timn/tmp/g03.e01/g03
 Input=mol_17.27.14.pdbcccc_plusQ.z58481.zip.xyz.gjf
 Output=mol_17.27.14.pdbcccc_plusQ.z58481.zip.xyz.out
 Initial command:
 /home/timn/tmp/g03.e01/l1.exe /home/timn/tmp/g03.e01/Gau-13244.inp -scrdir=/home/timn/tmp/g03.e01/
 Default is to use a total of   2 processors:
                                2 via shared-memory
                                1 via Linda
 Entering Link 1 = /home/timn/tmp/g03.e01/l1.exe PID=     13245.
  
 Copyright (c) 1988,1990,1992,1993,1995,1998,2003,2004,2007, Gaussian, Inc.
                  All Rights Reserved.
  
 This is the Gaussian(R) 03 program.  It is based on the
 the Gaussian(R) 98 system (copyright 1998, Gaussian, Inc.),
 the Gaussian(R) 94 system (copyright 1995, Gaussian, Inc.),
 the Gaussian 92(TM) system (copyright 1992, Gaussian, Inc.),
 the Gaussian 90(TM) system (copyright 1990, Gaussian, Inc.),
 the Gaussian 88(TM) system (copyright 1988, Gaussian, Inc.),
 the Gaussian 86(TM) system (copyright 1986, Carnegie Mellon
 University), and the Gaussian 82(TM) system (copyright 1983,
 Carnegie Mellon University). Gaussian is a federally registered
 trademark of Gaussian, Inc.
  
 This software contains proprietary and confidential information,
 including trade secrets, belonging to Gaussian, Inc.
  
 This software is provided under written license and may be
 used, copied, transmitted, or stored only in accord with that
 written license.
  
 The following legend is applicable only to US Government
 contracts under FAR:
  
                    RESTRICTED RIGHTS LEGEND
  
 Use, reproduction and disclosure by the US Government is
 subject to restrictions as set forth in subparagraphs (a)
 and (c) of the Commercial Computer Software - Restricted
 Rights clause in FAR 52.227-19.
  
 Gaussian, Inc.
 340 Quinnipiac St., Bldg. 40, Wallingford CT 06492
  
  
 ---------------------------------------------------------------
 Warning -- This program may not be used in any manner that
 competes with the business of Gaussian, Inc. or will provide
 assistance to any competitor of Gaussian, Inc.  The licensee
 of this program is prohibited from giving any competitor of
 Gaussian, Inc. access to this program.  By using this program,
 the user acknowledges that Gaussian, Inc. is engaged in the
 business of creating and licensing software in the field of
 computational chemistry and represents and warrants to the
 licensee that it is not a competitor of Gaussian, Inc. and that
 it will not use this program in any manner prohibited above.
 ---------------------------------------------------------------
  

 Cite this work as:
 Gaussian 03, Revision E.01,
 M. J. Frisch, G. W. Trucks, H. B. Schlegel, G. E. Scuseria, 
 M. A. Robb, J. R. Cheeseman, J. A. Montgomery, Jr., T. Vreven, 
 K. N. Kudin, J. C. Burant, J. M. Millam, S. S. Iyengar, J. Tomasi, 
 V. Barone, B. Mennucci, M. Cossi, G. Scalmani, N. Rega, 
 G. A. Petersson, H. Nakatsuji, M. Hada, M. Ehara, K. Toyota, 
 R. Fukuda, J. Hasegawa, M. Ishida, T. Nakajima, Y. Honda, O. Kitao, 
 H. Nakai, M. Klene, X. Li, J. E. Knox, H. P. Hratchian, J. B. Cross, 
 V. Bakken, C. Adamo, J. Jaramillo, R. Gomperts, R. E. Stratmann, 
 O. Yazyev, A. J. Austin, R. Cammi, C. Pomelli, J. W. Ochterski, 
 P. Y. Ayala, K. Morokuma, G. A. Voth, P. Salvador, J. J. Dannenberg, 
 V. G. Zakrzewski, S. Dapprich, A. D. Daniels, M. C. Strain, 
 O. Farkas, D. K. Malick, A. D. Rabuck, K. Raghavachari, 
 J. B. Foresman, J. V. Ortiz, Q. Cui, A. G. Baboul, S. Clifford, 
 J. Cioslowski, B. B. Stefanov, G. Liu, A. Liashenko, P. Piskorz, 
 I. Komaromi, R. L. Martin, D. J. Fox, T. Keith, M. A. Al-Laham, 
 C. Y. Peng, A. Nanayakkara, M. Challacombe, P. M. W. Gill, 
 B. Johnson, W. Chen, M. W. Wong, C. Gonzalez, and J. A. Pople, 
 Gaussian, Inc., Wallingford CT, 2004.
 
 ******************************************
 Gaussian 03:  EM64T-G03RevE.01 11-Sep-2007
                12-Jun-2015 
 ******************************************
 %nproc=2
 Will use up to    2 processors via shared memory.
 Default route:  MP2=Direct MaxDisk=2000MB
 ----------------------------------------------------
 # b3lyp/6-31+G(d,p) int=ultrafine pop=(ReadRadii,MK)
 ----------------------------------------------------

 Warning!  SCF SP cutoffs with diffuse functions may be unreliable.
 Consider SCF=Tight

 1/38=1/1;
 2/17=6,18=5,40=1/2;
 3/5=1,6=6,7=111,11=2,16=1,25=1,30=1,74=-5,75=5/1,2,3;
 4//1;
 5/5=2,32=1,38=5/2;
 6/7=2,8=2,9=2,10=2,15=8,20=101,28=1/1,2;
 99/5=1,9=1/99;
 -----------------------------------------
 mol_17.27.14.pdbcccc_plusQ.z58481.zip.xyz
 -----------------------------------------
 Symbolic Z-matrix:
 Charge =  1 Multiplicity = 1
 O                    -0.59159   0.00965  -1.65548 
 O                     1.24154   1.28393  -0.43591 
 Ca                   -1.04784   1.67546  -0.13084 
 O                    -2.06686   0.00145   1.10604 
 O                    -0.60642  -0.00433   1.52071 
 Ca                   -1.0608   -1.66876  -0.14489 
 P                     1.06394   0.00407  -1.5312 
 O                     1.23286  -1.28628  -0.44769 
 Ca                    1.62687  -0.01151   1.38907 
 
                          Input orientation:                          
 ---------------------------------------------------------------------
 Center     Atomic     Atomic              Coordinates (Angstroms)
 Number     Number      Type              X           Y           Z
 ---------------------------------------------------------------------
    1          8             0       -0.591590    0.009650   -1.655480
    2          8             0        1.241540    1.283930   -0.435910
    3         20             0       -1.047840    1.675460   -0.130840
    4          8             0       -2.066860    0.001450    1.106040
    5          8             0       -0.606420   -0.004330    1.520710
    6         20             0       -1.060800   -1.668760   -0.144890
    7         15             0        1.063940    0.004070   -1.531200
    8          8             0        1.232860   -1.286280   -0.447690
    9         20             0        1.626870   -0.011510    1.389070
 ---------------------------------------------------------------------
                    Distance matrix (angstroms):
                    1          2          3          4          5
     1  O    0.000000
     2  O    2.543916   0.000000
     3  Ca   2.303826   2.342568   0.000000
     4  O    3.130891   3.868834   2.317452   0.000000
     5  O    3.176255   2.983778   2.396698   1.518180   0.000000
     6  Ca   2.306317   3.755508   3.344275   2.316589   2.398127
     7  P    1.660198   1.693884   3.035485   4.093525   3.479127
     8  O    2.542992   2.570252   3.751518   3.867878   2.983445
     9  Ca   3.767134   2.270946   3.508571   3.704580   2.237178
                    6          7          8          9
     6  Ca   0.000000
     7  P    3.038871   0.000000
     8  O    2.344964   1.693379   0.000000
     9  Ca   3.510425   2.974073   2.270236   0.000000
 Stoichiometry    Ca3O5P(1+)
 Framework group  C1[X(Ca3O5P)]
 Deg. of freedom    21
 Full point group                 C1
 Largest Abelian subgroup         C1      NOp   1
 Largest concise Abelian subgroup C1      NOp   1
                         Standard orientation:                         
 ---------------------------------------------------------------------
 Center     Atomic     Atomic              Coordinates (Angstroms)
 Number     Number      Type              X           Y           Z
 ---------------------------------------------------------------------
    1          8             0       -0.591589    0.009647   -1.655481
    2          8             0        1.241538    1.283931   -0.435911
    3         20             0       -1.047843    1.675456   -0.130841
    4          8             0       -2.066859    0.001444    1.106039
    5          8             0       -0.606419   -0.004333    1.520709
    6         20             0       -1.060796   -1.668764   -0.144891
    7         15             0        1.063941    0.004070   -1.531201
    8          8             0        1.232863   -1.286279   -0.447691
    9         20             0        1.626871   -0.011509    1.389069
 ---------------------------------------------------------------------
 Rotational constants (GHZ):      0.9461227      0.8199853      0.7961457
 Standard basis: 6-31+G(d,p) (6D, 7F)
 There are   199 symmetry adapted basis functions of A   symmetry.
 Integral buffers will be    131072 words long.
 Raffenetti 2 integral format.
 Two-electron integral symmetry is turned on.
   199 basis functions,   456 primitive gaussians,   199 cartesian basis functions
    57 alpha electrons       57 beta electrons
       nuclear repulsion energy      1104.9482633862 Hartrees.
 NAtoms=    9 NActive=    9 NUniq=    9 SFac= 7.50D-01 NAtFMM=   80 NAOKFM=F Big=F
 One-electron integrals computed using PRISM.
 NBasis=   199 RedAO= T  NBF=   199
 NBsUse=   199 1.00D-06 NBFU=   199
 Harris functional with IExCor=  402 diagonalized for initial guess.
 ExpMin= 7.10D-03 ExpMax= 3.53D+04 ExpMxC= 5.30D+03 IAcc=3 IRadAn=         5 AccDes= 0.00D+00
 HarFok:  IExCor= 402 AccDes= 0.00D+00 IRadAn=         5 IDoV=1
 ScaDFX=  1.000000  1.000000  1.000000  1.000000
 Initial guess orbital symmetries:
       Occupied  (A) (A) (A) (A) (A) (A) (A) (A) (A) (A) (A) (A)
                 (A) (A) (A) (A) (A) (A) (A) (A) (A) (A) (A) (A)
                 (A) (A) (A) (A) (A) (A) (A) (A) (A) (A) (A) (A)
                 (A) (A) (A) (A) (A) (A) (A) (A) (A) (A) (A) (A)
                 (A) (A) (A) (A) (A) (A) (A) (A) (A)
       Virtual   (A) (A) (A) (A) (A) (A) (A) (A) (A) (A) (A) (A)
                 (A) (A) (A) (A) (A) (A) (A) (A) (A) (A) (A) (A)
                 (A) (A) (A) (A) (A) (A) (A) (A) (A) (A) (A) (A)
                 (A) (A) (A) (A) (A) (A) (A) (A) (A) (A) (A) (A)
                 (A) (A) (A) (A) (A) (A) (A) (A) (A) (A) (A) (A)
                 (A) (A) (A) (A) (A) (A) (A) (A) (A) (A) (A) (A)
                 (A) (A) (A) (A) (A) (A) (A) (A) (A) (A) (A) (A)
                 (A) (A) (A) (A) (A) (A) (A) (A) (A) (A) (A) (A)
                 (A) (A) (A) (A) (A) (A) (A) (A) (A) (A) (A) (A)
                 (A) (A) (A) (A) (A) (A) (A) (A) (A) (A) (A) (A)
                 (A) (A) (A) (A) (A) (A) (A) (A) (A) (A) (A) (A)
                 (A) (A) (A) (A) (A) (A) (A) (A) (A) (A)
 The electronic state of the initial guess is 1-A.
 Requested convergence on RMS density matrix=1.00D-04 within 128 cycles.
 Requested convergence on MAX density matrix=1.00D-02.
 Requested convergence on             energy=1.00D-02.
 No special actions if energy rises.
 SCF Done:  E(RB+HF-LYP) =  -2750.24881672     A.U. after    7 cycles
             Convg  =    0.5375D-04             -V/T =  2.0029
             S**2   =   0.0000

 **********************************************************************

            Population analysis using the SCF density.

 **********************************************************************

 Orbital symmetries:
       Occupied  (A) (A) (A) (A) (A) (A) (A) (A) (A) (A) (A) (A)
                 (A) (A) (A) (A) (A) (A) (A) (A) (A) (A) (A) (A)
                 (A) (A) (A) (A) (A) (A) (A) (A) (A) (A) (A) (A)
                 (A) (A) (A) (A) (A) (A) (A) (A) (A) (A) (A) (A)
                 (A) (A) (A) (A) (A) (A) (A) (A) (A)
       Virtual   (A) (A) (A) (A) (A) (A) (A) (A) (A) (A) (A) (A)
                 (A) (A) (A) (A) (A) (A) (A) (A) (A) (A) (A) (A)
                 (A) (A) (A) (A) (A) (A) (A) (A) (A) (A) (A) (A)
                 (A) (A) (A) (A) (A) (A) (A) (A) (A) (A) (A) (A)
                 (A) (A) (A) (A) (A) (A) (A) (A) (A) (A) (A) (A)
                 (A) (A) (A) (A) (A) (A) (A) (A) (A) (A) (A) (A)
                 (A) (A) (A) (A) (A) (A) (A) (A) (A) (A) (A) (A)
                 (A) (A) (A) (A) (A) (A) (A) (A) (A) (A) (A) (A)
                 (A) (A) (A) (A) (A) (A) (A) (A) (A) (A) (A) (A)
                 (A) (A) (A) (A) (A) (A) (A) (A) (A) (A) (A) (A)
                 (A) (A) (A) (A) (A) (A) (A) (A) (A) (A) (A) (A)
                 (A) (A) (A) (A) (A) (A) (A) (A) (A) (A)
 The electronic state is 1-A.
 Alpha  occ. eigenvalues -- -145.52375-145.50203-145.50154 -77.25152 -19.25906
 Alpha  occ. eigenvalues --  -19.25455 -19.21784 -19.21782 -19.21332 -15.59133
 Alpha  occ. eigenvalues --  -15.57001 -15.56954 -12.72322 -12.72317 -12.72291
 Alpha  occ. eigenvalues --  -12.70209 -12.70201 -12.70162 -12.70154 -12.70122
 Alpha  occ. eigenvalues --  -12.70075  -6.70240  -4.86594  -4.86586  -4.86025
 Alpha  occ. eigenvalues --   -1.96313  -1.94236  -1.94159  -1.24341  -1.23869
 Alpha  occ. eigenvalues --   -1.23772  -1.22780  -1.22077  -1.21719  -1.21639
 Alpha  occ. eigenvalues --   -1.21522  -1.21224  -1.10042  -1.07326  -1.00851
 Alpha  occ. eigenvalues --   -1.00733  -0.89065  -0.63092  -0.51346  -0.51078
 Alpha  occ. eigenvalues --   -0.50978  -0.49235  -0.48453  -0.46043  -0.43789
 Alpha  occ. eigenvalues --   -0.43558  -0.38834  -0.38641  -0.38610  -0.35290
 Alpha  occ. eigenvalues --   -0.33980  -0.31695
 Alpha virt. eigenvalues --   -0.20296  -0.18389  -0.17633  -0.12782  -0.12594
 Alpha virt. eigenvalues --   -0.10902  -0.09914  -0.09097  -0.08255  -0.07943
 Alpha virt. eigenvalues --   -0.07346  -0.06561  -0.06018  -0.05816  -0.04924
 Alpha virt. eigenvalues --   -0.04866  -0.04856  -0.04685  -0.04486  -0.04309
 Alpha virt. eigenvalues --   -0.04013  -0.03911  -0.03218  -0.02973  -0.02947
 Alpha virt. eigenvalues --   -0.02710  -0.01825  -0.00966   0.00847   0.01990
 Alpha virt. eigenvalues --    0.02250   0.03414   0.04335   0.04544   0.04868
 Alpha virt. eigenvalues --    0.05220   0.05246   0.06160   0.06287   0.07054
 Alpha virt. eigenvalues --    0.07074   0.07103   0.07502   0.07555   0.07795
 Alpha virt. eigenvalues --    0.08504   0.09377   0.10326   0.11208   0.11839
 Alpha virt. eigenvalues --    0.12324   0.14922   0.14938   0.16121   0.17402
 Alpha virt. eigenvalues --    0.18785   0.20655   0.21080   0.21103   0.23278
 Alpha virt. eigenvalues --    0.23557   0.23711   0.24620   0.25774   0.27294
 Alpha virt. eigenvalues --    0.28000   0.29799   0.31567   0.33570   0.33943
 Alpha virt. eigenvalues --    0.34433   0.36043   0.36687   0.38777   0.39287
 Alpha virt. eigenvalues --    0.41206   0.45564   0.46012   0.53551   0.54424
 Alpha virt. eigenvalues --    0.55419   0.62689   0.63186   0.63528   0.66217
 Alpha virt. eigenvalues --    0.81586   0.85419   0.90500   0.93115   0.99285
 Alpha virt. eigenvalues --    1.11633   1.11895   1.15499   1.16020   1.17642
 Alpha virt. eigenvalues --    1.18030   1.19912   1.19986   1.20457   1.22324
 Alpha virt. eigenvalues --    1.22911   1.27533   1.31261   1.33936   1.38935
 Alpha virt. eigenvalues --    1.45492   1.46496   1.49244   1.56988   1.58139
 Alpha virt. eigenvalues --    1.60023   1.64324   1.68054   1.71387   1.73208
 Alpha virt. eigenvalues --    1.76855   1.78176   1.78949   1.81379   1.84892
 Alpha virt. eigenvalues --    1.86387   1.87079   1.89511   1.90254   1.91257
 Alpha virt. eigenvalues --    1.92849   1.93678   1.99391   2.00503   2.11381
 Alpha virt. eigenvalues --    2.21707   2.24671   2.36603   2.52368   2.56764
 Alpha virt. eigenvalues --    3.07068   3.54037   4.03197   4.09927   4.14253
 Alpha virt. eigenvalues --    4.19226   4.32931
          Condensed to atoms (all electrons):
              1          2          3          4          5          6
     1  O    8.936371   0.050338   0.066012   0.001981   0.022413   0.065759
     2  O    0.050338   8.964537   0.060614  -0.006631   0.029703   0.004926
     3  Ca   0.066012   0.060614  18.339960   0.104012   0.038090  -0.047851
     4  O    0.001981  -0.006631   0.104012   8.578896  -0.101862   0.104193
     5  O    0.022413   0.029703   0.038090  -0.101862   8.605255   0.038036
     6  Ca   0.065759   0.004926  -0.047851   0.104193   0.038036  18.338612
     7  P   -0.171828  -0.178010   0.017231   0.003474  -0.024817   0.017433
     8  O    0.050077   0.043473   0.005077  -0.006646   0.029703   0.060417
     9  Ca   0.013795   0.074604  -0.045289  -0.033198   0.088612  -0.044874
              7          8          9
     1  O   -0.171828   0.050077   0.013795
     2  O   -0.178010   0.043473   0.074604
     3  Ca   0.017231   0.005077  -0.045289
     4  O    0.003474  -0.006646  -0.033198
     5  O   -0.024817   0.029703   0.088612
     6  Ca   0.017433   0.060417  -0.044874
     7  P   14.404978  -0.177960   0.026399
     8  O   -0.177960   8.964915   0.074685
     9  Ca   0.026399   0.074685  18.362295
 Mulliken atomic charges:
              1
     1  O   -1.034917
     2  O   -1.043554
     3  Ca   1.462145
     4  O   -0.644220
     5  O   -0.725132
     6  Ca   1.463348
     7  P    1.083101
     8  O   -1.043741
     9  Ca   1.482971
 Sum of Mulliken charges=   1.00000
 Atomic charges with hydrogens summed into heavy atoms:
              1
     1  O   -1.034917
     2  O   -1.043554
     3  Ca   1.462145
     4  O   -0.644220
     5  O   -0.725132
     6  Ca   1.463348
     7  P    1.083101
     8  O   -1.043741
     9  Ca   1.482971
 Sum of Mulliken charges=   1.00000
 Electronic spatial extent (au):  <R**2>=  1728.9081
 Charge=     1.0000 electrons
 Dipole moment (field-independent basis, Debye):
    X=    -0.9416    Y=    -0.0469    Z=     6.2024  Tot=     6.2736
 Quadrupole moment (field-independent basis, Debye-Ang):
   XX=   -63.6848   YY=   -44.2003   ZZ=   -80.5622
   XY=    -0.0331   XZ=    28.3116   YZ=     0.0624
 Traceless Quadrupole moment (field-independent basis, Debye-Ang):
   XX=    -0.8691   YY=    18.6155   ZZ=   -17.7464
   XY=    -0.0331   XZ=    28.3116   YZ=     0.0624
 Octapole moment (field-independent basis, Debye-Ang**2):
  XXX=    20.1630  YYY=     0.4725  ZZZ=    45.1783  XYY=   -73.8109
  XXY=    -0.7722  XXZ=    28.1872  XZZ=    39.2205  YZZ=    -0.3040
  YYZ=     4.9193  XYZ=    -0.5765
 Hexadecapole moment (field-independent basis, Debye-Ang**3):
 XXXX=  -745.3256 YYYY=  -401.4210 ZZZZ=  -674.1605 XXXY=    -0.1804
 XXXZ=   157.7637 YYYX=    -0.0591 YYYZ=     0.4780 ZZZX=   109.8144
 ZZZY=     0.2083 XXYY=  -182.3184 XXZZ=  -218.9473 YYZZ=  -189.7332
 XXYZ=    -0.0786 YYXZ=    34.9767 ZZXY=    -0.1613
 N-N= 1.104948263386D+03 E-N=-8.710555881840D+03  KE= 2.742232117014D+03
 Merz-Kollman atomic radii used.
 Read replacement radii for each type of atom:
 Rad(20) =   1.188000000000D+00
 Atom Element Radius
    1     8    1.40
    2     8    1.40
    3    20    1.19
    4     8    1.40
    5     8    1.40
    6    20    1.19
    7    15    1.80
    8     8    1.40
    9    20    1.19

 **********************************************************************

            Electrostatic Properties Using The SCF Density

 **********************************************************************

       Atomic Center    1 is at  -0.591589  0.009647 -1.655481
       Atomic Center    2 is at   1.241538  1.283931 -0.435911
       Atomic Center    3 is at  -1.047843  1.675456 -0.130841
       Atomic Center    4 is at  -2.066859  0.001444  1.106039
       Atomic Center    5 is at  -0.606419 -0.004333  1.520709
       Atomic Center    6 is at  -1.060796 -1.668764 -0.144891
       Atomic Center    7 is at   1.063941  0.004070 -1.531201
       Atomic Center    8 is at   1.232863 -1.286279 -0.447691
       Atomic Center    9 is at   1.626871 -0.011509  1.389069
     734 points will be used for fitting atomic charges
 Fitting point charges to eletrostatic potential
 Charges from ESP fit, RMS=   0.00664 RRMS=   0.04150:
 Charge=   1.00000 Dipole=    -0.7994    -0.0497     6.0426 Tot=     6.0955
              1
     1  O   -0.945849
     2  O   -0.990667
     3  Ca   1.675288
     4  O   -0.690503
     5  O   -0.929802
     6  Ca   1.675150
     7  P    0.545709
     8  O   -0.989694
     9  Ca   1.650368
 -----------------------------------------------------------------

              Electrostatic Properties (Atomic Units)

 -----------------------------------------------------------------
    Center     Electric         -------- Electric Field --------
               Potential          X             Y             Z
 -----------------------------------------------------------------
    1 Atom    -22.248738
    2 Atom    -22.248635
    3 Atom    -80.039244
    4 Atom    -22.216133
    5 Atom    -22.204711
    6 Atom    -80.038742
    7 Atom    -53.962565
    8 Atom    -22.248467
    9 Atom    -80.016382
 -----------------------------------------------------------------
 1\1\GINC-N033\SP\RB3LYP\6-31+G(d,p)\Ca3O5P1(1+)\TIMN\12-Jun-2015\0\\# 
 b3lyp/6-31+G(d,p) int=ultrafine pop=(ReadRadii,MK)\\mol_17.27.14.pdbcc
 cc_plusQ.z58481.zip.xyz\\1,1\O,0,-0.59159,0.00965,-1.65548\O,0,1.24154
 ,1.28393,-0.43591\Ca,0,-1.04784,1.67546,-0.13084\O,0,-2.06686,0.00145,
 1.10604\O,0,-0.60642,-0.00433,1.52071\Ca,0,-1.0608,-1.66876,-0.14489\P
 ,0,1.06394,0.00407,-1.5312\O,0,1.23286,-1.28628,-0.44769\Ca,0,1.62687,
 -0.01151,1.38907\\Version=EM64T-G03RevE.01\State=1-A\HF=-2750.2488167\
 RMSD=5.375e-05\Thermal=0.\Dipole=-0.3704514,-0.0184565,2.4402114\PG=C0
 1 [X(Ca3O5P1)]\\@


 WOMEN HOLD UP HALF THE SKY. -- MAO TSE TUNG
 Job cpu time:  0 days  0 hours  1 minutes 58.1 seconds.
 File lengths (MBytes):  RWF=     36 Int=      0 D2E=      0 Chk=     11 Scr=      1
 Normal termination of Gaussian 03 at Fri Jun 12 18:02:45 2015.
