 Entering Gaussian System, Link 0=/home/timn/tmp/g03.e01/g03
 Input=mol_17.29.10.pdbcccc_plusQ.z58590.zip.xyz.gjf
 Output=mol_17.29.10.pdbcccc_plusQ.z58590.zip.xyz.out
 Initial command:
 /home/timn/tmp/g03.e01/l1.exe /home/timn/tmp/g03.e01/Gau-15650.inp -scrdir=/home/timn/tmp/g03.e01/
 Default is to use a total of   2 processors:
                                2 via shared-memory
                                1 via Linda
 Entering Link 1 = /home/timn/tmp/g03.e01/l1.exe PID=     15651.
  
 Copyright (c) 1988,1990,1992,1993,1995,1998,2003,2004,2007, Gaussian, Inc.
                  All Rights Reserved.
  
 This is the Gaussian(R) 03 program.  It is based on the
 the Gaussian(R) 98 system (copyright 1998, Gaussian, Inc.),
 the Gaussian(R) 94 system (copyright 1995, Gaussian, Inc.),
 the Gaussian 92(TM) system (copyright 1992, Gaussian, Inc.),
 the Gaussian 90(TM) system (copyright 1990, Gaussian, Inc.),
 the Gaussian 88(TM) system (copyright 1988, Gaussian, Inc.),
 the Gaussian 86(TM) system (copyright 1986, Carnegie Mellon
 University), and the Gaussian 82(TM) system (copyright 1983,
 Carnegie Mellon University). Gaussian is a federally registered
 trademark of Gaussian, Inc.
  
 This software contains proprietary and confidential information,
 including trade secrets, belonging to Gaussian, Inc.
  
 This software is provided under written license and may be
 used, copied, transmitted, or stored only in accord with that
 written license.
  
 The following legend is applicable only to US Government
 contracts under FAR:
  
                    RESTRICTED RIGHTS LEGEND
  
 Use, reproduction and disclosure by the US Government is
 subject to restrictions as set forth in subparagraphs (a)
 and (c) of the Commercial Computer Software - Restricted
 Rights clause in FAR 52.227-19.
  
 Gaussian, Inc.
 340 Quinnipiac St., Bldg. 40, Wallingford CT 06492
  
  
 ---------------------------------------------------------------
 Warning -- This program may not be used in any manner that
 competes with the business of Gaussian, Inc. or will provide
 assistance to any competitor of Gaussian, Inc.  The licensee
 of this program is prohibited from giving any competitor of
 Gaussian, Inc. access to this program.  By using this program,
 the user acknowledges that Gaussian, Inc. is engaged in the
 business of creating and licensing software in the field of
 computational chemistry and represents and warrants to the
 licensee that it is not a competitor of Gaussian, Inc. and that
 it will not use this program in any manner prohibited above.
 ---------------------------------------------------------------
  

 Cite this work as:
 Gaussian 03, Revision E.01,
 M. J. Frisch, G. W. Trucks, H. B. Schlegel, G. E. Scuseria, 
 M. A. Robb, J. R. Cheeseman, J. A. Montgomery, Jr., T. Vreven, 
 K. N. Kudin, J. C. Burant, J. M. Millam, S. S. Iyengar, J. Tomasi, 
 V. Barone, B. Mennucci, M. Cossi, G. Scalmani, N. Rega, 
 G. A. Petersson, H. Nakatsuji, M. Hada, M. Ehara, K. Toyota, 
 R. Fukuda, J. Hasegawa, M. Ishida, T. Nakajima, Y. Honda, O. Kitao, 
 H. Nakai, M. Klene, X. Li, J. E. Knox, H. P. Hratchian, J. B. Cross, 
 V. Bakken, C. Adamo, J. Jaramillo, R. Gomperts, R. E. Stratmann, 
 O. Yazyev, A. J. Austin, R. Cammi, C. Pomelli, J. W. Ochterski, 
 P. Y. Ayala, K. Morokuma, G. A. Voth, P. Salvador, J. J. Dannenberg, 
 V. G. Zakrzewski, S. Dapprich, A. D. Daniels, M. C. Strain, 
 O. Farkas, D. K. Malick, A. D. Rabuck, K. Raghavachari, 
 J. B. Foresman, J. V. Ortiz, Q. Cui, A. G. Baboul, S. Clifford, 
 J. Cioslowski, B. B. Stefanov, G. Liu, A. Liashenko, P. Piskorz, 
 I. Komaromi, R. L. Martin, D. J. Fox, T. Keith, M. A. Al-Laham, 
 C. Y. Peng, A. Nanayakkara, M. Challacombe, P. M. W. Gill, 
 B. Johnson, W. Chen, M. W. Wong, C. Gonzalez, and J. A. Pople, 
 Gaussian, Inc., Wallingford CT, 2004.
 
 ******************************************
 Gaussian 03:  EM64T-G03RevE.01 11-Sep-2007
                12-Jun-2015 
 ******************************************
 %nproc=2
 Will use up to    2 processors via shared memory.
 Default route:  MP2=Direct MaxDisk=2000MB
 ----------------------------------------------------
 # b3lyp/6-31+G(d,p) int=ultrafine pop=(ReadRadii,MK)
 ----------------------------------------------------

 Warning!  SCF SP cutoffs with diffuse functions may be unreliable.
 Consider SCF=Tight

 1/38=1/1;
 2/17=6,18=5,40=1/2;
 3/5=1,6=6,7=111,11=2,16=1,25=1,30=1,74=-5,75=5/1,2,3;
 4//1;
 5/5=2,32=1,38=5/2;
 6/7=2,8=2,9=2,10=2,15=8,20=101,28=1/1,2;
 99/5=1,9=1/99;
 -----------------------------------------
 mol_17.29.10.pdbcccc_plusQ.z58590.zip.xyz
 -----------------------------------------
 Symbolic Z-matrix:
 Charge =  1 Multiplicity = 1
 O                     1.61329   1.04075   0.01111 
 O                    -2.87489   1.41595  -0.00328 
 Ca                   -0.72612   1.51886   0.00426 
 P                     3.17059   0.86685  -0.00671 
 O                     3.41074  -0.6534   -0.01159 
 O                    -0.81924  -0.87894  -0.77637 
 O                    -0.82419  -0.88078   0.77928 
 Ca                   -3.0759   -0.694    -0.00583 
 Ca                    1.22178  -1.49243   0.00694 
 
                          Input orientation:                          
 ---------------------------------------------------------------------
 Center     Atomic     Atomic              Coordinates (Angstroms)
 Number     Number      Type              X           Y           Z
 ---------------------------------------------------------------------
    1          8             0        1.613290    1.040750    0.011110
    2          8             0       -2.874890    1.415950   -0.003280
    3         20             0       -0.726120    1.518860    0.004260
    4         15             0        3.170590    0.866850   -0.006710
    5          8             0        3.410740   -0.653400   -0.011590
    6          8             0       -0.819240   -0.878940   -0.776370
    7          8             0       -0.824190   -0.880780    0.779280
    8         20             0       -3.075900   -0.694000   -0.005830
    9         20             0        1.221780   -1.492430    0.006940
 ---------------------------------------------------------------------
                    Distance matrix (angstroms):
                    1          2          3          4          5
     1  O    0.000000
     2  O    4.503859   0.000000
     3  Ca   2.387776   2.151246   0.000000
     4  P    1.567081   6.070367   3.950897   0.000000
     5  O    2.470119   6.617509   4.672534   1.539109   0.000000
     6  O    3.197270   3.176458   2.523390   4.422545   4.304473
     7  O    3.197448   3.176907   2.523598   4.430605   4.314141
     8  Ca   4.999815   2.119505   3.227742   6.438547   6.486770
     9  Ca   2.563259   5.024090   3.586389   3.060106   2.344325
                    6          7          8          9
     6  O    0.000000
     7  O    1.555659   0.000000
     8  Ca   2.391746   2.391962   0.000000
     9  Ca   2.270618   2.270819   4.371236   0.000000
 Stoichiometry    Ca3O5P(1+)
 Framework group  C1[X(Ca3O5P)]
 Deg. of freedom    21
 Full point group                 C1
 Largest Abelian subgroup         C1      NOp   1
 Largest concise Abelian subgroup C1      NOp   1
                         Standard orientation:                         
 ---------------------------------------------------------------------
 Center     Atomic     Atomic              Coordinates (Angstroms)
 Number     Number      Type              X           Y           Z
 ---------------------------------------------------------------------
    1          8             0        1.613292    1.040750    0.011110
    2          8             0       -2.874888    1.415950   -0.003280
    3         20             0       -0.726118    1.518860    0.004260
    4         15             0        3.170592    0.866851   -0.006710
    5          8             0        3.410742   -0.653399   -0.011590
    6          8             0       -0.819238   -0.878940   -0.776370
    7          8             0       -0.824188   -0.880780    0.779280
    8         20             0       -3.075898   -0.694000   -0.005830
    9         20             0        1.221783   -1.492430    0.006940
 ---------------------------------------------------------------------
 Rotational constants (GHZ):      1.5595083      0.4315742      0.3470180
 Standard basis: 6-31+G(d,p) (6D, 7F)
 There are   199 symmetry adapted basis functions of A   symmetry.
 Integral buffers will be    131072 words long.
 Raffenetti 2 integral format.
 Two-electron integral symmetry is turned on.
   199 basis functions,   456 primitive gaussians,   199 cartesian basis functions
    57 alpha electrons       57 beta electrons
       nuclear repulsion energy       978.3626396402 Hartrees.
 NAtoms=    9 NActive=    9 NUniq=    9 SFac= 7.50D-01 NAtFMM=   80 NAOKFM=F Big=F
 One-electron integrals computed using PRISM.
 NBasis=   199 RedAO= T  NBF=   199
 NBsUse=   199 1.00D-06 NBFU=   199
 Harris functional with IExCor=  402 diagonalized for initial guess.
 ExpMin= 7.10D-03 ExpMax= 3.53D+04 ExpMxC= 5.30D+03 IAcc=3 IRadAn=         5 AccDes= 0.00D+00
 HarFok:  IExCor= 402 AccDes= 0.00D+00 IRadAn=         5 IDoV=1
 ScaDFX=  1.000000  1.000000  1.000000  1.000000
 Initial guess orbital symmetries:
       Occupied  (A) (A) (A) (A) (A) (A) (A) (A) (A) (A) (A) (A)
                 (A) (A) (A) (A) (A) (A) (A) (A) (A) (A) (A) (A)
                 (A) (A) (A) (A) (A) (A) (A) (A) (A) (A) (A) (A)
                 (A) (A) (A) (A) (A) (A) (A) (A) (A) (A) (A) (A)
                 (A) (A) (A) (A) (A) (A) (A) (A) (A)
       Virtual   (A) (A) (A) (A) (A) (A) (A) (A) (A) (A) (A) (A)
                 (A) (A) (A) (A) (A) (A) (A) (A) (A) (A) (A) (A)
                 (A) (A) (A) (A) (A) (A) (A) (A) (A) (A) (A) (A)
                 (A) (A) (A) (A) (A) (A) (A) (A) (A) (A) (A) (A)
                 (A) (A) (A) (A) (A) (A) (A) (A) (A) (A) (A) (A)
                 (A) (A) (A) (A) (A) (A) (A) (A) (A) (A) (A) (A)
                 (A) (A) (A) (A) (A) (A) (A) (A) (A) (A) (A) (A)
                 (A) (A) (A) (A) (A) (A) (A) (A) (A) (A) (A) (A)
                 (A) (A) (A) (A) (A) (A) (A) (A) (A) (A) (A) (A)
                 (A) (A) (A) (A) (A) (A) (A) (A) (A) (A) (A) (A)
                 (A) (A) (A) (A) (A) (A) (A) (A) (A) (A) (A) (A)
                 (A) (A) (A) (A) (A) (A) (A) (A) (A) (A)
 The electronic state of the initial guess is 1-A.
 Requested convergence on RMS density matrix=1.00D-04 within 128 cycles.
 Requested convergence on MAX density matrix=1.00D-02.
 Requested convergence on             energy=1.00D-02.
 No special actions if energy rises.
 EnCoef did     3 forward-backward iterations
 SCF Done:  E(RB+HF-LYP) =  -2750.19922614     A.U. after    8 cycles
             Convg  =    0.8779D-04             -V/T =  2.0029
             S**2   =   0.0000

 **********************************************************************

            Population analysis using the SCF density.

 **********************************************************************

 Orbital symmetries:
       Occupied  (A) (A) (A) (A) (A) (A) (A) (A) (A) (A) (A) (A)
                 (A) (A) (A) (A) (A) (A) (A) (A) (A) (A) (A) (A)
                 (A) (A) (A) (A) (A) (A) (A) (A) (A) (A) (A) (A)
                 (A) (A) (A) (A) (A) (A) (A) (A) (A) (A) (A) (A)
                 (A) (A) (A) (A) (A) (A) (A) (A) (A)
       Virtual   (A) (A) (A) (A) (A) (A) (A) (A) (A) (A) (A) (A)
                 (A) (A) (A) (A) (A) (A) (A) (A) (A) (A) (A) (A)
                 (A) (A) (A) (A) (A) (A) (A) (A) (A) (A) (A) (A)
                 (A) (A) (A) (A) (A) (A) (A) (A) (A) (A) (A) (A)
                 (A) (A) (A) (A) (A) (A) (A) (A) (A) (A) (A) (A)
                 (A) (A) (A) (A) (A) (A) (A) (A) (A) (A) (A) (A)
                 (A) (A) (A) (A) (A) (A) (A) (A) (A) (A) (A) (A)
                 (A) (A) (A) (A) (A) (A) (A) (A) (A) (A) (A) (A)
                 (A) (A) (A) (A) (A) (A) (A) (A) (A) (A) (A) (A)
                 (A) (A) (A) (A) (A) (A) (A) (A) (A) (A) (A) (A)
                 (A) (A) (A) (A) (A) (A) (A) (A) (A) (A) (A) (A)
                 (A) (A) (A) (A) (A) (A) (A) (A) (A) (A)
 The electronic state is 1-A.
 Alpha  occ. eigenvalues -- -145.53301-145.48102-145.46501 -77.31648 -19.29958
 Alpha  occ. eigenvalues --  -19.29139 -19.27658 -19.27653 -19.10311 -15.60147
 Alpha  occ. eigenvalues --  -15.54939 -15.53360 -12.73383 -12.73378 -12.73213
 Alpha  occ. eigenvalues --  -12.68157 -12.68121 -12.68042 -12.66614 -12.66578
 Alpha  occ. eigenvalues --  -12.66409  -6.77272  -4.93704  -4.93472  -4.93054
 Alpha  occ. eigenvalues --   -1.97332  -1.92136  -1.90669  -1.25314  -1.25144
 Alpha  occ. eigenvalues --   -1.25004  -1.20357  -1.19791  -1.19240  -1.18530
 Alpha  occ. eigenvalues --   -1.18453  -1.17871  -1.15551  -1.10912  -1.09764
 Alpha  occ. eigenvalues --   -0.91292  -0.84521  -0.68930  -0.57898  -0.55271
 Alpha  occ. eigenvalues --   -0.54482  -0.51224  -0.50448  -0.49465  -0.46902
 Alpha  occ. eigenvalues --   -0.45456  -0.42699  -0.38849  -0.36717  -0.30148
 Alpha  occ. eigenvalues --   -0.28563  -0.28510
 Alpha virt. eigenvalues --   -0.21597  -0.19565  -0.17911  -0.15028  -0.15012
 Alpha virt. eigenvalues --   -0.11255  -0.10532  -0.09853  -0.09289  -0.08794
 Alpha virt. eigenvalues --   -0.08673  -0.08136  -0.07318  -0.06844  -0.06403
 Alpha virt. eigenvalues --   -0.05270  -0.05161  -0.04773  -0.04393  -0.04325
 Alpha virt. eigenvalues --   -0.04067  -0.03928  -0.03832  -0.03754  -0.03164
 Alpha virt. eigenvalues --   -0.02886  -0.02820  -0.02756  -0.02036  -0.00679
 Alpha virt. eigenvalues --    0.01191   0.02368   0.03018   0.03129   0.03557
 Alpha virt. eigenvalues --    0.04612   0.04769   0.05246   0.05720   0.05973
 Alpha virt. eigenvalues --    0.06043   0.07069   0.07150   0.08138   0.08649
 Alpha virt. eigenvalues --    0.09107   0.09289   0.10065   0.10525   0.11195
 Alpha virt. eigenvalues --    0.12822   0.12894   0.14774   0.15000   0.16231
 Alpha virt. eigenvalues --    0.16454   0.16530   0.17569   0.18106   0.20914
 Alpha virt. eigenvalues --    0.21382   0.22316   0.22843   0.23445   0.24457
 Alpha virt. eigenvalues --    0.26190   0.28127   0.28794   0.29848   0.31213
 Alpha virt. eigenvalues --    0.31311   0.33452   0.35769   0.37586   0.39304
 Alpha virt. eigenvalues --    0.42541   0.43241   0.45401   0.47287   0.47387
 Alpha virt. eigenvalues --    0.51485   0.53832   0.56496   0.60332   0.61241
 Alpha virt. eigenvalues --    0.63764   0.84707   0.89743   0.94113   0.99234
 Alpha virt. eigenvalues --    1.04396   1.06948   1.08622   1.10106   1.11249
 Alpha virt. eigenvalues --    1.11305   1.14314   1.15318   1.17563   1.19311
 Alpha virt. eigenvalues --    1.19828   1.21078   1.24058   1.29926   1.34428
 Alpha virt. eigenvalues --    1.35822   1.41119   1.46717   1.47083   1.53216
 Alpha virt. eigenvalues --    1.54227   1.60403   1.65374   1.66151   1.66524
 Alpha virt. eigenvalues --    1.69471   1.73045   1.74280   1.76447   1.78981
 Alpha virt. eigenvalues --    1.82235   1.83832   1.84160   1.86186   1.87442
 Alpha virt. eigenvalues --    1.89438   1.92634   1.95944   2.01021   2.04350
 Alpha virt. eigenvalues --    2.16462   2.17805   2.17891   2.50717   2.67343
 Alpha virt. eigenvalues --    3.00518   3.38856   3.87249   3.89011   4.00828
 Alpha virt. eigenvalues --    4.08741   4.08987
          Condensed to atoms (all electrons):
              1          2          3          4          5          6
     1  O    8.921061  -0.005208   0.034090  -0.159777  -0.074550  -0.000454
     2  O   -0.005208   8.679323   0.224540  -0.001398   0.000000   0.000546
     3  Ca   0.034090   0.224540  18.364725  -0.006692   0.003469   0.027790
     4  P   -0.159777  -0.001398  -0.006692  14.415707   0.111153  -0.004212
     5  O   -0.074550   0.000000   0.003469   0.111153   8.529529  -0.001187
     6  O   -0.000454   0.000546   0.027790  -0.004212  -0.001187   8.577128
     7  O   -0.000398   0.000591   0.027489  -0.004089  -0.001319  -0.050374
     8  Ca   0.005504   0.224139  -0.027452  -0.012405   0.001060   0.050784
     9  Ca   0.022370   0.001294  -0.004180  -0.018411   0.079179   0.094561
              7          8          9
     1  O   -0.000398   0.005504   0.022370
     2  O    0.000591   0.224139   0.001294
     3  Ca   0.027489  -0.027452  -0.004180
     4  P   -0.004089  -0.012405  -0.018411
     5  O   -0.001319   0.001060   0.079179
     6  O   -0.050374   0.050784   0.094561
     7  O    8.576531   0.050913   0.094742
     8  Ca   0.050913  18.361422  -0.016938
     9  Ca   0.094742  -0.016938  18.244231
 Mulliken atomic charges:
              1
     1  O   -0.742638
     2  O   -1.123828
     3  Ca   1.356221
     4  P    0.680124
     5  O   -0.647335
     6  O   -0.694581
     7  O   -0.694088
     8  Ca   1.362972
     9  Ca   1.503152
 Sum of Mulliken charges=   1.00000
 Atomic charges with hydrogens summed into heavy atoms:
              1
     1  O   -0.742638
     2  O   -1.123828
     3  Ca   1.356221
     4  P    0.680124
     5  O   -0.647335
     6  O   -0.694581
     7  O   -0.694088
     8  Ca   1.362972
     9  Ca   1.503152
 Sum of Mulliken charges=   1.00000
 Electronic spatial extent (au):  <R**2>=  2764.6182
 Charge=     1.0000 electrons
 Dipole moment (field-independent basis, Debye):
    X=     0.3529    Y=    -7.6416    Z=     0.0366  Tot=     7.6498
 Quadrupole moment (field-independent basis, Debye-Ang):
   XX=   -63.4163   YY=   -57.0628   ZZ=   -77.2567
   XY=    23.1617   XZ=     0.1700   YZ=    -0.0320
 Traceless Quadrupole moment (field-independent basis, Debye-Ang):
   XX=     2.4956   YY=     8.8491   ZZ=   -11.3447
   XY=    23.1617   XZ=     0.1700   YZ=    -0.0320
 Octapole moment (field-independent basis, Debye-Ang**2):
  XXX=  -107.7435  YYY=   -38.0145  ZZZ=     0.1036  XYY=    27.7374
  XXY=  -109.5344  XXZ=     0.1098  XZZ=     2.9027  YZZ=    -3.4982
  YYZ=     0.2462  XYZ=    -0.5102
 Hexadecapole moment (field-independent basis, Debye-Ang**3):
 XXXX= -2335.1087 YYYY=  -569.6825 ZZZZ=  -129.6029 XXXY=   483.7341
 XXXZ=     2.5075 YYYX=     2.8805 YYYZ=     0.0010 ZZZX=     0.3679
 ZZZY=     0.0239 XXYY=  -576.0125 XXZZ=  -421.9504 YYZZ=  -130.0621
 XXYZ=     0.1063 YYXZ=     0.2527 ZZXY=     6.1389
 N-N= 9.783626396402D+02 E-N=-8.456723234699D+03  KE= 2.742194799799D+03
 Merz-Kollman atomic radii used.
 Read replacement radii for each type of atom:
 Rad(20) =   1.188000000000D+00
 Atom Element Radius
    1     8    1.40
    2     8    1.40
    3    20    1.19
    4    15    1.80
    5     8    1.40
    6     8    1.40
    7     8    1.40
    8    20    1.19
    9    20    1.19

 **********************************************************************

            Electrostatic Properties Using The SCF Density

 **********************************************************************

       Atomic Center    1 is at   1.613292  1.040750  0.011110
       Atomic Center    2 is at  -2.874888  1.415950 -0.003280
       Atomic Center    3 is at  -0.726118  1.518860  0.004260
       Atomic Center    4 is at   3.170592  0.866851 -0.006710
       Atomic Center    5 is at   3.410742 -0.653399 -0.011590
       Atomic Center    6 is at  -0.819238 -0.878940 -0.776370
       Atomic Center    7 is at  -0.824188 -0.880780  0.779280
       Atomic Center    8 is at  -3.075898 -0.694000 -0.005830
       Atomic Center    9 is at   1.221783 -1.492430  0.006940
     878 points will be used for fitting atomic charges
 Fitting point charges to eletrostatic potential
 Charges from ESP fit, RMS=   0.00500 RRMS=   0.03340:
 Charge=   1.00000 Dipole=     0.0783    -7.7078     0.0327 Tot=     7.7083
              1
     1  O   -0.760916
     2  O   -1.477799
     3  Ca   1.664866
     4  P    0.595221
     5  O   -0.647348
     6  O   -0.867977
     7  O   -0.868200
     8  Ca   1.630985
     9  Ca   1.731168
 -----------------------------------------------------------------

              Electrostatic Properties (Atomic Units)

 -----------------------------------------------------------------
    Center     Electric         -------- Electric Field --------
               Potential          X             Y             Z
 -----------------------------------------------------------------
    1 Atom    -22.165609
    2 Atom    -22.360311
    3 Atom    -80.075566
    4 Atom    -53.900342
    5 Atom    -22.175265
    6 Atom    -22.188361
    7 Atom    -22.188337
    8 Atom    -80.060478
    9 Atom    -80.007441
 -----------------------------------------------------------------
 1\1\GINC-N035\SP\RB3LYP\6-31+G(d,p)\Ca3O5P1(1+)\TIMN\12-Jun-2015\0\\# 
 b3lyp/6-31+G(d,p) int=ultrafine pop=(ReadRadii,MK)\\mol_17.29.10.pdbcc
 cc_plusQ.z58590.zip.xyz\\1,1\O,0,1.61329,1.04075,0.01111\O,0,-2.87489,
 1.41595,-0.00328\Ca,0,-0.72612,1.51886,0.00426\P,0,3.17059,0.86685,-0.
 00671\O,0,3.41074,-0.6534,-0.01159\O,0,-0.81924,-0.87894,-0.77637\O,0,
 -0.82419,-0.88078,0.77928\Ca,0,-3.0759,-0.694,-0.00583\Ca,0,1.22178,-1
 .49243,0.00694\\Version=EM64T-G03RevE.01\State=1-A\HF=-2750.1992261\RM
 SD=8.779e-05\Thermal=0.\Dipole=0.1388481,-3.0064294,0.0143997\PG=C01 [
 X(Ca3O5P1)]\\@


 We're simply so accustomed to the marvels of everyday thought
 that we never wonder about it.
 -- Marvin Minsky in "Why people think computers are smart"
 Job cpu time:  0 days  0 hours  1 minutes 56.3 seconds.
 File lengths (MBytes):  RWF=     36 Int=      0 D2E=      0 Chk=     11 Scr=      1
 Normal termination of Gaussian 03 at Fri Jun 12 18:11:17 2015.
