 Entering Gaussian System, Link 0=/home/timn/tmp/g03.e01/g03
 Input=mol_17.27.37.pdbc_plusQ.z58503.zip.xyz.gjf
 Output=mol_17.27.37.pdbc_plusQ.z58503.zip.xyz.out
 Initial command:
 /home/timn/tmp/g03.e01/l1.exe /home/timn/tmp/g03.e01/Gau-15011.inp -scrdir=/home/timn/tmp/g03.e01/
 Default is to use a total of   2 processors:
                                2 via shared-memory
                                1 via Linda
 Entering Link 1 = /home/timn/tmp/g03.e01/l1.exe PID=     15012.
  
 Copyright (c) 1988,1990,1992,1993,1995,1998,2003,2004,2007, Gaussian, Inc.
                  All Rights Reserved.
  
 This is the Gaussian(R) 03 program.  It is based on the
 the Gaussian(R) 98 system (copyright 1998, Gaussian, Inc.),
 the Gaussian(R) 94 system (copyright 1995, Gaussian, Inc.),
 the Gaussian 92(TM) system (copyright 1992, Gaussian, Inc.),
 the Gaussian 90(TM) system (copyright 1990, Gaussian, Inc.),
 the Gaussian 88(TM) system (copyright 1988, Gaussian, Inc.),
 the Gaussian 86(TM) system (copyright 1986, Carnegie Mellon
 University), and the Gaussian 82(TM) system (copyright 1983,
 Carnegie Mellon University). Gaussian is a federally registered
 trademark of Gaussian, Inc.
  
 This software contains proprietary and confidential information,
 including trade secrets, belonging to Gaussian, Inc.
  
 This software is provided under written license and may be
 used, copied, transmitted, or stored only in accord with that
 written license.
  
 The following legend is applicable only to US Government
 contracts under FAR:
  
                    RESTRICTED RIGHTS LEGEND
  
 Use, reproduction and disclosure by the US Government is
 subject to restrictions as set forth in subparagraphs (a)
 and (c) of the Commercial Computer Software - Restricted
 Rights clause in FAR 52.227-19.
  
 Gaussian, Inc.
 340 Quinnipiac St., Bldg. 40, Wallingford CT 06492
  
  
 ---------------------------------------------------------------
 Warning -- This program may not be used in any manner that
 competes with the business of Gaussian, Inc. or will provide
 assistance to any competitor of Gaussian, Inc.  The licensee
 of this program is prohibited from giving any competitor of
 Gaussian, Inc. access to this program.  By using this program,
 the user acknowledges that Gaussian, Inc. is engaged in the
 business of creating and licensing software in the field of
 computational chemistry and represents and warrants to the
 licensee that it is not a competitor of Gaussian, Inc. and that
 it will not use this program in any manner prohibited above.
 ---------------------------------------------------------------
  

 Cite this work as:
 Gaussian 03, Revision E.01,
 M. J. Frisch, G. W. Trucks, H. B. Schlegel, G. E. Scuseria, 
 M. A. Robb, J. R. Cheeseman, J. A. Montgomery, Jr., T. Vreven, 
 K. N. Kudin, J. C. Burant, J. M. Millam, S. S. Iyengar, J. Tomasi, 
 V. Barone, B. Mennucci, M. Cossi, G. Scalmani, N. Rega, 
 G. A. Petersson, H. Nakatsuji, M. Hada, M. Ehara, K. Toyota, 
 R. Fukuda, J. Hasegawa, M. Ishida, T. Nakajima, Y. Honda, O. Kitao, 
 H. Nakai, M. Klene, X. Li, J. E. Knox, H. P. Hratchian, J. B. Cross, 
 V. Bakken, C. Adamo, J. Jaramillo, R. Gomperts, R. E. Stratmann, 
 O. Yazyev, A. J. Austin, R. Cammi, C. Pomelli, J. W. Ochterski, 
 P. Y. Ayala, K. Morokuma, G. A. Voth, P. Salvador, J. J. Dannenberg, 
 V. G. Zakrzewski, S. Dapprich, A. D. Daniels, M. C. Strain, 
 O. Farkas, D. K. Malick, A. D. Rabuck, K. Raghavachari, 
 J. B. Foresman, J. V. Ortiz, Q. Cui, A. G. Baboul, S. Clifford, 
 J. Cioslowski, B. B. Stefanov, G. Liu, A. Liashenko, P. Piskorz, 
 I. Komaromi, R. L. Martin, D. J. Fox, T. Keith, M. A. Al-Laham, 
 C. Y. Peng, A. Nanayakkara, M. Challacombe, P. M. W. Gill, 
 B. Johnson, W. Chen, M. W. Wong, C. Gonzalez, and J. A. Pople, 
 Gaussian, Inc., Wallingford CT, 2004.
 
 ******************************************
 Gaussian 03:  EM64T-G03RevE.01 11-Sep-2007
                12-Jun-2015 
 ******************************************
 %nproc=2
 Will use up to    2 processors via shared memory.
 Default route:  MP2=Direct MaxDisk=2000MB
 ----------------------------------------------------
 # b3lyp/6-31+G(d,p) int=ultrafine pop=(ReadRadii,MK)
 ----------------------------------------------------

 Warning!  SCF SP cutoffs with diffuse functions may be unreliable.
 Consider SCF=Tight

 1/38=1/1;
 2/17=6,18=5,40=1/2;
 3/5=1,6=6,7=111,11=2,16=1,25=1,30=1,74=-5,75=5/1,2,3;
 4//1;
 5/5=2,32=1,38=5/2;
 6/7=2,8=2,9=2,10=2,15=8,20=101,28=1/1,2;
 99/5=1,9=1/99;
 --------------------------------------
 mol_17.27.37.pdbc_plusQ.z58503.zip.xyz
 --------------------------------------
 Symbolic Z-matrix:
 Charge =  1 Multiplicity = 1
 O                    -1.54881  -1.91059   0.00116 
 O                     2.2363   -0.96231  -0.78611 
 O                     2.23699  -0.95814   0.78696 
 Ca                    2.43587   1.16778  -0.00515 
 Ca                    0.68775  -2.33349   0.00472 
 P                    -2.86029  -1.09769  -0.00643 
 Ca                   -1.39693   2.37457   0.00458 
 O                    -2.5817    0.41833  -0.00132 
 O                     0.70353   2.44871   0.00101 
 
                          Input orientation:                          
 ---------------------------------------------------------------------
 Center     Atomic     Atomic              Coordinates (Angstroms)
 Number     Number      Type              X           Y           Z
 ---------------------------------------------------------------------
    1          8             0       -1.548810   -1.910590    0.001160
    2          8             0        2.236300   -0.962310   -0.786110
    3          8             0        2.236990   -0.958140    0.786960
    4         20             0        2.435870    1.167780   -0.005150
    5         20             0        0.687750   -2.333490    0.004720
    6         15             0       -2.860290   -1.097690   -0.006430
    7         20             0       -1.396930    2.374570    0.004580
    8          8             0       -2.581700    0.418330   -0.001320
    9          8             0        0.703530    2.448710    0.001010
 ---------------------------------------------------------------------
                    Distance matrix (angstroms):
                    1          2          3          4          5
     1  O    0.000000
     2  O    3.980714   0.000000
     3  O    3.982075   1.573076   0.000000
     4  Ca   5.035283   2.277501   2.277395   0.000000
     5  Ca   2.276194   2.214397   2.214415   3.913427   0.000000
     6  P    1.542998   5.157660   5.160543   5.760353   3.757115
     7  Ca   4.287852   4.996030   4.992439   4.018307   5.148953
     8  O    2.547692   5.072986   5.073049   5.073234   4.273389
     9  O    4.906784   3.821518   3.817832   2.154489   4.782227
                    6          7          8          9
     6  P    0.000000
     7  Ca   3.768041   0.000000
     8  O    1.541413   2.287048   0.000000
     9  O    5.027705   2.101771   3.862018   0.000000
 Stoichiometry    Ca3O5P(1+)
 Framework group  C1[X(Ca3O5P)]
 Deg. of freedom    21
 Full point group                 C1
 Largest Abelian subgroup         C1      NOp   1
 Largest concise Abelian subgroup C1      NOp   1
                         Standard orientation:                         
 ---------------------------------------------------------------------
 Center     Atomic     Atomic              Coordinates (Angstroms)
 Number     Number      Type              X           Y           Z
 ---------------------------------------------------------------------
    1          8             0       -1.548803   -1.910594    0.001159
    2          8             0        2.236304   -0.962301   -0.786111
    3          8             0        2.236994   -0.958131    0.786959
    4         20             0        2.435866    1.167790   -0.005151
    5         20             0        0.687759   -2.333486    0.004719
    6         15             0       -2.860285   -1.097699   -0.006431
    7         20             0       -1.396938    2.374566    0.004579
    8          8             0       -2.581701    0.418322   -0.001321
    9          8             0        0.703522    2.448714    0.001009
 ---------------------------------------------------------------------
 Rotational constants (GHZ):      0.6819504      0.5492376      0.3116475
 Standard basis: 6-31+G(d,p) (6D, 7F)
 There are   199 symmetry adapted basis functions of A   symmetry.
 Integral buffers will be    131072 words long.
 Raffenetti 2 integral format.
 Two-electron integral symmetry is turned on.
   199 basis functions,   456 primitive gaussians,   199 cartesian basis functions
    57 alpha electrons       57 beta electrons
       nuclear repulsion energy       907.3100881642 Hartrees.
 NAtoms=    9 NActive=    9 NUniq=    9 SFac= 7.50D-01 NAtFMM=   80 NAOKFM=F Big=F
 One-electron integrals computed using PRISM.
 NBasis=   199 RedAO= T  NBF=   199
 NBsUse=   199 1.00D-06 NBFU=   199
 Harris functional with IExCor=  402 diagonalized for initial guess.
 ExpMin= 7.10D-03 ExpMax= 3.53D+04 ExpMxC= 5.30D+03 IAcc=3 IRadAn=         5 AccDes= 0.00D+00
 HarFok:  IExCor= 402 AccDes= 0.00D+00 IRadAn=         5 IDoV=1
 ScaDFX=  1.000000  1.000000  1.000000  1.000000
 Initial guess orbital symmetries:
       Occupied  (A) (A) (A) (A) (A) (A) (A) (A) (A) (A) (A) (A)
                 (A) (A) (A) (A) (A) (A) (A) (A) (A) (A) (A) (A)
                 (A) (A) (A) (A) (A) (A) (A) (A) (A) (A) (A) (A)
                 (A) (A) (A) (A) (A) (A) (A) (A) (A) (A) (A) (A)
                 (A) (A) (A) (A) (A) (A) (A) (A) (A)
       Virtual   (A) (A) (A) (A) (A) (A) (A) (A) (A) (A) (A) (A)
                 (A) (A) (A) (A) (A) (A) (A) (A) (A) (A) (A) (A)
                 (A) (A) (A) (A) (A) (A) (A) (A) (A) (A) (A) (A)
                 (A) (A) (A) (A) (A) (A) (A) (A) (A) (A) (A) (A)
                 (A) (A) (A) (A) (A) (A) (A) (A) (A) (A) (A) (A)
                 (A) (A) (A) (A) (A) (A) (A) (A) (A) (A) (A) (A)
                 (A) (A) (A) (A) (A) (A) (A) (A) (A) (A) (A) (A)
                 (A) (A) (A) (A) (A) (A) (A) (A) (A) (A) (A) (A)
                 (A) (A) (A) (A) (A) (A) (A) (A) (A) (A) (A) (A)
                 (A) (A) (A) (A) (A) (A) (A) (A) (A) (A) (A) (A)
                 (A) (A) (A) (A) (A) (A) (A) (A) (A) (A) (A) (A)
                 (A) (A) (A) (A) (A) (A) (A) (A) (A) (A)
 The electronic state of the initial guess is 1-A.
 Requested convergence on RMS density matrix=1.00D-04 within 128 cycles.
 Requested convergence on MAX density matrix=1.00D-02.
 Requested convergence on             energy=1.00D-02.
 No special actions if energy rises.
 EnCoef did     2 forward-backward iterations
 SCF Done:  E(RB+HF-LYP) =  -2750.19709148     A.U. after    8 cycles
             Convg  =    0.5822D-04             -V/T =  2.0029
             S**2   =   0.0000

 **********************************************************************

            Population analysis using the SCF density.

 **********************************************************************

 Orbital symmetries:
       Occupied  (A) (A) (A) (A) (A) (A) (A) (A) (A) (A) (A) (A)
                 (A) (A) (A) (A) (A) (A) (A) (A) (A) (A) (A) (A)
                 (A) (A) (A) (A) (A) (A) (A) (A) (A) (A) (A) (A)
                 (A) (A) (A) (A) (A) (A) (A) (A) (A) (A) (A) (A)
                 (A) (A) (A) (A) (A) (A) (A) (A) (A)
       Virtual   (A) (A) (A) (A) (A) (A) (A) (A) (A) (A) (A) (A)
                 (A) (A) (A) (A) (A) (A) (A) (A) (A) (A) (A) (A)
                 (A) (A) (A) (A) (A) (A) (A) (A) (A) (A) (A) (A)
                 (A) (A) (A) (A) (A) (A) (A) (A) (A) (A) (A) (A)
                 (A) (A) (A) (A) (A) (A) (A) (A) (A) (A) (A) (A)
                 (A) (A) (A) (A) (A) (A) (A) (A) (A) (A) (A) (A)
                 (A) (A) (A) (A) (A) (A) (A) (A) (A) (A) (A) (A)
                 (A) (A) (A) (A) (A) (A) (A) (A) (A) (A) (A) (A)
                 (A) (A) (A) (A) (A) (A) (A) (A) (A) (A) (A) (A)
                 (A) (A) (A) (A) (A) (A) (A) (A) (A) (A) (A) (A)
                 (A) (A) (A) (A) (A) (A) (A) (A) (A) (A) (A) (A)
                 (A) (A) (A) (A) (A) (A) (A) (A) (A) (A)
 The electronic state is 1-A.
 Alpha  occ. eigenvalues -- -145.50294-145.49505-145.43944 -77.29896 -19.27840
 Alpha  occ. eigenvalues --  -19.27677 -19.22465 -19.22458 -19.12091 -15.57156
 Alpha  occ. eigenvalues --  -15.56404 -15.50914 -12.70394 -12.70373 -12.70226
 Alpha  occ. eigenvalues --  -12.69658 -12.69612 -12.69441 -12.64139 -12.64136
 Alpha  occ. eigenvalues --  -12.63950  -6.75413  -4.91858  -4.91633  -4.91188
 Alpha  occ. eigenvalues --   -1.94359  -1.93643  -1.88336  -1.22324  -1.22051
 Alpha  occ. eigenvalues --   -1.21957  -1.21499  -1.21372  -1.20546  -1.16507
 Alpha  occ. eigenvalues --   -1.16123  -1.15600  -1.13680  -1.08457  -1.04674
 Alpha  occ. eigenvalues --   -0.86233  -0.86201  -0.67744  -0.57311  -0.52548
 Alpha  occ. eigenvalues --   -0.52477  -0.45792  -0.45749  -0.44705  -0.43907
 Alpha  occ. eigenvalues --   -0.42954  -0.40365  -0.34045  -0.32524  -0.30938
 Alpha  occ. eigenvalues --   -0.30484  -0.30297
 Alpha virt. eigenvalues --   -0.19697  -0.18381  -0.17469  -0.14044  -0.12042
 Alpha virt. eigenvalues --   -0.10562  -0.10159  -0.08886  -0.08328  -0.08285
 Alpha virt. eigenvalues --   -0.07007  -0.06742  -0.06059  -0.05994  -0.05473
 Alpha virt. eigenvalues --   -0.04787  -0.04660  -0.04651  -0.04460  -0.04382
 Alpha virt. eigenvalues --   -0.04061  -0.03939  -0.03803  -0.03370  -0.02990
 Alpha virt. eigenvalues --   -0.02858  -0.02425  -0.02375  -0.02089  -0.01503
 Alpha virt. eigenvalues --    0.01132   0.02449   0.03483   0.03976   0.04635
 Alpha virt. eigenvalues --    0.04937   0.05173   0.05431   0.06689   0.06912
 Alpha virt. eigenvalues --    0.07564   0.08297   0.08573   0.08992   0.09601
 Alpha virt. eigenvalues --    0.09653   0.10239   0.11136   0.11882   0.12194
 Alpha virt. eigenvalues --    0.12225   0.13361   0.14892   0.15237   0.15736
 Alpha virt. eigenvalues --    0.15775   0.17031   0.17578   0.18858   0.20307
 Alpha virt. eigenvalues --    0.21094   0.21623   0.22335   0.24881   0.26103
 Alpha virt. eigenvalues --    0.27541   0.29227   0.29342   0.31929   0.32643
 Alpha virt. eigenvalues --    0.34046   0.35272   0.36766   0.38324   0.38747
 Alpha virt. eigenvalues --    0.39872   0.40865   0.42745   0.48139   0.48697
 Alpha virt. eigenvalues --    0.55392   0.57453   0.58887   0.63678   0.71289
 Alpha virt. eigenvalues --    0.76064   0.83530   0.88313   0.90041   0.92473
 Alpha virt. eigenvalues --    1.01038   1.06413   1.08364   1.09613   1.11116
 Alpha virt. eigenvalues --    1.13591   1.13862   1.16774   1.17025   1.18924
 Alpha virt. eigenvalues --    1.20454   1.23600   1.24909   1.27409   1.28099
 Alpha virt. eigenvalues --    1.33717   1.40267   1.41722   1.46692   1.50148
 Alpha virt. eigenvalues --    1.53246   1.57295   1.61786   1.65500   1.65616
 Alpha virt. eigenvalues --    1.68032   1.70911   1.74547   1.78119   1.82805
 Alpha virt. eigenvalues --    1.83917   1.85421   1.85508   1.86500   1.87575
 Alpha virt. eigenvalues --    1.89048   1.89335   1.92533   2.01689   2.04888
 Alpha virt. eigenvalues --    2.09675   2.19751   2.20022   2.53858   2.68549
 Alpha virt. eigenvalues --    3.03364   3.40054   3.82441   3.90607   3.95292
 Alpha virt. eigenvalues --    4.00201   4.07310
          Condensed to atoms (all electrons):
              1          2          3          4          5          6
     1  O    8.910530  -0.000191  -0.000213  -0.006375   0.066918  -0.203181
     2  O   -0.000191   8.563085  -0.085092   0.080279   0.117504  -0.001152
     3  O   -0.000213  -0.085092   8.562855   0.079643   0.118059  -0.001435
     4  Ca  -0.006375   0.080279   0.079643  18.280158  -0.022393   0.045598
     5  Ca   0.066918   0.117504   0.118059  -0.022393  18.253807  -0.052173
     6  P   -0.203181  -0.001152  -0.001435   0.045598  -0.052173  14.787325
     7  Ca   0.006646   0.002351   0.002660  -0.016463   0.007251  -0.047056
     8  O   -0.072248   0.000098   0.000117  -0.007271   0.003788  -0.181250
     9  O    0.001141  -0.000392  -0.000310   0.173370   0.009355  -0.003061
              7          8          9
     1  O    0.006646  -0.072248   0.001141
     2  O    0.002351   0.000098  -0.000392
     3  O    0.002660   0.000117  -0.000310
     4  Ca  -0.016463  -0.007271   0.173370
     5  Ca   0.007251   0.003788   0.009355
     6  P   -0.047056  -0.181250  -0.003061
     7  Ca  18.282839   0.059461   0.245576
     8  O    0.059461   8.901707   0.000135
     9  O    0.245576   0.000135   8.818309
 Mulliken atomic charges:
              1
     1  O   -0.703027
     2  O   -0.676491
     3  O   -0.676283
     4  Ca   1.393454
     5  Ca   1.497885
     6  P    0.656386
     7  Ca   1.456734
     8  O   -0.704536
     9  O   -1.244123
 Sum of Mulliken charges=   1.00000
 Atomic charges with hydrogens summed into heavy atoms:
              1
     1  O   -0.703027
     2  O   -0.676491
     3  O   -0.676283
     4  Ca   1.393454
     5  Ca   1.497885
     6  P    0.656386
     7  Ca   1.456734
     8  O   -0.704536
     9  O   -1.244123
 Sum of Mulliken charges=   1.00000
 Electronic spatial extent (au):  <R**2>=  3041.4463
 Charge=     1.0000 electrons
 Dipole moment (field-independent basis, Debye):
    X=    -1.9445    Y=     0.4972    Z=     0.0136  Tot=     2.0071
 Quadrupole moment (field-independent basis, Debye-Ang):
   XX=   -56.0952   YY=   -34.7222   ZZ=   -77.5547
   XY=   -11.0280   XZ=    -0.1241   YZ=    -0.0581
 Traceless Quadrupole moment (field-independent basis, Debye-Ang):
   XX=     0.0288   YY=    21.4018   ZZ=   -21.4307
   XY=   -11.0280   XZ=    -0.1241   YZ=    -0.0581
 Octapole moment (field-independent basis, Debye-Ang**2):
  XXX=    57.5941  YYY=   -60.1079  ZZZ=     0.0658  XYY=   -30.1478
  XXY=   101.4178  XXZ=    -0.1409  XZZ=    -7.1340  YZZ=     3.9706
  YYZ=     0.3725  XYZ=    -0.3554
 Hexadecapole moment (field-independent basis, Debye-Ang**3):
 XXXX= -1791.7614 YYYY= -1152.9185 ZZZZ=  -131.3580 XXXY=   158.8437
 XXXZ=    -1.3387 YYYX=  -341.4484 YYYZ=    -0.3302 ZZZX=    -0.3540
 ZZZY=    -0.1386 XXYY=  -434.7284 XXZZ=  -347.6917 YYZZ=  -254.2525
 XXYZ=    -0.3225 YYXZ=    -0.3920 ZZXY=    -4.3881
 N-N= 9.073100881642D+02 E-N=-8.316648848733D+03  KE= 2.742167285576D+03
 Merz-Kollman atomic radii used.
 Read replacement radii for each type of atom:
 Rad(20) =   1.188000000000D+00
 Atom Element Radius
    1     8    1.40
    2     8    1.40
    3     8    1.40
    4    20    1.19
    5    20    1.19
    6    15    1.80
    7    20    1.19
    8     8    1.40
    9     8    1.40

 **********************************************************************

            Electrostatic Properties Using The SCF Density

 **********************************************************************

       Atomic Center    1 is at  -1.548803 -1.910594  0.001159
       Atomic Center    2 is at   2.236304 -0.962301 -0.786111
       Atomic Center    3 is at   2.236994 -0.958131  0.786959
       Atomic Center    4 is at   2.435866  1.167790 -0.005151
       Atomic Center    5 is at   0.687759 -2.333486  0.004719
       Atomic Center    6 is at  -2.860285 -1.097699 -0.006431
       Atomic Center    7 is at  -1.396938  2.374566  0.004579
       Atomic Center    8 is at  -2.581701  0.418322 -0.001321
       Atomic Center    9 is at   0.703522  2.448714  0.001009
     919 points will be used for fitting atomic charges
 Fitting point charges to eletrostatic potential
 Charges from ESP fit, RMS=   0.00596 RRMS=   0.04193:
 Charge=   1.00000 Dipole=    -2.2823     0.6079     0.0055 Tot=     2.3619
              1
     1  O   -0.804091
     2  O   -0.843478
     3  O   -0.842594
     4  Ca   1.776290
     5  Ca   1.752476
     6  P    0.682906
     7  Ca   1.743007
     8  O   -0.803763
     9  O   -1.660753
 -----------------------------------------------------------------

              Electrostatic Properties (Atomic Units)

 -----------------------------------------------------------------
    Center     Electric         -------- Electric Field --------
               Potential          X             Y             Z
 -----------------------------------------------------------------
    1 Atom    -22.185634
    2 Atom    -22.246587
    3 Atom    -22.246593
    4 Atom    -80.100553
    5 Atom    -80.038088
    6 Atom    -53.916790
    7 Atom    -80.045908
    8 Atom    -22.183731
    9 Atom    -22.335679
 -----------------------------------------------------------------
 1\1\GINC-N029\SP\RB3LYP\6-31+G(d,p)\Ca3O5P1(1+)\TIMN\12-Jun-2015\0\\# 
 b3lyp/6-31+G(d,p) int=ultrafine pop=(ReadRadii,MK)\\mol_17.27.37.pdbc_
 plusQ.z58503.zip.xyz\\1,1\O,0,-1.54881,-1.91059,0.00116\O,0,2.2363,-0.
 96231,-0.78611\O,0,2.23699,-0.95814,0.78696\Ca,0,2.43587,1.16778,-0.00
 515\Ca,0,0.68775,-2.33349,0.00472\P,0,-2.86029,-1.09769,-0.00643\Ca,0,
 -1.39693,2.37457,0.00458\O,0,-2.5817,0.41833,-0.00132\O,0,0.70353,2.44
 871,0.00101\\Version=EM64T-G03RevE.01\State=1-A\HF=-2750.1970915\RMSD=
 5.822e-05\Thermal=0.\Dipole=-0.7650371,0.1956207,0.0053361\PG=C01 [X(C
 a3O5P1)]\\@


 WHEN ALL ELSE FAILS, TRY THE BOSS'S SUGGESTION.
 Job cpu time:  0 days  0 hours  1 minutes 48.9 seconds.
 File lengths (MBytes):  RWF=     36 Int=      0 D2E=      0 Chk=     11 Scr=      1
 Normal termination of Gaussian 03 at Fri Jun 12 18:06:29 2015.
