 Entering Gaussian System, Link 0=/home/timn/tmp/g03.e01/g03
 Input=mol_17.26.30.pdbcccc_plusQ.z58389.zip.xyz.gjf
 Output=mol_17.26.30.pdbcccc_plusQ.z58389.zip.xyz.out
 Initial command:
 /home/timn/tmp/g03.e01/l1.exe /home/timn/tmp/g03.e01/Gau-15094.inp -scrdir=/home/timn/tmp/g03.e01/
 Default is to use a total of   2 processors:
                                2 via shared-memory
                                1 via Linda
 Entering Link 1 = /home/timn/tmp/g03.e01/l1.exe PID=     15095.
  
 Copyright (c) 1988,1990,1992,1993,1995,1998,2003,2004,2007, Gaussian, Inc.
                  All Rights Reserved.
  
 This is the Gaussian(R) 03 program.  It is based on the
 the Gaussian(R) 98 system (copyright 1998, Gaussian, Inc.),
 the Gaussian(R) 94 system (copyright 1995, Gaussian, Inc.),
 the Gaussian 92(TM) system (copyright 1992, Gaussian, Inc.),
 the Gaussian 90(TM) system (copyright 1990, Gaussian, Inc.),
 the Gaussian 88(TM) system (copyright 1988, Gaussian, Inc.),
 the Gaussian 86(TM) system (copyright 1986, Carnegie Mellon
 University), and the Gaussian 82(TM) system (copyright 1983,
 Carnegie Mellon University). Gaussian is a federally registered
 trademark of Gaussian, Inc.
  
 This software contains proprietary and confidential information,
 including trade secrets, belonging to Gaussian, Inc.
  
 This software is provided under written license and may be
 used, copied, transmitted, or stored only in accord with that
 written license.
  
 The following legend is applicable only to US Government
 contracts under FAR:
  
                    RESTRICTED RIGHTS LEGEND
  
 Use, reproduction and disclosure by the US Government is
 subject to restrictions as set forth in subparagraphs (a)
 and (c) of the Commercial Computer Software - Restricted
 Rights clause in FAR 52.227-19.
  
 Gaussian, Inc.
 340 Quinnipiac St., Bldg. 40, Wallingford CT 06492
  
  
 ---------------------------------------------------------------
 Warning -- This program may not be used in any manner that
 competes with the business of Gaussian, Inc. or will provide
 assistance to any competitor of Gaussian, Inc.  The licensee
 of this program is prohibited from giving any competitor of
 Gaussian, Inc. access to this program.  By using this program,
 the user acknowledges that Gaussian, Inc. is engaged in the
 business of creating and licensing software in the field of
 computational chemistry and represents and warrants to the
 licensee that it is not a competitor of Gaussian, Inc. and that
 it will not use this program in any manner prohibited above.
 ---------------------------------------------------------------
  

 Cite this work as:
 Gaussian 03, Revision E.01,
 M. J. Frisch, G. W. Trucks, H. B. Schlegel, G. E. Scuseria, 
 M. A. Robb, J. R. Cheeseman, J. A. Montgomery, Jr., T. Vreven, 
 K. N. Kudin, J. C. Burant, J. M. Millam, S. S. Iyengar, J. Tomasi, 
 V. Barone, B. Mennucci, M. Cossi, G. Scalmani, N. Rega, 
 G. A. Petersson, H. Nakatsuji, M. Hada, M. Ehara, K. Toyota, 
 R. Fukuda, J. Hasegawa, M. Ishida, T. Nakajima, Y. Honda, O. Kitao, 
 H. Nakai, M. Klene, X. Li, J. E. Knox, H. P. Hratchian, J. B. Cross, 
 V. Bakken, C. Adamo, J. Jaramillo, R. Gomperts, R. E. Stratmann, 
 O. Yazyev, A. J. Austin, R. Cammi, C. Pomelli, J. W. Ochterski, 
 P. Y. Ayala, K. Morokuma, G. A. Voth, P. Salvador, J. J. Dannenberg, 
 V. G. Zakrzewski, S. Dapprich, A. D. Daniels, M. C. Strain, 
 O. Farkas, D. K. Malick, A. D. Rabuck, K. Raghavachari, 
 J. B. Foresman, J. V. Ortiz, Q. Cui, A. G. Baboul, S. Clifford, 
 J. Cioslowski, B. B. Stefanov, G. Liu, A. Liashenko, P. Piskorz, 
 I. Komaromi, R. L. Martin, D. J. Fox, T. Keith, M. A. Al-Laham, 
 C. Y. Peng, A. Nanayakkara, M. Challacombe, P. M. W. Gill, 
 B. Johnson, W. Chen, M. W. Wong, C. Gonzalez, and J. A. Pople, 
 Gaussian, Inc., Wallingford CT, 2004.
 
 ******************************************
 Gaussian 03:  EM64T-G03RevE.01 11-Sep-2007
                12-Jun-2015 
 ******************************************
 %nproc=2
 Will use up to    2 processors via shared memory.
 Default route:  MP2=Direct MaxDisk=2000MB
 ----------------------------------------------------
 # b3lyp/6-31+G(d,p) int=ultrafine pop=(ReadRadii,MK)
 ----------------------------------------------------

 Warning!  SCF SP cutoffs with diffuse functions may be unreliable.
 Consider SCF=Tight

 1/38=1/1;
 2/17=6,18=5,40=1/2;
 3/5=1,6=6,7=111,11=2,16=1,25=1,30=1,74=-5,75=5/1,2,3;
 4//1;
 5/5=2,32=1,38=5/2;
 6/7=2,8=2,9=2,10=2,15=8,20=101,28=1/1,2;
 99/5=1,9=1/99;
 -----------------------------------------
 mol_17.26.30.pdbcccc_plusQ.z58389.zip.xyz
 -----------------------------------------
 Symbolic Z-matrix:
 Charge =  1 Multiplicity = 1
 O                    -1.51214  -1.92256   0.00054 
 O                    -2.60157   0.38043  -0.00003 
 O                     0.65904   2.44878  -0.00007 
 O                     2.26184  -0.9277   -0.78648 
 O                     2.26146  -0.92803   0.78655 
 Ca                    2.41681   1.20335   0.00057 
 P                    -2.8431   -1.14183   0.00058 
 Ca                   -1.44063   2.35121  -0.00051 
 Ca                    0.72869  -2.31856  -0.0007 
 
                          Input orientation:                          
 ---------------------------------------------------------------------
 Center     Atomic     Atomic              Coordinates (Angstroms)
 Number     Number      Type              X           Y           Z
 ---------------------------------------------------------------------
    1          8             0       -1.512140   -1.922560    0.000540
    2          8             0       -2.601570    0.380430   -0.000030
    3          8             0        0.659040    2.448780   -0.000070
    4          8             0        2.261840   -0.927700   -0.786480
    5          8             0        2.261460   -0.928030    0.786550
    6         20             0        2.416810    1.203350    0.000570
    7         15             0       -2.843100   -1.141830    0.000580
    8         20             0       -1.440630    2.351210   -0.000510
    9         20             0        0.728690   -2.318560   -0.000700
 ---------------------------------------------------------------------
                    Distance matrix (angstroms):
                    1          2          3          4          5
     1  O    0.000000
     2  O    2.547670   0.000000
     3  O    4.880844   3.861302   0.000000
     4  O    3.981466   5.097300   3.819427   0.000000
     5  O    3.980824   5.097042   3.819603   1.573030   0.000000
     6  Ca   5.020753   5.085404   2.154264   2.277024   2.276989
     7  P    1.543047   1.541302   5.015722   5.169693   5.169138
     8  Ca   4.274368   2.287303   2.101936   5.007722   5.007829
     9  Ca   2.275552   4.286628   4.767849   2.214157   2.214209
                    6          7          8          9
     6  Ca   0.000000
     7  P    5.759038   0.000000
     8  Ca   4.024603   3.764074   0.000000
     9  Ca   3.905586   3.760635   5.149049   0.000000
 Stoichiometry    Ca3O5P(1+)
 Framework group  C1[X(Ca3O5P)]
 Deg. of freedom    21
 Full point group                 C1
 Largest Abelian subgroup         C1      NOp   1
 Largest concise Abelian subgroup C1      NOp   1
                         Standard orientation:                         
 ---------------------------------------------------------------------
 Center     Atomic     Atomic              Coordinates (Angstroms)
 Number     Number      Type              X           Y           Z
 ---------------------------------------------------------------------
    1          8             0       -1.512141   -1.922558    0.000540
    2          8             0       -2.601569    0.380433   -0.000030
    3          8             0        0.659043    2.448780   -0.000070
    4          8             0        2.261840   -0.927702   -0.786480
    5          8             0        2.261460   -0.928032    0.786550
    6         20             0        2.416812    1.203348    0.000570
    7         15             0       -2.843101   -1.141826    0.000580
    8         20             0       -1.440627    2.351212   -0.000510
    9         20             0        0.728688   -2.318560   -0.000700
 ---------------------------------------------------------------------
 Rotational constants (GHZ):      0.6842235      0.5474421      0.3115387
 Standard basis: 6-31+G(d,p) (6D, 7F)
 There are   199 symmetry adapted basis functions of A   symmetry.
 Integral buffers will be    131072 words long.
 Raffenetti 2 integral format.
 Two-electron integral symmetry is turned on.
   199 basis functions,   456 primitive gaussians,   199 cartesian basis functions
    57 alpha electrons       57 beta electrons
       nuclear repulsion energy       907.3079405474 Hartrees.
 NAtoms=    9 NActive=    9 NUniq=    9 SFac= 7.50D-01 NAtFMM=   80 NAOKFM=F Big=F
 One-electron integrals computed using PRISM.
 NBasis=   199 RedAO= T  NBF=   199
 NBsUse=   199 1.00D-06 NBFU=   199
 Harris functional with IExCor=  402 diagonalized for initial guess.
 ExpMin= 7.10D-03 ExpMax= 3.53D+04 ExpMxC= 5.30D+03 IAcc=3 IRadAn=         5 AccDes= 0.00D+00
 HarFok:  IExCor= 402 AccDes= 0.00D+00 IRadAn=         5 IDoV=1
 ScaDFX=  1.000000  1.000000  1.000000  1.000000
 Initial guess orbital symmetries:
       Occupied  (A) (A) (A) (A) (A) (A) (A) (A) (A) (A) (A) (A)
                 (A) (A) (A) (A) (A) (A) (A) (A) (A) (A) (A) (A)
                 (A) (A) (A) (A) (A) (A) (A) (A) (A) (A) (A) (A)
                 (A) (A) (A) (A) (A) (A) (A) (A) (A) (A) (A) (A)
                 (A) (A) (A) (A) (A) (A) (A) (A) (A)
       Virtual   (A) (A) (A) (A) (A) (A) (A) (A) (A) (A) (A) (A)
                 (A) (A) (A) (A) (A) (A) (A) (A) (A) (A) (A) (A)
                 (A) (A) (A) (A) (A) (A) (A) (A) (A) (A) (A) (A)
                 (A) (A) (A) (A) (A) (A) (A) (A) (A) (A) (A) (A)
                 (A) (A) (A) (A) (A) (A) (A) (A) (A) (A) (A) (A)
                 (A) (A) (A) (A) (A) (A) (A) (A) (A) (A) (A) (A)
                 (A) (A) (A) (A) (A) (A) (A) (A) (A) (A) (A) (A)
                 (A) (A) (A) (A) (A) (A) (A) (A) (A) (A) (A) (A)
                 (A) (A) (A) (A) (A) (A) (A) (A) (A) (A) (A) (A)
                 (A) (A) (A) (A) (A) (A) (A) (A) (A) (A) (A) (A)
                 (A) (A) (A) (A) (A) (A) (A) (A) (A) (A) (A) (A)
                 (A) (A) (A) (A) (A) (A) (A) (A) (A) (A)
 The electronic state of the initial guess is 1-A.
 Requested convergence on RMS density matrix=1.00D-04 within 128 cycles.
 Requested convergence on MAX density matrix=1.00D-02.
 Requested convergence on             energy=1.00D-02.
 No special actions if energy rises.
 EnCoef did     3 forward-backward iterations
 SCF Done:  E(RB+HF-LYP) =  -2750.19710223     A.U. after    8 cycles
             Convg  =    0.5229D-04             -V/T =  2.0029
             S**2   =   0.0000

 **********************************************************************

            Population analysis using the SCF density.

 **********************************************************************

 Orbital symmetries:
       Occupied  (A) (A) (A) (A) (A) (A) (A) (A) (A) (A) (A) (A)
                 (A) (A) (A) (A) (A) (A) (A) (A) (A) (A) (A) (A)
                 (A) (A) (A) (A) (A) (A) (A) (A) (A) (A) (A) (A)
                 (A) (A) (A) (A) (A) (A) (A) (A) (A) (A) (A) (A)
                 (A) (A) (A) (A) (A) (A) (A) (A) (A)
       Virtual   (A) (A) (A) (A) (A) (A) (A) (A) (A) (A) (A) (A)
                 (A) (A) (A) (A) (A) (A) (A) (A) (A) (A) (A) (A)
                 (A) (A) (A) (A) (A) (A) (A) (A) (A) (A) (A) (A)
                 (A) (A) (A) (A) (A) (A) (A) (A) (A) (A) (A) (A)
                 (A) (A) (A) (A) (A) (A) (A) (A) (A) (A) (A) (A)
                 (A) (A) (A) (A) (A) (A) (A) (A) (A) (A) (A) (A)
                 (A) (A) (A) (A) (A) (A) (A) (A) (A) (A) (A) (A)
                 (A) (A) (A) (A) (A) (A) (A) (A) (A) (A) (A) (A)
                 (A) (A) (A) (A) (A) (A) (A) (A) (A) (A) (A) (A)
                 (A) (A) (A) (A) (A) (A) (A) (A) (A) (A) (A) (A)
                 (A) (A) (A) (A) (A) (A) (A) (A) (A) (A) (A) (A)
                 (A) (A) (A) (A) (A) (A) (A) (A) (A) (A)
 The electronic state is 1-A.
 Alpha  occ. eigenvalues -- -145.50251-145.49521-145.43946 -77.30080 -19.27870
 Alpha  occ. eigenvalues --  -19.27706 -19.22484 -19.22479 -19.12216 -15.57114
 Alpha  occ. eigenvalues --  -15.56423 -15.50920 -12.70352 -12.70331 -12.70184
 Alpha  occ. eigenvalues --  -12.69676 -12.69630 -12.69459 -12.64145 -12.64142
 Alpha  occ. eigenvalues --  -12.63955  -6.75555  -4.92001  -4.91780  -4.91334
 Alpha  occ. eigenvalues --   -1.94320  -1.93664  -1.88350  -1.22292  -1.22017
 Alpha  occ. eigenvalues --   -1.21918  -1.21520  -1.21391  -1.20571  -1.16522
 Alpha  occ. eigenvalues --   -1.16137  -1.15618  -1.13714  -1.08484  -1.04683
 Alpha  occ. eigenvalues --   -0.86295  -0.86243  -0.67763  -0.57326  -0.52571
 Alpha  occ. eigenvalues --   -0.52500  -0.45802  -0.45761  -0.44709  -0.43917
 Alpha  occ. eigenvalues --   -0.42966  -0.40395  -0.34042  -0.32614  -0.30973
 Alpha  occ. eigenvalues --   -0.30565  -0.30366
 Alpha virt. eigenvalues --   -0.19724  -0.18399  -0.17452  -0.14059  -0.12040
 Alpha virt. eigenvalues --   -0.10578  -0.10166  -0.08901  -0.08321  -0.08286
 Alpha virt. eigenvalues --   -0.07014  -0.06735  -0.06064  -0.06000  -0.05477
 Alpha virt. eigenvalues --   -0.04803  -0.04662  -0.04653  -0.04463  -0.04386
 Alpha virt. eigenvalues --   -0.04059  -0.03941  -0.03807  -0.03370  -0.02989
 Alpha virt. eigenvalues --   -0.02859  -0.02426  -0.02383  -0.02093  -0.01505
 Alpha virt. eigenvalues --    0.01134   0.02449   0.03484   0.03966   0.04624
 Alpha virt. eigenvalues --    0.04965   0.05178   0.05425   0.06685   0.06897
 Alpha virt. eigenvalues --    0.07571   0.08285   0.08559   0.08977   0.09590
 Alpha virt. eigenvalues --    0.09660   0.10223   0.11125   0.11870   0.12153
 Alpha virt. eigenvalues --    0.12187   0.13350   0.14894   0.15201   0.15801
 Alpha virt. eigenvalues --    0.15804   0.17028   0.17570   0.18836   0.20317
 Alpha virt. eigenvalues --    0.21127   0.21593   0.22342   0.24904   0.26083
 Alpha virt. eigenvalues --    0.27492   0.29234   0.29371   0.31954   0.32614
 Alpha virt. eigenvalues --    0.34066   0.35224   0.36789   0.38313   0.38630
 Alpha virt. eigenvalues --    0.39873   0.41013   0.42725   0.48102   0.48684
 Alpha virt. eigenvalues --    0.55379   0.57399   0.58843   0.63689   0.71255
 Alpha virt. eigenvalues --    0.76054   0.83522   0.88500   0.90236   0.92407
 Alpha virt. eigenvalues --    1.01077   1.06424   1.08360   1.09626   1.11130
 Alpha virt. eigenvalues --    1.13685   1.13870   1.16697   1.16981   1.18900
 Alpha virt. eigenvalues --    1.20342   1.23521   1.24867   1.27416   1.28190
 Alpha virt. eigenvalues --    1.33667   1.40202   1.41814   1.46653   1.50143
 Alpha virt. eigenvalues --    1.53275   1.57219   1.61917   1.65479   1.65629
 Alpha virt. eigenvalues --    1.68017   1.70914   1.74554   1.78134   1.82706
 Alpha virt. eigenvalues --    1.83845   1.85278   1.85481   1.86532   1.87565
 Alpha virt. eigenvalues --    1.88929   1.89275   1.92525   2.01648   2.04834
 Alpha virt. eigenvalues --    2.09663   2.19757   2.20005   2.53835   2.68531
 Alpha virt. eigenvalues --    3.03368   3.39981   3.82440   3.90603   3.95367
 Alpha virt. eigenvalues --    4.00186   4.07315
          Condensed to atoms (all electrons):
              1          2          3          4          5          6
     1  O    8.912292  -0.072076   0.001184  -0.000205  -0.000183  -0.006336
     2  O   -0.072076   8.896682   0.000082   0.000111   0.000109  -0.007318
     3  O    0.001184   0.000082   8.822525  -0.000324  -0.000331   0.172566
     4  O   -0.000205   0.000111  -0.000324   8.562992  -0.085242   0.080073
     5  O   -0.000183   0.000109  -0.000331  -0.085242   8.563029   0.080141
     6  Ca  -0.006336  -0.007318   0.172566   0.080073   0.080141  18.280171
     7  P   -0.205764  -0.177825  -0.003162  -0.001301  -0.001267   0.045707
     8  Ca   0.006363   0.059906   0.244853   0.002493   0.002464  -0.016426
     9  Ca   0.066537   0.004114   0.009473   0.117665   0.117536  -0.022720
              7          8          9
     1  O   -0.205764   0.006363   0.066537
     2  O   -0.177825   0.059906   0.004114
     3  O   -0.003162   0.244853   0.009473
     4  O   -0.001301   0.002493   0.117665
     5  O   -0.001267   0.002464   0.117536
     6  Ca   0.045707  -0.016426  -0.022720
     7  P   14.789088  -0.047212  -0.052462
     8  Ca  -0.047212  18.281534   0.007279
     9  Ca  -0.052462   0.007279  18.254681
 Mulliken atomic charges:
              1
     1  O   -0.701812
     2  O   -0.703786
     3  O   -1.246868
     4  O   -0.676261
     5  O   -0.676256
     6  Ca   1.394142
     7  P    0.654198
     8  Ca   1.458746
     9  Ca   1.497896
 Sum of Mulliken charges=   1.00000
 Atomic charges with hydrogens summed into heavy atoms:
              1
     1  O   -0.701812
     2  O   -0.703786
     3  O   -1.246868
     4  O   -0.676261
     5  O   -0.676256
     6  Ca   1.394142
     7  P    0.654198
     8  Ca   1.458746
     9  Ca   1.497896
 Sum of Mulliken charges=   1.00000
 Electronic spatial extent (au):  <R**2>=  3042.3981
 Charge=     1.0000 electrons
 Dipole moment (field-independent basis, Debye):
    X=    -1.9833    Y=     0.5236    Z=    -0.0045  Tot=     2.0513
 Quadrupole moment (field-independent basis, Debye-Ang):
   XX=   -55.9497   YY=   -34.8336   ZZ=   -77.5237
   XY=   -11.2587   XZ=     0.0125   YZ=     0.0138
 Traceless Quadrupole moment (field-independent basis, Debye-Ang):
   XX=     0.1526   YY=    21.2687   ZZ=   -21.4214
   XY=   -11.2587   XZ=     0.0125   YZ=     0.0138
 Octapole moment (field-independent basis, Debye-Ang**2):
  XXX=    52.0837  YYY=   -60.1054  ZZZ=    -0.0110  XYY=   -26.1702
  XXY=   103.6870  XXZ=     0.0222  XZZ=    -7.2454  YZZ=     3.9542
  YYZ=    -0.0572  XYZ=     0.0372
 Hexadecapole moment (field-independent basis, Debye-Ang**3):
 XXXX= -1812.4532 YYYY= -1164.8334 ZZZZ=  -131.2083 XXXY=   154.2235
 XXXZ=     0.1179 YYYX=  -339.0788 YYYZ=     0.0784 ZZZX=     0.0310
 ZZZY=     0.0268 XXYY=  -418.1782 XXZZ=  -348.7052 YYZZ=  -253.2962
 XXYZ=     0.0378 YYXZ=     0.0460 ZZXY=    -4.8503
 N-N= 9.073079405474D+02 E-N=-8.316700850522D+03  KE= 2.742188928343D+03
 Merz-Kollman atomic radii used.
 Read replacement radii for each type of atom:
 Rad(20) =   1.188000000000D+00
 Atom Element Radius
    1     8    1.40
    2     8    1.40
    3     8    1.40
    4     8    1.40
    5     8    1.40
    6    20    1.19
    7    15    1.80
    8    20    1.19
    9    20    1.19

 **********************************************************************

            Electrostatic Properties Using The SCF Density

 **********************************************************************

       Atomic Center    1 is at  -1.512141 -1.922558  0.000540
       Atomic Center    2 is at  -2.601569  0.380433 -0.000030
       Atomic Center    3 is at   0.659043  2.448780 -0.000070
       Atomic Center    4 is at   2.261840 -0.927702 -0.786480
       Atomic Center    5 is at   2.261460 -0.928032  0.786550
       Atomic Center    6 is at   2.416812  1.203348  0.000570
       Atomic Center    7 is at  -2.843101 -1.141826  0.000580
       Atomic Center    8 is at  -1.440627  2.351212 -0.000510
       Atomic Center    9 is at   0.728688 -2.318560 -0.000700
     917 points will be used for fitting atomic charges
 Fitting point charges to eletrostatic potential
 Charges from ESP fit, RMS=   0.00596 RRMS=   0.04192:
 Charge=   1.00000 Dipole=    -2.3211     0.6309    -0.0046 Tot=     2.4053
              1
     1  O   -0.805873
     2  O   -0.798992
     3  O   -1.663061
     4  O   -0.842279
     5  O   -0.842156
     6  Ca   1.776041
     7  P    0.679891
     8  Ca   1.743406
     9  Ca   1.753024
 -----------------------------------------------------------------

              Electrostatic Properties (Atomic Units)

 -----------------------------------------------------------------
    Center     Electric         -------- Electric Field --------
               Potential          X             Y             Z
 -----------------------------------------------------------------
    1 Atom    -22.185534
    2 Atom    -22.183753
    3 Atom    -22.338830
    4 Atom    -22.247298
    5 Atom    -22.247300
    6 Atom    -80.100689
    7 Atom    -53.918405
    8 Atom    -80.045676
    9 Atom    -80.037991
 -----------------------------------------------------------------
 1\1\GINC-N035\SP\RB3LYP\6-31+G(d,p)\Ca3O5P1(1+)\TIMN\12-Jun-2015\0\\# 
 b3lyp/6-31+G(d,p) int=ultrafine pop=(ReadRadii,MK)\\mol_17.26.30.pdbcc
 cc_plusQ.z58389.zip.xyz\\1,1\O,0,-1.51214,-1.92256,0.00054\O,0,-2.6015
 7,0.38043,-0.00003\O,0,0.65904,2.44878,-0.00007\O,0,2.26184,-0.9277,-0
 .78648\O,0,2.26146,-0.92803,0.78655\Ca,0,2.41681,1.20335,0.00057\P,0,-
 2.8431,-1.14183,0.00058\Ca,0,-1.44063,2.35121,-0.00051\Ca,0,0.72869,-2
 .31856,-0.0007\\Version=EM64T-G03RevE.01\State=1-A\HF=-2750.1971022\RM
 SD=5.229e-05\Thermal=0.\Dipole=-0.780292,0.2060136,-0.0017839\PG=C01 [
 X(Ca3O5P1)]\\@


 A SLIP OF THE FOOT YOU MAY SOON RECOVER, BUT A SLIP OF THE TONGUE
 YOU MAY NEVER GET OVER. -- BEN FRANKLIN
 Job cpu time:  0 days  0 hours  1 minutes 48.6 seconds.
 File lengths (MBytes):  RWF=     36 Int=      0 D2E=      0 Chk=     11 Scr=      1
 Normal termination of Gaussian 03 at Fri Jun 12 18:00:17 2015.
