 Entering Gaussian System, Link 0=/home/timn/tmp/g03.e01/g03
 Input=mol_17.24.19.pdbc_plusQ.z58274.zip.xyz.gjf
 Output=mol_17.24.19.pdbc_plusQ.z58274.zip.xyz.out
 Initial command:
 /home/timn/tmp/g03.e01/l1.exe /home/timn/tmp/g03.e01/Gau-12913.inp -scrdir=/home/timn/tmp/g03.e01/
 Default is to use a total of   2 processors:
                                2 via shared-memory
                                1 via Linda
 Entering Link 1 = /home/timn/tmp/g03.e01/l1.exe PID=     12914.
  
 Copyright (c) 1988,1990,1992,1993,1995,1998,2003,2004,2007, Gaussian, Inc.
                  All Rights Reserved.
  
 This is the Gaussian(R) 03 program.  It is based on the
 the Gaussian(R) 98 system (copyright 1998, Gaussian, Inc.),
 the Gaussian(R) 94 system (copyright 1995, Gaussian, Inc.),
 the Gaussian 92(TM) system (copyright 1992, Gaussian, Inc.),
 the Gaussian 90(TM) system (copyright 1990, Gaussian, Inc.),
 the Gaussian 88(TM) system (copyright 1988, Gaussian, Inc.),
 the Gaussian 86(TM) system (copyright 1986, Carnegie Mellon
 University), and the Gaussian 82(TM) system (copyright 1983,
 Carnegie Mellon University). Gaussian is a federally registered
 trademark of Gaussian, Inc.
  
 This software contains proprietary and confidential information,
 including trade secrets, belonging to Gaussian, Inc.
  
 This software is provided under written license and may be
 used, copied, transmitted, or stored only in accord with that
 written license.
  
 The following legend is applicable only to US Government
 contracts under FAR:
  
                    RESTRICTED RIGHTS LEGEND
  
 Use, reproduction and disclosure by the US Government is
 subject to restrictions as set forth in subparagraphs (a)
 and (c) of the Commercial Computer Software - Restricted
 Rights clause in FAR 52.227-19.
  
 Gaussian, Inc.
 340 Quinnipiac St., Bldg. 40, Wallingford CT 06492
  
  
 ---------------------------------------------------------------
 Warning -- This program may not be used in any manner that
 competes with the business of Gaussian, Inc. or will provide
 assistance to any competitor of Gaussian, Inc.  The licensee
 of this program is prohibited from giving any competitor of
 Gaussian, Inc. access to this program.  By using this program,
 the user acknowledges that Gaussian, Inc. is engaged in the
 business of creating and licensing software in the field of
 computational chemistry and represents and warrants to the
 licensee that it is not a competitor of Gaussian, Inc. and that
 it will not use this program in any manner prohibited above.
 ---------------------------------------------------------------
  

 Cite this work as:
 Gaussian 03, Revision E.01,
 M. J. Frisch, G. W. Trucks, H. B. Schlegel, G. E. Scuseria, 
 M. A. Robb, J. R. Cheeseman, J. A. Montgomery, Jr., T. Vreven, 
 K. N. Kudin, J. C. Burant, J. M. Millam, S. S. Iyengar, J. Tomasi, 
 V. Barone, B. Mennucci, M. Cossi, G. Scalmani, N. Rega, 
 G. A. Petersson, H. Nakatsuji, M. Hada, M. Ehara, K. Toyota, 
 R. Fukuda, J. Hasegawa, M. Ishida, T. Nakajima, Y. Honda, O. Kitao, 
 H. Nakai, M. Klene, X. Li, J. E. Knox, H. P. Hratchian, J. B. Cross, 
 V. Bakken, C. Adamo, J. Jaramillo, R. Gomperts, R. E. Stratmann, 
 O. Yazyev, A. J. Austin, R. Cammi, C. Pomelli, J. W. Ochterski, 
 P. Y. Ayala, K. Morokuma, G. A. Voth, P. Salvador, J. J. Dannenberg, 
 V. G. Zakrzewski, S. Dapprich, A. D. Daniels, M. C. Strain, 
 O. Farkas, D. K. Malick, A. D. Rabuck, K. Raghavachari, 
 J. B. Foresman, J. V. Ortiz, Q. Cui, A. G. Baboul, S. Clifford, 
 J. Cioslowski, B. B. Stefanov, G. Liu, A. Liashenko, P. Piskorz, 
 I. Komaromi, R. L. Martin, D. J. Fox, T. Keith, M. A. Al-Laham, 
 C. Y. Peng, A. Nanayakkara, M. Challacombe, P. M. W. Gill, 
 B. Johnson, W. Chen, M. W. Wong, C. Gonzalez, and J. A. Pople, 
 Gaussian, Inc., Wallingford CT, 2004.
 
 ******************************************
 Gaussian 03:  EM64T-G03RevE.01 11-Sep-2007
                12-Jun-2015 
 ******************************************
 %nproc=2
 Will use up to    2 processors via shared memory.
 Default route:  MP2=Direct MaxDisk=2000MB
 ----------------------------------------------------
 # b3lyp/6-31+G(d,p) int=ultrafine pop=(ReadRadii,MK)
 ----------------------------------------------------

 Warning!  SCF SP cutoffs with diffuse functions may be unreliable.
 Consider SCF=Tight

 1/38=1/1;
 2/17=6,18=5,40=1/2;
 3/5=1,6=6,7=111,11=2,16=1,25=1,30=1,74=-5,75=5/1,2,3;
 4//1;
 5/5=2,32=1,38=5/2;
 6/7=2,8=2,9=2,10=2,15=8,20=101,28=1/1,2;
 99/5=1,9=1/99;
 --------------------------------------
 mol_17.24.19.pdbc_plusQ.z58274.zip.xyz
 --------------------------------------
 Symbolic Z-matrix:
 Charge =  1 Multiplicity = 1
 O                     3.59163   0.53438   0.00014 
 O                    -0.62469   1.1052   -0.00046 
 Ca                   -2.87058   1.0381    0.00015 
 Ca                    1.48148   1.56894  -0.00007 
 P                     3.25003  -0.96631   0.0002 
 O                     1.68681  -1.04022   0.00013 
 Ca                   -0.67979  -1.27821  -0.00047 
 O                    -2.78736  -1.05475   0.78499 
 O                    -2.78797  -1.05487  -0.78422 
 
                          Input orientation:                          
 ---------------------------------------------------------------------
 Center     Atomic     Atomic              Coordinates (Angstroms)
 Number     Number      Type              X           Y           Z
 ---------------------------------------------------------------------
    1          8             0        3.591630    0.534380    0.000140
    2          8             0       -0.624690    1.105200   -0.000460
    3         20             0       -2.870580    1.038100    0.000150
    4         20             0        1.481480    1.568940   -0.000070
    5         15             0        3.250030   -0.966310    0.000200
    6          8             0        1.686810   -1.040220    0.000130
    7         20             0       -0.679790   -1.278210   -0.000470
    8          8             0       -2.787360   -1.054750    0.784990
    9          8             0       -2.787970   -1.054870   -0.784220
 ---------------------------------------------------------------------
                    Distance matrix (angstroms):
                    1          2          3          4          5
     1  O    0.000000
     2  O    4.254784   0.000000
     3  Ca   6.481812   2.246892   0.000000
     4  Ca   2.350116   2.156619   4.384315   0.000000
     5  P    1.539078   4.393701   6.440460   3.091159   0.000000
     6  O    2.471377   3.153706   5.008914   2.617227   1.564966
     7  Ca   4.640098   2.384047   3.188237   3.574542   3.942178
     8  O    6.620637   3.155861   2.236721   5.071791   6.088825
     9  O    6.621196   3.155941   2.236646   5.072226   6.089384
                    6          7          8          9
     6  O    0.000000
     7  Ca   2.378536   0.000000
     8  O    4.542512   2.260251   0.000000
     9  O    4.543025   2.260214   1.569210   0.000000
 Stoichiometry    Ca3O5P(1+)
 Framework group  C1[X(Ca3O5P)]
 Deg. of freedom    21
 Full point group                 C1
 Largest Abelian subgroup         C1      NOp   1
 Largest concise Abelian subgroup C1      NOp   1
                         Standard orientation:                         
 ---------------------------------------------------------------------
 Center     Atomic     Atomic              Coordinates (Angstroms)
 Number     Number      Type              X           Y           Z
 ---------------------------------------------------------------------
    1          8             0        3.591629    0.534385    0.000141
    2          8             0       -0.624691    1.105200   -0.000459
    3         20             0       -2.870581    1.038098    0.000151
    4         20             0        1.481478    1.568943   -0.000069
    5         15             0        3.250031   -0.966305    0.000201
    6          8             0        1.686811   -1.040217    0.000131
    7         20             0       -0.679789   -1.278210   -0.000469
    8          8             0       -2.787359   -1.054752    0.784991
    9          8             0       -2.787969   -1.054872   -0.784219
 ---------------------------------------------------------------------
 Rotational constants (GHZ):      1.5206957      0.3920765      0.3194702
 Standard basis: 6-31+G(d,p) (6D, 7F)
 There are   199 symmetry adapted basis functions of A   symmetry.
 Integral buffers will be    131072 words long.
 Raffenetti 2 integral format.
 Two-electron integral symmetry is turned on.
   199 basis functions,   456 primitive gaussians,   199 cartesian basis functions
    57 alpha electrons       57 beta electrons
       nuclear repulsion energy       956.5581493215 Hartrees.
 NAtoms=    9 NActive=    9 NUniq=    9 SFac= 7.50D-01 NAtFMM=   80 NAOKFM=F Big=F
 One-electron integrals computed using PRISM.
 NBasis=   199 RedAO= T  NBF=   199
 NBsUse=   199 1.00D-06 NBFU=   199
 Harris functional with IExCor=  402 diagonalized for initial guess.
 ExpMin= 7.10D-03 ExpMax= 3.53D+04 ExpMxC= 5.30D+03 IAcc=3 IRadAn=         5 AccDes= 0.00D+00
 HarFok:  IExCor= 402 AccDes= 0.00D+00 IRadAn=         5 IDoV=1
 ScaDFX=  1.000000  1.000000  1.000000  1.000000
 Initial guess orbital symmetries:
       Occupied  (A) (A) (A) (A) (A) (A) (A) (A) (A) (A) (A) (A)
                 (A) (A) (A) (A) (A) (A) (A) (A) (A) (A) (A) (A)
                 (A) (A) (A) (A) (A) (A) (A) (A) (A) (A) (A) (A)
                 (A) (A) (A) (A) (A) (A) (A) (A) (A) (A) (A) (A)
                 (A) (A) (A) (A) (A) (A) (A) (A) (A)
       Virtual   (A) (A) (A) (A) (A) (A) (A) (A) (A) (A) (A) (A)
                 (A) (A) (A) (A) (A) (A) (A) (A) (A) (A) (A) (A)
                 (A) (A) (A) (A) (A) (A) (A) (A) (A) (A) (A) (A)
                 (A) (A) (A) (A) (A) (A) (A) (A) (A) (A) (A) (A)
                 (A) (A) (A) (A) (A) (A) (A) (A) (A) (A) (A) (A)
                 (A) (A) (A) (A) (A) (A) (A) (A) (A) (A) (A) (A)
                 (A) (A) (A) (A) (A) (A) (A) (A) (A) (A) (A) (A)
                 (A) (A) (A) (A) (A) (A) (A) (A) (A) (A) (A) (A)
                 (A) (A) (A) (A) (A) (A) (A) (A) (A) (A) (A) (A)
                 (A) (A) (A) (A) (A) (A) (A) (A) (A) (A) (A) (A)
                 (A) (A) (A) (A) (A) (A) (A) (A) (A) (A) (A) (A)
                 (A) (A) (A) (A) (A) (A) (A) (A) (A) (A)
 The electronic state of the initial guess is 1-A.
 Requested convergence on RMS density matrix=1.00D-04 within 128 cycles.
 Requested convergence on MAX density matrix=1.00D-02.
 Requested convergence on             energy=1.00D-02.
 No special actions if energy rises.
 EnCoef did     2 forward-backward iterations
 SCF Done:  E(RB+HF-LYP) =  -2750.21059125     A.U. after    9 cycles
             Convg  =    0.7407D-04             -V/T =  2.0029
             S**2   =   0.0000

 **********************************************************************

            Population analysis using the SCF density.

 **********************************************************************

 Orbital symmetries:
       Occupied  (A) (A) (A) (A) (A) (A) (A) (A) (A) (A) (A) (A)
                 (A) (A) (A) (A) (A) (A) (A) (A) (A) (A) (A) (A)
                 (A) (A) (A) (A) (A) (A) (A) (A) (A) (A) (A) (A)
                 (A) (A) (A) (A) (A) (A) (A) (A) (A) (A) (A) (A)
                 (A) (A) (A) (A) (A) (A) (A) (A) (A)
       Virtual   (A) (A) (A) (A) (A) (A) (A) (A) (A) (A) (A) (A)
                 (A) (A) (A) (A) (A) (A) (A) (A) (A) (A) (A) (A)
                 (A) (A) (A) (A) (A) (A) (A) (A) (A) (A) (A) (A)
                 (A) (A) (A) (A) (A) (A) (A) (A) (A) (A) (A) (A)
                 (A) (A) (A) (A) (A) (A) (A) (A) (A) (A) (A) (A)
                 (A) (A) (A) (A) (A) (A) (A) (A) (A) (A) (A) (A)
                 (A) (A) (A) (A) (A) (A) (A) (A) (A) (A) (A) (A)
                 (A) (A) (A) (A) (A) (A) (A) (A) (A) (A) (A) (A)
                 (A) (A) (A) (A) (A) (A) (A) (A) (A) (A) (A) (A)
                 (A) (A) (A) (A) (A) (A) (A) (A) (A) (A) (A) (A)
                 (A) (A) (A) (A) (A) (A) (A) (A) (A) (A) (A) (A)
                 (A) (A) (A) (A) (A) (A) (A) (A) (A) (A)
 The electronic state is 1-A.
 Alpha  occ. eigenvalues -- -145.52558-145.47902-145.45929 -77.31436 -19.29696
 Alpha  occ. eigenvalues --  -19.28907 -19.20254 -19.20249 -19.17093 -15.59458
 Alpha  occ. eigenvalues --  -15.54770 -15.52792 -12.72722 -12.72680 -12.72478
 Alpha  occ. eigenvalues --  -12.67980 -12.67949 -12.67879 -12.66030 -12.65992
 Alpha  occ. eigenvalues --  -12.65877  -6.77036  -4.93466  -4.93240  -4.92822
 Alpha  occ. eigenvalues --   -1.96690  -1.92075  -1.90160  -1.24614  -1.24613
 Alpha  occ. eigenvalues --   -1.23576  -1.20502  -1.19684  -1.19272  -1.18006
 Alpha  occ. eigenvalues --   -1.17959  -1.17613  -1.15366  -1.09605  -1.02798
 Alpha  occ. eigenvalues --   -0.91874  -0.84035  -0.68626  -0.57621  -0.54921
 Alpha  occ. eigenvalues --   -0.54233  -0.46666  -0.45218  -0.43696  -0.42880
 Alpha  occ. eigenvalues --   -0.41967  -0.41269  -0.37526  -0.36622  -0.35917
 Alpha  occ. eigenvalues --   -0.30800  -0.29151
 Alpha virt. eigenvalues --   -0.21354  -0.20120  -0.17696  -0.14556  -0.13030
 Alpha virt. eigenvalues --   -0.11138  -0.10817  -0.10362  -0.09100  -0.08476
 Alpha virt. eigenvalues --   -0.07858  -0.07111  -0.06764  -0.06248  -0.05628
 Alpha virt. eigenvalues --   -0.05188  -0.04735  -0.04683  -0.04464  -0.04344
 Alpha virt. eigenvalues --   -0.04003  -0.03717  -0.03703  -0.03625  -0.03171
 Alpha virt. eigenvalues --   -0.02777  -0.02662  -0.02454  -0.01922  -0.00113
 Alpha virt. eigenvalues --    0.01318   0.02751   0.03371   0.03460   0.03668
 Alpha virt. eigenvalues --    0.04874   0.05033   0.05905   0.05977   0.06291
 Alpha virt. eigenvalues --    0.06567   0.07098   0.07283   0.08206   0.08738
 Alpha virt. eigenvalues --    0.09190   0.10299   0.10753   0.10899   0.11384
 Alpha virt. eigenvalues --    0.11449   0.13513   0.15040   0.15048   0.16478
 Alpha virt. eigenvalues --    0.17257   0.17694   0.19057   0.19835   0.20079
 Alpha virt. eigenvalues --    0.21546   0.22355   0.23467   0.24143   0.26712
 Alpha virt. eigenvalues --    0.27511   0.28812   0.30331   0.31207   0.31256
 Alpha virt. eigenvalues --    0.32411   0.33480   0.34883   0.36802   0.38060
 Alpha virt. eigenvalues --    0.40606   0.42565   0.45767   0.46798   0.52514
 Alpha virt. eigenvalues --    0.52887   0.54091   0.57479   0.60738   0.64102
 Alpha virt. eigenvalues --    0.65166   0.85562   0.92279   0.94287   1.05086
 Alpha virt. eigenvalues --    1.07491   1.07495   1.10993   1.12552   1.14739
 Alpha virt. eigenvalues --    1.16112   1.16290   1.17434   1.19993   1.20583
 Alpha virt. eigenvalues --    1.21723   1.22837   1.25530   1.28491   1.32392
 Alpha virt. eigenvalues --    1.37938   1.41087   1.48243   1.53865   1.54149
 Alpha virt. eigenvalues --    1.54830   1.63716   1.66320   1.68681   1.69451
 Alpha virt. eigenvalues --    1.72702   1.73045   1.76699   1.78362   1.80065
 Alpha virt. eigenvalues --    1.80380   1.83365   1.84207   1.85128   1.86541
 Alpha virt. eigenvalues --    1.89056   1.92093   1.95255   2.01467   2.05564
 Alpha virt. eigenvalues --    2.12181   2.21708   2.24044   2.51041   2.67671
 Alpha virt. eigenvalues --    3.06792   3.38674   3.85996   3.88086   3.95561
 Alpha virt. eigenvalues --    4.10897   4.14243
          Condensed to atoms (all electrons):
              1          2          3          4          5          6
     1  O    8.555143  -0.000425   0.002346   0.076939   0.091374  -0.075091
     2  O   -0.000425   8.991733   0.109026   0.196310  -0.008602  -0.012900
     3  Ca   0.002346   0.109026  18.303213  -0.013912  -0.012675   0.005409
     4  Ca   0.076939   0.196310  -0.013912  18.254133  -0.019978   0.017704
     5  P    0.091374  -0.008602  -0.012675  -0.019978  14.409403  -0.144253
     6  O   -0.075091  -0.012900   0.005409   0.017704  -0.144253   8.914771
     7  Ca   0.005429   0.055018  -0.047310  -0.005192   0.004685   0.037201
     8  O    0.000005  -0.003698   0.098439  -0.000979  -0.000088  -0.001579
     9  O    0.000005  -0.003696   0.098447  -0.001005  -0.000088  -0.001589
              7          8          9
     1  O    0.005429   0.000005   0.000005
     2  O    0.055018  -0.003698  -0.003696
     3  Ca  -0.047310   0.098439   0.098447
     4  Ca  -0.005192  -0.000979  -0.001005
     5  P    0.004685  -0.000088  -0.000088
     6  O    0.037201  -0.001579  -0.001589
     7  Ca  18.343172   0.106776   0.106841
     8  O    0.106776   8.485297  -0.029960
     9  O    0.106841  -0.029960   8.485267
 Mulliken atomic charges:
              1
     1  O   -0.655726
     2  O   -1.322766
     3  Ca   1.457018
     4  Ca   1.495980
     5  P    0.680222
     6  O   -0.739672
     7  Ca   1.393380
     8  O   -0.654213
     9  O   -0.654223
 Sum of Mulliken charges=   1.00000
 Atomic charges with hydrogens summed into heavy atoms:
              1
     1  O   -0.655726
     2  O   -1.322766
     3  Ca   1.457018
     4  Ca   1.495980
     5  P    0.680222
     6  O   -0.739672
     7  Ca   1.393380
     8  O   -0.654213
     9  O   -0.654223
 Sum of Mulliken charges=   1.00000
 Electronic spatial extent (au):  <R**2>=  2984.6892
 Charge=     1.0000 electrons
 Dipole moment (field-independent basis, Debye):
    X=     1.5381    Y=     9.0221    Z=    -0.0023  Tot=     9.1523
 Quadrupole moment (field-independent basis, Debye-Ang):
   XX=   -64.0782   YY=   -51.7062   ZZ=   -77.1284
   XY=   -21.8710   XZ=     0.0012   YZ=     0.0111
 Traceless Quadrupole moment (field-independent basis, Debye-Ang):
   XX=     0.2260   YY=    12.5981   ZZ=   -12.8241
   XY=   -21.8710   XZ=     0.0012   YZ=     0.0111
 Octapole moment (field-independent basis, Debye-Ang**2):
  XXX=   -95.1208  YYY=    45.4977  ZZZ=    -0.0089  XYY=     9.0096
  XXY=   118.3259  XXZ=    -0.0030  XZZ=     9.7557  YZZ=    10.9543
  YYZ=    -0.0060  XYZ=    -0.0165
 Hexadecapole moment (field-independent basis, Debye-Ang**3):
 XXXX= -2682.8929 YYYY=  -563.4335 ZZZZ=  -128.6409 XXXY=  -454.5812
 XXXZ=    -0.0238 YYYX=    22.1175 YYYZ=     0.0368 ZZZX=     0.0135
 ZZZY=     0.0272 XXYY=  -492.2162 XXZZ=  -482.1436 YYZZ=  -129.6208
 XXYZ=     0.0196 YYXZ=    -0.0040 ZZXY=   -17.0376
 N-N= 9.565581493215D+02 E-N=-8.414285485476D+03  KE= 2.742250532585D+03
 Merz-Kollman atomic radii used.
 Read replacement radii for each type of atom:
 Rad(20) =   1.188000000000D+00
 Atom Element Radius
    1     8    1.40
    2     8    1.40
    3    20    1.19
    4    20    1.19
    5    15    1.80
    6     8    1.40
    7    20    1.19
    8     8    1.40
    9     8    1.40

 **********************************************************************

            Electrostatic Properties Using The SCF Density

 **********************************************************************

       Atomic Center    1 is at   3.591629  0.534385  0.000141
       Atomic Center    2 is at  -0.624691  1.105200 -0.000459
       Atomic Center    3 is at  -2.870581  1.038098  0.000151
       Atomic Center    4 is at   1.481478  1.568943 -0.000069
       Atomic Center    5 is at   3.250031 -0.966305  0.000201
       Atomic Center    6 is at   1.686811 -1.040217  0.000131
       Atomic Center    7 is at  -0.679789 -1.278210 -0.000469
       Atomic Center    8 is at  -2.787359 -1.054752  0.784991
       Atomic Center    9 is at  -2.787969 -1.054872 -0.784219
     879 points will be used for fitting atomic charges
 Fitting point charges to eletrostatic potential
 Charges from ESP fit, RMS=   0.00471 RRMS=   0.03207:
 Charge=   1.00000 Dipole=     1.5366     9.2087    -0.0024 Tot=     9.3360
              1
     1  O   -0.661259
     2  O   -1.751032
     3  Ca   1.699141
     4  Ca   1.745047
     5  P    0.603206
     6  O   -0.748272
     7  Ca   1.665452
     8  O   -0.776133
     9  O   -0.776150
 -----------------------------------------------------------------

              Electrostatic Properties (Atomic Units)

 -----------------------------------------------------------------
    Center     Electric         -------- Electric Field --------
               Potential          X             Y             Z
 -----------------------------------------------------------------
    1 Atom    -22.177613
    2 Atom    -22.293139
    3 Atom    -80.062099
    4 Atom    -80.015430
    5 Atom    -53.901524
    6 Atom    -22.167416
    7 Atom    -80.080904
    8 Atom    -22.273268
    9 Atom    -22.273268
 -----------------------------------------------------------------
 1\1\GINC-N031\SP\RB3LYP\6-31+G(d,p)\Ca3O5P1(1+)\TIMN\12-Jun-2015\0\\# 
 b3lyp/6-31+G(d,p) int=ultrafine pop=(ReadRadii,MK)\\mol_17.24.19.pdbc_
 plusQ.z58274.zip.xyz\\1,1\O,0,3.59163,0.53438,0.00014\O,0,-0.62469,1.1
 052,-0.00046\Ca,0,-2.87058,1.0381,0.00015\Ca,0,1.48148,1.56894,-0.0000
 7\P,0,3.25003,-0.96631,0.0002\O,0,1.68681,-1.04022,0.00013\Ca,0,-0.679
 79,-1.27821,-0.00047\O,0,-2.78736,-1.05475,0.78499\O,0,-2.78797,-1.054
 87,-0.78422\\Version=EM64T-G03RevE.01\State=1-A\HF=-2750.2105912\RMSD=
 7.407e-05\Thermal=0.\Dipole=0.6051224,3.5495642,-0.0008917\PG=C01 [X(C
 a3O5P1)]\\@


 THE ONLY DIFFERENCE BETWEEN ECCENTRICS AND JOGGERS
 IS THAT JOGGERS WEAR SWEATBANDS WHEN THEY RUN IN THE RAIN.
 Job cpu time:  0 days  0 hours  2 minutes  4.0 seconds.
 File lengths (MBytes):  RWF=     36 Int=      0 D2E=      0 Chk=     11 Scr=      1
 Normal termination of Gaussian 03 at Fri Jun 12 17:55:09 2015.
