 Entering Gaussian System, Link 0=/home/timn/tmp/g03.e01/g03
 Input=mol_17.27.22.pdb_plusQ.z58490.zip.xyz.gjf
 Output=mol_17.27.22.pdb_plusQ.z58490.zip.xyz.out
 Initial command:
 /home/timn/tmp/g03.e01/l1.exe /home/timn/tmp/g03.e01/Gau-20578.inp -scrdir=/home/timn/tmp/g03.e01/
 Default is to use a total of   2 processors:
                                2 via shared-memory
                                1 via Linda
 Entering Link 1 = /home/timn/tmp/g03.e01/l1.exe PID=     20581.
  
 Copyright (c) 1988,1990,1992,1993,1995,1998,2003,2004,2007, Gaussian, Inc.
                  All Rights Reserved.
  
 This is the Gaussian(R) 03 program.  It is based on the
 the Gaussian(R) 98 system (copyright 1998, Gaussian, Inc.),
 the Gaussian(R) 94 system (copyright 1995, Gaussian, Inc.),
 the Gaussian 92(TM) system (copyright 1992, Gaussian, Inc.),
 the Gaussian 90(TM) system (copyright 1990, Gaussian, Inc.),
 the Gaussian 88(TM) system (copyright 1988, Gaussian, Inc.),
 the Gaussian 86(TM) system (copyright 1986, Carnegie Mellon
 University), and the Gaussian 82(TM) system (copyright 1983,
 Carnegie Mellon University). Gaussian is a federally registered
 trademark of Gaussian, Inc.
  
 This software contains proprietary and confidential information,
 including trade secrets, belonging to Gaussian, Inc.
  
 This software is provided under written license and may be
 used, copied, transmitted, or stored only in accord with that
 written license.
  
 The following legend is applicable only to US Government
 contracts under FAR:
  
                    RESTRICTED RIGHTS LEGEND
  
 Use, reproduction and disclosure by the US Government is
 subject to restrictions as set forth in subparagraphs (a)
 and (c) of the Commercial Computer Software - Restricted
 Rights clause in FAR 52.227-19.
  
 Gaussian, Inc.
 340 Quinnipiac St., Bldg. 40, Wallingford CT 06492
  
  
 ---------------------------------------------------------------
 Warning -- This program may not be used in any manner that
 competes with the business of Gaussian, Inc. or will provide
 assistance to any competitor of Gaussian, Inc.  The licensee
 of this program is prohibited from giving any competitor of
 Gaussian, Inc. access to this program.  By using this program,
 the user acknowledges that Gaussian, Inc. is engaged in the
 business of creating and licensing software in the field of
 computational chemistry and represents and warrants to the
 licensee that it is not a competitor of Gaussian, Inc. and that
 it will not use this program in any manner prohibited above.
 ---------------------------------------------------------------
  

 Cite this work as:
 Gaussian 03, Revision E.01,
 M. J. Frisch, G. W. Trucks, H. B. Schlegel, G. E. Scuseria, 
 M. A. Robb, J. R. Cheeseman, J. A. Montgomery, Jr., T. Vreven, 
 K. N. Kudin, J. C. Burant, J. M. Millam, S. S. Iyengar, J. Tomasi, 
 V. Barone, B. Mennucci, M. Cossi, G. Scalmani, N. Rega, 
 G. A. Petersson, H. Nakatsuji, M. Hada, M. Ehara, K. Toyota, 
 R. Fukuda, J. Hasegawa, M. Ishida, T. Nakajima, Y. Honda, O. Kitao, 
 H. Nakai, M. Klene, X. Li, J. E. Knox, H. P. Hratchian, J. B. Cross, 
 V. Bakken, C. Adamo, J. Jaramillo, R. Gomperts, R. E. Stratmann, 
 O. Yazyev, A. J. Austin, R. Cammi, C. Pomelli, J. W. Ochterski, 
 P. Y. Ayala, K. Morokuma, G. A. Voth, P. Salvador, J. J. Dannenberg, 
 V. G. Zakrzewski, S. Dapprich, A. D. Daniels, M. C. Strain, 
 O. Farkas, D. K. Malick, A. D. Rabuck, K. Raghavachari, 
 J. B. Foresman, J. V. Ortiz, Q. Cui, A. G. Baboul, S. Clifford, 
 J. Cioslowski, B. B. Stefanov, G. Liu, A. Liashenko, P. Piskorz, 
 I. Komaromi, R. L. Martin, D. J. Fox, T. Keith, M. A. Al-Laham, 
 C. Y. Peng, A. Nanayakkara, M. Challacombe, P. M. W. Gill, 
 B. Johnson, W. Chen, M. W. Wong, C. Gonzalez, and J. A. Pople, 
 Gaussian, Inc., Wallingford CT, 2004.
 
 ******************************************
 Gaussian 03:  EM64T-G03RevE.01 11-Sep-2007
                12-Jun-2015 
 ******************************************
 %nproc=2
 Will use up to    2 processors via shared memory.
 Default route:  MP2=Direct MaxDisk=2000MB
 ----------------------------------------------------
 # b3lyp/6-31+G(d,p) int=ultrafine pop=(ReadRadii,MK)
 ----------------------------------------------------

 Warning!  SCF SP cutoffs with diffuse functions may be unreliable.
 Consider SCF=Tight

 1/38=1/1;
 2/17=6,18=5,40=1/2;
 3/5=1,6=6,7=111,11=2,16=1,25=1,30=1,74=-5,75=5/1,2,3;
 4//1;
 5/5=2,32=1,38=5/2;
 6/7=2,8=2,9=2,10=2,15=8,20=101,28=1/1,2;
 99/5=1,9=1/99;
 -------------------------------------
 mol_17.27.22.pdb_plusQ.z58490.zip.xyz
 -------------------------------------
 Symbolic Z-matrix:
 Charge =  1 Multiplicity = 1
 O                    -0.00778   1.26737   1.20288 
 O                    -4.00884  -0.00355  -0.38512 
 Ca                   -1.85029  -0.02797   0.20674 
 P                     0.92517   0.00237   1.54478 
 O                     0.02567  -1.28417   1.19237 
 Ca                    1.03635  -1.73968  -0.86755 
 O                    -0.22039  -0.00211  -1.48098 
 Ca                    0.98677   1.76596  -0.85424 
 O                     2.0446    0.02223   0.362 
 
                          Input orientation:                          
 ---------------------------------------------------------------------
 Center     Atomic     Atomic              Coordinates (Angstroms)
 Number     Number      Type              X           Y           Z
 ---------------------------------------------------------------------
    1          8             0       -0.007780    1.267370    1.202880
    2          8             0       -4.008840   -0.003550   -0.385120
    3         20             0       -1.850290   -0.027970    0.206740
    4         15             0        0.925170    0.002370    1.544780
    5          8             0        0.025670   -1.284170    1.192370
    6         20             0        1.036350   -1.739680   -0.867550
    7          8             0       -0.220390   -0.002110   -1.480980
    8         20             0        0.986770    1.765960   -0.854240
    9          8             0        2.044600    0.022230    0.362000
 ---------------------------------------------------------------------
                    Distance matrix (angstroms):
                    1          2          3          4          5
     1  O    0.000000
     2  O    4.488370   0.000000
     3  Ca   2.462731   2.238355   0.000000
     4  P    1.608576   5.298019   3.081307   0.000000
     5  O    2.551781   4.517271   2.463479   1.608875   0.000000
     6  Ca   3.797267   5.357315   3.523740   2.977656   2.339281
     7  O    2.976556   3.943763   2.346410   3.235360   2.975067
     8  Ca   2.338689   5.320466   3.520337   2.978144   3.796791
     9  O    2.543564   6.099425   3.898307   1.628646   2.544066
                    6          7          8          9
     6  Ca   0.000000
     7  O    2.230435   0.000000
     8  Ca   3.506016   2.230720   0.000000
     9  O    2.373328   2.920162   2.374624   0.000000
 Stoichiometry    Ca3O5P(1+)
 Framework group  C1[X(Ca3O5P)]
 Deg. of freedom    21
 Full point group                 C1
 Largest Abelian subgroup         C1      NOp   1
 Largest concise Abelian subgroup C1      NOp   1
                         Standard orientation:                         
 ---------------------------------------------------------------------
 Center     Atomic     Atomic              Coordinates (Angstroms)
 Number     Number      Type              X           Y           Z
 ---------------------------------------------------------------------
    1          8             0       -0.007781    1.267371    1.202881
    2          8             0       -4.008842   -0.003546   -0.385119
    3         20             0       -1.850292   -0.027968    0.206741
    4         15             0        0.925168    0.002370    1.544781
    5          8             0        0.025667   -1.284169    1.192371
    6         20             0        1.036347   -1.739680   -0.867549
    7          8             0       -0.220392   -0.002109   -1.480979
    8         20             0        0.986769    1.765960   -0.854239
    9          8             0        2.044598    0.022229    0.362001
 ---------------------------------------------------------------------
 Rotational constants (GHZ):      0.9757079      0.6396026      0.5825368
 Standard basis: 6-31+G(d,p) (6D, 7F)
 There are   199 symmetry adapted basis functions of A   symmetry.
 Integral buffers will be    131072 words long.
 Raffenetti 2 integral format.
 Two-electron integral symmetry is turned on.
   199 basis functions,   456 primitive gaussians,   199 cartesian basis functions
    57 alpha electrons       57 beta electrons
       nuclear repulsion energy      1052.0430885107 Hartrees.
 NAtoms=    9 NActive=    9 NUniq=    9 SFac= 7.50D-01 NAtFMM=   80 NAOKFM=F Big=F
 One-electron integrals computed using PRISM.
 NBasis=   199 RedAO= T  NBF=   199
 NBsUse=   199 1.00D-06 NBFU=   199
 Harris functional with IExCor=  402 diagonalized for initial guess.
 ExpMin= 7.10D-03 ExpMax= 3.53D+04 ExpMxC= 5.30D+03 IAcc=3 IRadAn=         5 AccDes= 0.00D+00
 HarFok:  IExCor= 402 AccDes= 0.00D+00 IRadAn=         5 IDoV=1
 ScaDFX=  1.000000  1.000000  1.000000  1.000000
 Initial guess orbital symmetries:
       Occupied  (A) (A) (A) (A) (A) (A) (A) (A) (A) (A) (A) (A)
                 (A) (A) (A) (A) (A) (A) (A) (A) (A) (A) (A) (A)
                 (A) (A) (A) (A) (A) (A) (A) (A) (A) (A) (A) (A)
                 (A) (A) (A) (A) (A) (A) (A) (A) (A) (A) (A) (A)
                 (A) (A) (A) (A) (A) (A) (A) (A) (A)
       Virtual   (A) (A) (A) (A) (A) (A) (A) (A) (A) (A) (A) (A)
                 (A) (A) (A) (A) (A) (A) (A) (A) (A) (A) (A) (A)
                 (A) (A) (A) (A) (A) (A) (A) (A) (A) (A) (A) (A)
                 (A) (A) (A) (A) (A) (A) (A) (A) (A) (A) (A) (A)
                 (A) (A) (A) (A) (A) (A) (A) (A) (A) (A) (A) (A)
                 (A) (A) (A) (A) (A) (A) (A) (A) (A) (A) (A) (A)
                 (A) (A) (A) (A) (A) (A) (A) (A) (A) (A) (A) (A)
                 (A) (A) (A) (A) (A) (A) (A) (A) (A) (A) (A) (A)
                 (A) (A) (A) (A) (A) (A) (A) (A) (A) (A) (A) (A)
                 (A) (A) (A) (A) (A) (A) (A) (A) (A) (A) (A) (A)
                 (A) (A) (A) (A) (A) (A) (A) (A) (A) (A) (A) (A)
                 (A) (A) (A) (A) (A) (A) (A) (A) (A) (A)
 The electronic state of the initial guess is 1-A.
 Requested convergence on RMS density matrix=1.00D-04 within 128 cycles.
 Requested convergence on MAX density matrix=1.00D-02.
 Requested convergence on             energy=1.00D-02.
 No special actions if energy rises.
 EnCoef did     8 forward-backward iterations
 EnCoef did     5 forward-backward iterations
 EnCoef did     4 forward-backward iterations
 EnCoef did     7 forward-backward iterations
 EnCoef did     8 forward-backward iterations
 EnCoef did     4 forward-backward iterations
 EnCoef did    22 forward-backward iterations
 EnCoef did    16 forward-backward iterations
 EnCoef did   100 forward-backward iterations
 EnCoef did   100 forward-backward iterations
 EnCoef did     2 forward-backward iterations
 EnCoef did     2 forward-backward iterations
 SCF Done:  E(RB+HF-LYP) =  -2750.13177657     A.U. after   18 cycles
             Convg  =    0.7781D-04             -V/T =  2.0029
             S**2   =   0.0000

 **********************************************************************

            Population analysis using the SCF density.

 **********************************************************************

 Orbital symmetries:
       Occupied  (A) (A) (A) (A) (A) (A) (A) (A) (A) (A) (A) (A)
                 (A) (A) (A) (A) (A) (A) (A) (A) (A) (A) (A) (A)
                 (A) (A) (A) (A) (A) (A) (A) (A) (A) (A) (A) (A)
                 (A) (A) (A) (A) (A) (A) (A) (A) (A) (A) (A) (A)
                 (A) (A) (A) (A) (A) (A) (A) (A) (A)
       Virtual   (A) (A) (A) (A) (A) (A) (A) (A) (A) (A) (A) (A)
                 (A) (A) (A) (A) (A) (A) (A) (A) (A) (A) (A) (A)
                 (A) (A) (A) (A) (A) (A) (A) (A) (A) (A) (A) (A)
                 (A) (A) (A) (A) (A) (A) (A) (A) (A) (A) (A) (A)
                 (A) (A) (A) (A) (A) (A) (A) (A) (A) (A) (A) (A)
                 (A) (A) (A) (A) (A) (A) (A) (A) (A) (A) (A) (A)
                 (A) (A) (A) (A) (A) (A) (A) (A) (A) (A) (A) (A)
                 (A) (A) (A) (A) (A) (A) (A) (A) (A) (A) (A) (A)
                 (A) (A) (A) (A) (A) (A) (A) (A) (A) (A) (A) (A)
                 (A) (A) (A) (A) (A) (A) (A) (A) (A) (A) (A) (A)
                 (A) (A) (A) (A) (A) (A) (A) (A) (A) (A) (A) (A)
                 (A) (A) (A) (A) (A) (A) (A) (A) (A) (A)
 The electronic state is 1-A.
 Alpha  occ. eigenvalues -- -145.54372-145.54368-145.46596 -77.31606 -19.27364
 Alpha  occ. eigenvalues --  -19.27012 -19.26972 -19.24475 -19.20315 -15.61168
 Alpha  occ. eigenvalues --  -15.61163 -15.53503 -12.74378 -12.74375 -12.74344
 Alpha  occ. eigenvalues --  -12.74341 -12.74303 -12.74299 -12.66756 -12.66707
 Alpha  occ. eigenvalues --  -12.66560  -6.76673  -4.93007  -4.92989  -4.92700
 Alpha  occ. eigenvalues --   -1.98340  -1.98302  -1.90922  -1.26507  -1.26016
 Alpha  occ. eigenvalues --   -1.25953  -1.25701  -1.25623  -1.25165  -1.18953
 Alpha  occ. eigenvalues --   -1.18821  -1.18452  -1.13860  -1.07081  -1.07041
 Alpha  occ. eigenvalues --   -0.94953  -0.93752  -0.67346  -0.56556  -0.56344
 Alpha  occ. eigenvalues --   -0.54257  -0.49233  -0.48805  -0.44122  -0.43964
 Alpha  occ. eigenvalues --   -0.43250  -0.40126  -0.39691  -0.37984  -0.37055
 Alpha  occ. eigenvalues --   -0.36107  -0.33479
 Alpha virt. eigenvalues --   -0.31047  -0.22193  -0.20830  -0.15135  -0.13387
 Alpha virt. eigenvalues --   -0.13009  -0.12152  -0.11853  -0.09007  -0.08140
 Alpha virt. eigenvalues --   -0.07782  -0.06995  -0.06902  -0.06235  -0.05588
 Alpha virt. eigenvalues --   -0.05556  -0.05362  -0.04747  -0.04615  -0.04579
 Alpha virt. eigenvalues --   -0.03892  -0.03859  -0.03527  -0.03241  -0.03088
 Alpha virt. eigenvalues --   -0.02681  -0.01985  -0.00953  -0.00387   0.00668
 Alpha virt. eigenvalues --    0.01143   0.01951   0.02513   0.03222   0.03576
 Alpha virt. eigenvalues --    0.04017   0.04028   0.04721   0.04724   0.04764
 Alpha virt. eigenvalues --    0.04888   0.05273   0.05789   0.07582   0.07637
 Alpha virt. eigenvalues --    0.08773   0.08920   0.09349   0.09983   0.11990
 Alpha virt. eigenvalues --    0.12241   0.13252   0.14375   0.16341   0.17001
 Alpha virt. eigenvalues --    0.17633   0.18372   0.18435   0.19547   0.20236
 Alpha virt. eigenvalues --    0.20724   0.21379   0.22046   0.22467   0.23783
 Alpha virt. eigenvalues --    0.25139   0.28581   0.29557   0.29920   0.31135
 Alpha virt. eigenvalues --    0.31740   0.31959   0.33908   0.36400   0.36991
 Alpha virt. eigenvalues --    0.38165   0.42970   0.43521   0.47775   0.51066
 Alpha virt. eigenvalues --    0.51280   0.52561   0.58625   0.58804   0.67006
 Alpha virt. eigenvalues --    0.78683   0.82379   0.84548   0.92836   0.93079
 Alpha virt. eigenvalues --    1.10764   1.11021   1.11920   1.13504   1.13601
 Alpha virt. eigenvalues --    1.14531   1.17370   1.18065   1.19242   1.20573
 Alpha virt. eigenvalues --    1.21306   1.23532   1.24473   1.28274   1.29075
 Alpha virt. eigenvalues --    1.41073   1.42978   1.50511   1.51652   1.57636
 Alpha virt. eigenvalues --    1.65556   1.67576   1.67988   1.68023   1.72094
 Alpha virt. eigenvalues --    1.72796   1.73740   1.73963   1.77147   1.77315
 Alpha virt. eigenvalues --    1.81152   1.84349   1.84755   1.85011   1.86494
 Alpha virt. eigenvalues --    1.87163   1.90671   1.95210   1.96186   2.02499
 Alpha virt. eigenvalues --    2.03343   2.09128   2.16274   2.47433   2.59959
 Alpha virt. eigenvalues --    2.61855   3.46153   3.87641   4.05041   4.09191
 Alpha virt. eigenvalues --    4.09557   4.32839
          Condensed to atoms (all electrons):
              1          2          3          4          5          6
     1  O    8.850384   0.000051   0.046766  -0.126269   0.012362   0.007074
     2  O    0.000051   8.319616   0.169490  -0.001079   0.000060   0.007241
     3  Ca   0.046766   0.169490  18.408497  -0.015740   0.044916  -0.039210
     4  P   -0.126269  -0.001079  -0.015740  14.313876  -0.128597   0.002785
     5  O    0.012362   0.000060   0.044916  -0.128597   8.852733   0.053300
     6  Ca   0.007074   0.007241  -0.039210   0.002785   0.053300  18.314345
     7  O    0.017668  -0.001626   0.079696   0.016202   0.017379   0.129114
     8  Ca   0.052812   0.007164  -0.038839   0.005840   0.006916  -0.028818
     9  O    0.055637   0.000215   0.006469  -0.223586   0.056116   0.058557
              7          8          9
     1  O    0.017668   0.052812   0.055637
     2  O   -0.001626   0.007164   0.000215
     3  Ca   0.079696  -0.038839   0.006469
     4  P    0.016202   0.005840  -0.223586
     5  O    0.017379   0.006916   0.056116
     6  Ca   0.129114  -0.028818   0.058557
     7  O    8.789803   0.128862   0.022769
     8  Ca   0.128862  18.313932   0.057525
     9  O    0.022769   0.057525   8.918368
 Mulliken atomic charges:
              1
     1  O   -0.916486
     2  O   -0.501131
     3  Ca   1.337954
     4  P    1.156567
     5  O   -0.915184
     6  Ca   1.495611
     7  O   -1.199868
     8  Ca   1.494606
     9  O   -0.952070
 Sum of Mulliken charges=   1.00000
 Atomic charges with hydrogens summed into heavy atoms:
              1
     1  O   -0.916486
     2  O   -0.501131
     3  Ca   1.337954
     4  P    1.156567
     5  O   -0.915184
     6  Ca   1.495611
     7  O   -1.199868
     8  Ca   1.494606
     9  O   -0.952070
 Sum of Mulliken charges=   1.00000
 Electronic spatial extent (au):  <R**2>=  2094.0069
 Charge=     1.0000 electrons
 Dipole moment (field-independent basis, Debye):
    X=     9.7387    Y=     0.0079    Z=    -6.1957  Tot=    11.5425
 Quadrupole moment (field-independent basis, Debye-Ang):
   XX=   -93.1074   YY=   -37.0217   ZZ=   -79.8675
   XY=    -0.1432   XZ=   -22.7473   YZ=    -0.0761
 Traceless Quadrupole moment (field-independent basis, Debye-Ang):
   XX=   -23.1085   YY=    32.9771   ZZ=    -9.8686
   XY=    -0.1432   XZ=   -22.7473   YZ=    -0.0761
 Octapole moment (field-independent basis, Debye-Ang**2):
  XXX=   129.6016  YYY=     2.4113  ZZZ=   -14.4592  XYY=    57.9285
  XXY=    -2.2065  XXZ=     4.5369  XZZ=    19.8385  YZZ=    -0.1796
  YYZ=   -66.5553  XYZ=     0.9901
 Hexadecapole moment (field-independent basis, Debye-Ang**3):
 XXXX= -1939.0738 YYYY=  -384.6828 ZZZZ=  -598.3169 XXXY=    -2.4075
 XXXZ=  -175.8405 YYYX=    -0.1681 YYYZ=    -1.0134 ZZZX=   -62.3953
 ZZZY=    -0.0175 XXYY=  -252.6847 XXZZ=  -286.5159 YYZZ=  -159.9439
 XXYZ=     0.5865 YYXZ=   -62.8433 ZZXY=    -0.6073
 N-N= 1.052043088511D+03 E-N=-8.602541882092D+03  KE= 2.742124456266D+03
 Merz-Kollman atomic radii used.
 Read replacement radii for each type of atom:
 Rad(20) =   1.188000000000D+00
 Atom Element Radius
    1     8    1.40
    2     8    1.40
    3    20    1.19
    4    15    1.80
    5     8    1.40
    6    20    1.19
    7     8    1.40
    8    20    1.19
    9     8    1.40

 **********************************************************************

            Electrostatic Properties Using The SCF Density

 **********************************************************************

       Atomic Center    1 is at  -0.007781  1.267371  1.202881
       Atomic Center    2 is at  -4.008842 -0.003546 -0.385119
       Atomic Center    3 is at  -1.850292 -0.027968  0.206741
       Atomic Center    4 is at   0.925168  0.002370  1.544781
       Atomic Center    5 is at   0.025667 -1.284169  1.192371
       Atomic Center    6 is at   1.036347 -1.739680 -0.867549
       Atomic Center    7 is at  -0.220392 -0.002109 -1.480979
       Atomic Center    8 is at   0.986769  1.765960 -0.854239
       Atomic Center    9 is at   2.044598  0.022229  0.362001
     815 points will be used for fitting atomic charges
 Fitting point charges to eletrostatic potential
 Charges from ESP fit, RMS=   0.00526 RRMS=   0.03393:
 Charge=   1.00000 Dipole=     9.8826    -0.0070    -6.3489 Tot=    11.7463
              1
     1  O   -0.849285
     2  O   -0.643120
     3  Ca   1.631799
     4  P    0.758411
     5  O   -0.849075
     6  Ca   1.674988
     7  O   -1.469174
     8  Ca   1.674793
     9  O   -0.929337
 -----------------------------------------------------------------

              Electrostatic Properties (Atomic Units)

 -----------------------------------------------------------------
    Center     Electric         -------- Electric Field --------
               Potential          X             Y             Z
 -----------------------------------------------------------------
    1 Atom    -22.197648
    2 Atom    -22.214419
    3 Atom    -80.073668
    4 Atom    -53.900589
    5 Atom    -22.198260
    6 Atom    -79.998228
    7 Atom    -22.262804
    8 Atom    -79.998194
    9 Atom    -22.195001
 -----------------------------------------------------------------
 1\1\GINC-N022\SP\RB3LYP\6-31+G(d,p)\Ca3O5P1(1+)\TIMN\12-Jun-2015\0\\# 
 b3lyp/6-31+G(d,p) int=ultrafine pop=(ReadRadii,MK)\\mol_17.27.22.pdb_p
 lusQ.z58490.zip.xyz\\1,1\O,0,-0.00778,1.26737,1.20288\O,0,-4.00884,-0.
 00355,-0.38512\Ca,0,-1.85029,-0.02797,0.20674\P,0,0.92517,0.00237,1.54
 478\O,0,0.02567,-1.28417,1.19237\Ca,0,1.03635,-1.73968,-0.86755\O,0,-0
 .22039,-0.00211,-1.48098\Ca,0,0.98677,1.76596,-0.85424\O,0,2.0446,0.02
 223,0.362\\Version=EM64T-G03RevE.01\State=1-A\HF=-2750.1317766\RMSD=7.
 781e-05\Thermal=0.\Dipole=3.8315194,0.0031049,-2.4375869\PG=C01 [X(Ca3
 O5P1)]\\@


 I think that all right-thinking people in this
 country are sick and tired of being told that
 ordinary, decent people are fed up in this country
 with being sick and tired.  I'm certainly not!
 But I'm sick and tired of being told that I am!
                               -- Monty Python
 Job cpu time:  0 days  0 hours  4 minutes 33.8 seconds.
 File lengths (MBytes):  RWF=     36 Int=      0 D2E=      0 Chk=     11 Scr=      1
 Normal termination of Gaussian 03 at Fri Jun 12 18:08:39 2015.
