 Entering Gaussian System, Link 0=/home/timn/tmp/g03.e01/g03
 Input=mol_16.4.27.pdbc_plusQ.out.z51577.zip.xyz.gjf
 Output=mol_16.4.27.pdbc_plusQ.out.z51577.zip.xyz.out
 Initial command:
 /home/timn/tmp/g03.e01/l1.exe /home/timn/tmp/g03.e01/Gau-18573.inp -scrdir=/home/timn/tmp/g03.e01/
 Default is to use a total of   2 processors:
                                2 via shared-memory
                                1 via Linda
 Entering Link 1 = /home/timn/tmp/g03.e01/l1.exe PID=     18575.
  
 Copyright (c) 1988,1990,1992,1993,1995,1998,2003,2004,2007, Gaussian, Inc.
                  All Rights Reserved.
  
 This is the Gaussian(R) 03 program.  It is based on the
 the Gaussian(R) 98 system (copyright 1998, Gaussian, Inc.),
 the Gaussian(R) 94 system (copyright 1995, Gaussian, Inc.),
 the Gaussian 92(TM) system (copyright 1992, Gaussian, Inc.),
 the Gaussian 90(TM) system (copyright 1990, Gaussian, Inc.),
 the Gaussian 88(TM) system (copyright 1988, Gaussian, Inc.),
 the Gaussian 86(TM) system (copyright 1986, Carnegie Mellon
 University), and the Gaussian 82(TM) system (copyright 1983,
 Carnegie Mellon University). Gaussian is a federally registered
 trademark of Gaussian, Inc.
  
 This software contains proprietary and confidential information,
 including trade secrets, belonging to Gaussian, Inc.
  
 This software is provided under written license and may be
 used, copied, transmitted, or stored only in accord with that
 written license.
  
 The following legend is applicable only to US Government
 contracts under FAR:
  
                    RESTRICTED RIGHTS LEGEND
  
 Use, reproduction and disclosure by the US Government is
 subject to restrictions as set forth in subparagraphs (a)
 and (c) of the Commercial Computer Software - Restricted
 Rights clause in FAR 52.227-19.
  
 Gaussian, Inc.
 340 Quinnipiac St., Bldg. 40, Wallingford CT 06492
  
  
 ---------------------------------------------------------------
 Warning -- This program may not be used in any manner that
 competes with the business of Gaussian, Inc. or will provide
 assistance to any competitor of Gaussian, Inc.  The licensee
 of this program is prohibited from giving any competitor of
 Gaussian, Inc. access to this program.  By using this program,
 the user acknowledges that Gaussian, Inc. is engaged in the
 business of creating and licensing software in the field of
 computational chemistry and represents and warrants to the
 licensee that it is not a competitor of Gaussian, Inc. and that
 it will not use this program in any manner prohibited above.
 ---------------------------------------------------------------
  

 Cite this work as:
 Gaussian 03, Revision E.01,
 M. J. Frisch, G. W. Trucks, H. B. Schlegel, G. E. Scuseria, 
 M. A. Robb, J. R. Cheeseman, J. A. Montgomery, Jr., T. Vreven, 
 K. N. Kudin, J. C. Burant, J. M. Millam, S. S. Iyengar, J. Tomasi, 
 V. Barone, B. Mennucci, M. Cossi, G. Scalmani, N. Rega, 
 G. A. Petersson, H. Nakatsuji, M. Hada, M. Ehara, K. Toyota, 
 R. Fukuda, J. Hasegawa, M. Ishida, T. Nakajima, Y. Honda, O. Kitao, 
 H. Nakai, M. Klene, X. Li, J. E. Knox, H. P. Hratchian, J. B. Cross, 
 V. Bakken, C. Adamo, J. Jaramillo, R. Gomperts, R. E. Stratmann, 
 O. Yazyev, A. J. Austin, R. Cammi, C. Pomelli, J. W. Ochterski, 
 P. Y. Ayala, K. Morokuma, G. A. Voth, P. Salvador, J. J. Dannenberg, 
 V. G. Zakrzewski, S. Dapprich, A. D. Daniels, M. C. Strain, 
 O. Farkas, D. K. Malick, A. D. Rabuck, K. Raghavachari, 
 J. B. Foresman, J. V. Ortiz, Q. Cui, A. G. Baboul, S. Clifford, 
 J. Cioslowski, B. B. Stefanov, G. Liu, A. Liashenko, P. Piskorz, 
 I. Komaromi, R. L. Martin, D. J. Fox, T. Keith, M. A. Al-Laham, 
 C. Y. Peng, A. Nanayakkara, M. Challacombe, P. M. W. Gill, 
 B. Johnson, W. Chen, M. W. Wong, C. Gonzalez, and J. A. Pople, 
 Gaussian, Inc., Wallingford CT, 2004.
 
 ******************************************
 Gaussian 03:  EM64T-G03RevE.01 11-Sep-2007
                12-Jun-2015 
 ******************************************
 %nproc=2
 Will use up to    2 processors via shared memory.
 Default route:  MP2=Direct MaxDisk=2000MB
 ----------------------------------------------------
 # b3lyp/6-31+G(d,p) int=ultrafine pop=(ReadRadii,MK)
 ----------------------------------------------------

 Warning!  SCF SP cutoffs with diffuse functions may be unreliable.
 Consider SCF=Tight

 1/38=1/1;
 2/17=6,18=5,40=1/2;
 3/5=1,6=6,7=111,11=2,16=1,25=1,30=1,74=-5,75=5/1,2,3;
 4//1;
 5/5=2,32=1,38=5/2;
 6/7=2,8=2,9=2,10=2,15=8,20=101,28=1/1,2;
 99/5=1,9=1/99;
 -----------------------------------------
 mol_16.4.27.pdbc_plusQ.out.z51577.zip.xyz
 -----------------------------------------
 Symbolic Z-matrix:
 Charge =  1 Multiplicity = 1
 O                    -1.71229   0.00612   0.78681 
 O                    -1.71532   0.00604  -0.78508 
 P                     2.31974  -0.00797   0.0003 
 O                     1.43752  -1.27813  -0.00165 
 O                     1.44708   1.26889   0.00053 
 Ca                   -0.75422   1.85997  -0.00054 
 Ca                   -0.76838  -1.85516   0.00007 
 
                          Input orientation:                          
 ---------------------------------------------------------------------
 Center     Atomic     Atomic              Coordinates (Angstroms)
 Number     Number      Type              X           Y           Z
 ---------------------------------------------------------------------
    1          8             0       -1.712290    0.006120    0.786810
    2          8             0       -1.715320    0.006040   -0.785080
    3         15             0        2.319740   -0.007970    0.000300
    4          8             0        1.437520   -1.278130   -0.001650
    5          8             0        1.447080    1.268890    0.000530
    6         20             0       -0.754220    1.859970   -0.000540
    7         20             0       -0.768380   -1.855160    0.000070
 ---------------------------------------------------------------------
                    Distance matrix (angstroms):
                    1          2          3          4          5
     1  O    0.000000
     2  O    1.571893   0.000000
     3  P    4.108048   4.110806   0.000000
     4  O    3.491743   3.493316   1.546487   0.000000
     5  O    3.492054   3.494674   1.546579   2.547039   0.000000
     6  Ca   2.230376   2.230756   3.597003   3.827714   2.279276
     7  Ca   2.230311   2.230969   3.598416   2.280123   3.829876
                    6          7
     6  Ca   0.000000
     7  Ca   3.715157   0.000000
 Stoichiometry    Ca2O4P(1+)
 Framework group  C1[X(Ca2O4P)]
 Deg. of freedom    15
 Full point group                 C1
 Largest Abelian subgroup         C1      NOp   1
 Largest concise Abelian subgroup C1      NOp   1
                         Standard orientation:                         
 ---------------------------------------------------------------------
 Center     Atomic     Atomic              Coordinates (Angstroms)
 Number     Number      Type              X           Y           Z
 ---------------------------------------------------------------------
    1          8             0       -1.712290    0.006083    0.786810
    2          8             0       -1.715320    0.006003   -0.785080
    3         15             0        2.319740   -0.007920    0.000300
    4          8             0        1.437547   -1.278099   -0.001650
    5          8             0        1.447052    1.268921    0.000530
    6         20             0       -0.754260    1.859954   -0.000540
    7         20             0       -0.768340   -1.855177    0.000070
 ---------------------------------------------------------------------
 Rotational constants (GHZ):      1.4546109      1.2851745      0.7207868
 Standard basis: 6-31+G(d,p) (6D, 7F)
 There are   153 symmetry adapted basis functions of A   symmetry.
 Integral buffers will be    131072 words long.
 Raffenetti 2 integral format.
 Two-electron integral symmetry is turned on.
   153 basis functions,   344 primitive gaussians,   153 cartesian basis functions
    43 alpha electrons       43 beta electrons
       nuclear repulsion energy       602.2171529233 Hartrees.
 NAtoms=    7 NActive=    7 NUniq=    7 SFac= 7.50D-01 NAtFMM=   80 NAOKFM=F Big=F
 One-electron integrals computed using PRISM.
 NBasis=   153 RedAO= T  NBF=   153
 NBsUse=   153 1.00D-06 NBFU=   153
 Harris functional with IExCor=  402 diagonalized for initial guess.
 ExpMin= 7.10D-03 ExpMax= 3.53D+04 ExpMxC= 5.30D+03 IAcc=3 IRadAn=         5 AccDes= 0.00D+00
 HarFok:  IExCor= 402 AccDes= 0.00D+00 IRadAn=         5 IDoV=1
 ScaDFX=  1.000000  1.000000  1.000000  1.000000
 Initial guess orbital symmetries:
       Occupied  (A) (A) (A) (A) (A) (A) (A) (A) (A) (A) (A) (A)
                 (A) (A) (A) (A) (A) (A) (A) (A) (A) (A) (A) (A)
                 (A) (A) (A) (A) (A) (A) (A) (A) (A) (A) (A) (A)
                 (A) (A) (A) (A) (A) (A) (A)
       Virtual   (A) (A) (A) (A) (A) (A) (A) (A) (A) (A) (A) (A)
                 (A) (A) (A) (A) (A) (A) (A) (A) (A) (A) (A) (A)
                 (A) (A) (A) (A) (A) (A) (A) (A) (A) (A) (A) (A)
                 (A) (A) (A) (A) (A) (A) (A) (A) (A) (A) (A) (A)
                 (A) (A) (A) (A) (A) (A) (A) (A) (A) (A) (A) (A)
                 (A) (A) (A) (A) (A) (A) (A) (A) (A) (A) (A) (A)
                 (A) (A) (A) (A) (A) (A) (A) (A) (A) (A) (A) (A)
                 (A) (A) (A) (A) (A) (A) (A) (A) (A) (A) (A) (A)
                 (A) (A) (A) (A) (A) (A) (A) (A) (A) (A) (A) (A)
                 (A) (A)
 The electronic state of the initial guess is 1-A.
 Requested convergence on RMS density matrix=1.00D-04 within 128 cycles.
 Requested convergence on MAX density matrix=1.00D-02.
 Requested convergence on             energy=1.00D-02.
 No special actions if energy rises.
 SCF Done:  E(RB+HF-LYP) =  -1997.33372355     A.U. after    6 cycles
             Convg  =    0.4478D-04             -V/T =  2.0031
             S**2   =   0.0000

 **********************************************************************

            Population analysis using the SCF density.

 **********************************************************************

 Orbital symmetries:
       Occupied  (A) (A) (A) (A) (A) (A) (A) (A) (A) (A) (A) (A)
                 (A) (A) (A) (A) (A) (A) (A) (A) (A) (A) (A) (A)
                 (A) (A) (A) (A) (A) (A) (A) (A) (A) (A) (A) (A)
                 (A) (A) (A) (A) (A) (A) (A)
       Virtual   (A) (A) (A) (A) (A) (A) (A) (A) (A) (A) (A) (A)
                 (A) (A) (A) (A) (A) (A) (A) (A) (A) (A) (A) (A)
                 (A) (A) (A) (A) (A) (A) (A) (A) (A) (A) (A) (A)
                 (A) (A) (A) (A) (A) (A) (A) (A) (A) (A) (A) (A)
                 (A) (A) (A) (A) (A) (A) (A) (A) (A) (A) (A) (A)
                 (A) (A) (A) (A) (A) (A) (A) (A) (A) (A) (A) (A)
                 (A) (A) (A) (A) (A) (A) (A) (A) (A) (A) (A) (A)
                 (A) (A) (A) (A) (A) (A) (A) (A) (A) (A) (A) (A)
                 (A) (A) (A) (A) (A) (A) (A) (A) (A) (A) (A) (A)
                 (A) (A)
 The electronic state is 1-A.
 Alpha  occ. eigenvalues -- -145.53248-145.53238 -77.30168 -19.27991 -19.27928
 Alpha  occ. eigenvalues --  -19.25644 -19.25526 -15.60095 -15.60086 -12.73310
 Alpha  occ. eigenvalues --  -12.73300 -12.73292 -12.73282 -12.73209 -12.73199
 Alpha  occ. eigenvalues --   -6.75649  -4.92089  -4.91874  -4.91429  -1.97235
 Alpha  occ. eigenvalues --   -1.97208  -1.25768  -1.24805  -1.24793  -1.24725
 Alpha  occ. eigenvalues --   -1.24724  -1.24301  -1.13934  -1.08565  -1.08265
 Alpha  occ. eigenvalues --   -0.89514  -0.67713  -0.57291  -0.52833  -0.52611
 Alpha  occ. eigenvalues --   -0.49001  -0.47952  -0.46130  -0.45773  -0.43912
 Alpha  occ. eigenvalues --   -0.40706  -0.37186  -0.34164
 Alpha virt. eigenvalues --   -0.20455  -0.19859  -0.19629  -0.14475  -0.11367
 Alpha virt. eigenvalues --   -0.11282  -0.10317  -0.09667  -0.09030  -0.07375
 Alpha virt. eigenvalues --   -0.07216  -0.06432  -0.05962  -0.05215  -0.04857
 Alpha virt. eigenvalues --   -0.04431  -0.04390  -0.04083  -0.04002  -0.03875
 Alpha virt. eigenvalues --   -0.03337  -0.02380   0.00221   0.01106   0.02012
 Alpha virt. eigenvalues --    0.02950   0.03321   0.03644   0.04211   0.05048
 Alpha virt. eigenvalues --    0.05139   0.05191   0.06779   0.07030   0.07276
 Alpha virt. eigenvalues --    0.07479   0.08126   0.08214   0.12235   0.13582
 Alpha virt. eigenvalues --    0.14149   0.14766   0.16274   0.16817   0.16925
 Alpha virt. eigenvalues --    0.18694   0.20334   0.21716   0.24405   0.26754
 Alpha virt. eigenvalues --    0.28311   0.29471   0.31793   0.32139   0.32488
 Alpha virt. eigenvalues --    0.36025   0.36745   0.40457   0.43980   0.45544
 Alpha virt. eigenvalues --    0.48008   0.56595   0.57815   0.60239   0.65650
 Alpha virt. eigenvalues --    0.71339   0.87022   0.90208   0.94367   1.03578
 Alpha virt. eigenvalues --    1.05859   1.07977   1.08392   1.12005   1.12347
 Alpha virt. eigenvalues --    1.14810   1.15156   1.17880   1.20699   1.23932
 Alpha virt. eigenvalues --    1.28626   1.38337   1.42995   1.46788   1.50552
 Alpha virt. eigenvalues --    1.50900   1.58090   1.66223   1.68003   1.70672
 Alpha virt. eigenvalues --    1.71262   1.75738   1.80031   1.81188   1.82382
 Alpha virt. eigenvalues --    1.84433   1.85975   1.86049   1.92966   2.09468
 Alpha virt. eigenvalues --    2.16242   2.17012   2.53541   2.67512   3.00337
 Alpha virt. eigenvalues --    3.38465   3.83790   3.90571   3.97511   4.05874
          Condensed to atoms (all electrons):
              1          2          3          4          5          6
     1  O    8.517497  -0.060179  -0.004312   0.002540   0.002591   0.105687
     2  O   -0.060179   8.514607  -0.004468   0.002552   0.002530   0.106197
     3  P   -0.004312  -0.004468  14.567306  -0.094257  -0.094762  -0.019158
     4  O    0.002540   0.002552  -0.094257   8.814441  -0.085850   0.002339
     5  O    0.002591   0.002530  -0.094762  -0.085850   8.815874   0.067474
     6  Ca   0.105687   0.106197  -0.019158   0.002339   0.067474  18.210373
     7  Ca   0.105828   0.106076  -0.019091   0.067452   0.002347  -0.016677
              7
     1  O    0.105828
     2  O    0.106076
     3  P   -0.019091
     4  O    0.067452
     5  O    0.002347
     6  Ca  -0.016677
     7  Ca  18.210185
 Mulliken atomic charges:
              1
     1  O   -0.669653
     2  O   -0.667315
     3  P    0.668743
     4  O   -0.709216
     5  O   -0.710205
     6  Ca   1.543766
     7  Ca   1.543880
 Sum of Mulliken charges=   1.00000
 Atomic charges with hydrogens summed into heavy atoms:
              1
     1  O   -0.669653
     2  O   -0.667315
     3  P    0.668743
     4  O   -0.709216
     5  O   -0.710205
     6  Ca   1.543766
     7  Ca   1.543880
 Sum of Mulliken charges=   1.00000
 Electronic spatial extent (au):  <R**2>=  1377.9675
 Charge=     1.0000 electrons
 Dipole moment (field-independent basis, Debye):
    X=    -3.1337    Y=    -0.0027    Z=    -0.0151  Tot=     3.1337
 Quadrupole moment (field-independent basis, Debye-Ang):
   XX=   -66.5155   YY=    -8.9178   ZZ=   -58.2514
   XY=     0.2077   XZ=     0.0243   YZ=    -0.0202
 Traceless Quadrupole moment (field-independent basis, Debye-Ang):
   XX=   -21.9539   YY=    35.6438   ZZ=   -13.6899
   XY=     0.2077   XZ=     0.0243   YZ=    -0.0202
 Octapole moment (field-independent basis, Debye-Ang**2):
  XXX=     6.9595  YYY=     0.6588  ZZZ=    -0.0292  XYY=   -70.8082
  XXY=    -0.5742  XXZ=    -0.0268  XZZ=     1.4211  YZZ=    -0.0072
  YYZ=    -0.0047  XYZ=    -0.0068
 Hexadecapole moment (field-independent basis, Debye-Ang**3):
 XXXX=  -942.9289 YYYY=  -329.5820 ZZZZ=  -103.9259 XXXY=     0.8790
 XXXZ=    -0.0323 YYYX=     1.1133 YYYZ=    -0.0810 ZZZX=     0.0470
 ZZZY=    -0.0309 XXYY=  -220.7299 XXZZ=  -174.4770 YYZZ=  -103.3432
 XXYZ=    -0.0334 YYXZ=     0.0119 ZZXY=     0.2154
 N-N= 6.022171529233D+02 E-N=-5.923866880650D+03  KE= 1.991112310416D+03
 Merz-Kollman atomic radii used.
 Read replacement radii for each type of atom:
 Rad(20) =   1.188000000000D+00
 Atom Element Radius
    1     8    1.40
    2     8    1.40
    3    15    1.80
    4     8    1.40
    5     8    1.40
    6    20    1.19
    7    20    1.19

 **********************************************************************

            Electrostatic Properties Using The SCF Density

 **********************************************************************

       Atomic Center    1 is at  -1.712290  0.006083  0.786810
       Atomic Center    2 is at  -1.715320  0.006003 -0.785080
       Atomic Center    3 is at   2.319740 -0.007920  0.000300
       Atomic Center    4 is at   1.437547 -1.278099 -0.001650
       Atomic Center    5 is at   1.447052  1.268921  0.000530
       Atomic Center    6 is at  -0.754260  1.859954 -0.000540
       Atomic Center    7 is at  -0.768340 -1.855177  0.000070
     703 points will be used for fitting atomic charges
 Fitting point charges to eletrostatic potential
 Charges from ESP fit, RMS=   0.00422 RRMS=   0.02772:
 Charge=   1.00000 Dipole=    -2.9823     0.0052    -0.0141 Tot=     2.9824
              1
     1  O   -0.788881
     2  O   -0.786584
     3  P    0.641534
     4  O   -0.758551
     5  O   -0.755713
     6  Ca   1.723258
     7  Ca   1.724937
 -----------------------------------------------------------------

              Electrostatic Properties (Atomic Units)

 -----------------------------------------------------------------
    Center     Electric         -------- Electric Field --------
               Potential          X             Y             Z
 -----------------------------------------------------------------
    1 Atom    -22.215844
    2 Atom    -22.212152
    3 Atom    -53.916273
    4 Atom    -22.183115
    5 Atom    -22.184925
    6 Atom    -80.008113
    7 Atom    -80.007895
 -----------------------------------------------------------------
 1\1\GINC-N027\SP\RB3LYP\6-31+G(d,p)\Ca2O4P1(1+)\TIMN\12-Jun-2015\0\\# 
 b3lyp/6-31+G(d,p) int=ultrafine pop=(ReadRadii,MK)\\mol_16.4.27.pdbc_p
 lusQ.out.z51577.zip.xyz\\1,1\O,0,-1.71229,0.00612,0.78681\O,0,-1.71532
 ,0.00604,-0.78508\P,0,2.31974,-0.00797,0.0003\O,0,1.43752,-1.27813,-0.
 00165\O,0,1.44708,1.26889,0.00053\Ca,0,-0.75422,1.85997,-0.00054\Ca,0,
 -0.76838,-1.85516,0.00007\\Version=EM64T-G03RevE.01\State=1-A\HF=-1997
 .3337236\RMSD=4.478e-05\Thermal=0.\Dipole=-1.2328735,-0.0010368,-0.005
 9547\PG=C01 [X(Ca2O4P1)]\\@


 SATCHEL PAIGE'S GUIDE TO LONGEVITY

    1.  AVOID FRIED MEATS, WHICH ANGRY UP THE BLOOD.

    2.  IF YOUR STOMACH DISPUTES YOU, LIE DOWN AND PACIFY IT WITH COOL
        THOUGHTS.

    3.  KEEP THE JUICES FLOWING BY JANGLING AROUND GENTLY AS YOU MOVE.

    4.  GO VERY LIGHT ON THE VICES, SUCH AS CARRYING ON IN SOCIETY.
        THE SOCIAL RUMBLE AIN'T RESTFUL.

    5.  AVOID RUNNING AT ALL TIMES.

    6.  DON'T LOOK BACK.  SOMETHING MAY BE GAINING ON YOU.
 Job cpu time:  0 days  0 hours  0 minutes 45.1 seconds.
 File lengths (MBytes):  RWF=     28 Int=      0 D2E=      0 Chk=     10 Scr=      1
 Normal termination of Gaussian 03 at Fri Jun 12 17:48:13 2015.
