 Entering Gaussian System, Link 0=/home/timn/tmp/g03.e01/g03
 Input=mol_17.28.2.pdbc_plusQ.z58553.zip.xyz.gjf
 Output=mol_17.28.2.pdbc_plusQ.z58553.zip.xyz.out
 Initial command:
 /home/timn/tmp/g03.e01/l1.exe /home/timn/tmp/g03.e01/Gau-14100.inp -scrdir=/home/timn/tmp/g03.e01/
 Default is to use a total of   2 processors:
                                2 via shared-memory
                                1 via Linda
 Entering Link 1 = /home/timn/tmp/g03.e01/l1.exe PID=     14101.
  
 Copyright (c) 1988,1990,1992,1993,1995,1998,2003,2004,2007, Gaussian, Inc.
                  All Rights Reserved.
  
 This is the Gaussian(R) 03 program.  It is based on the
 the Gaussian(R) 98 system (copyright 1998, Gaussian, Inc.),
 the Gaussian(R) 94 system (copyright 1995, Gaussian, Inc.),
 the Gaussian 92(TM) system (copyright 1992, Gaussian, Inc.),
 the Gaussian 90(TM) system (copyright 1990, Gaussian, Inc.),
 the Gaussian 88(TM) system (copyright 1988, Gaussian, Inc.),
 the Gaussian 86(TM) system (copyright 1986, Carnegie Mellon
 University), and the Gaussian 82(TM) system (copyright 1983,
 Carnegie Mellon University). Gaussian is a federally registered
 trademark of Gaussian, Inc.
  
 This software contains proprietary and confidential information,
 including trade secrets, belonging to Gaussian, Inc.
  
 This software is provided under written license and may be
 used, copied, transmitted, or stored only in accord with that
 written license.
  
 The following legend is applicable only to US Government
 contracts under FAR:
  
                    RESTRICTED RIGHTS LEGEND
  
 Use, reproduction and disclosure by the US Government is
 subject to restrictions as set forth in subparagraphs (a)
 and (c) of the Commercial Computer Software - Restricted
 Rights clause in FAR 52.227-19.
  
 Gaussian, Inc.
 340 Quinnipiac St., Bldg. 40, Wallingford CT 06492
  
  
 ---------------------------------------------------------------
 Warning -- This program may not be used in any manner that
 competes with the business of Gaussian, Inc. or will provide
 assistance to any competitor of Gaussian, Inc.  The licensee
 of this program is prohibited from giving any competitor of
 Gaussian, Inc. access to this program.  By using this program,
 the user acknowledges that Gaussian, Inc. is engaged in the
 business of creating and licensing software in the field of
 computational chemistry and represents and warrants to the
 licensee that it is not a competitor of Gaussian, Inc. and that
 it will not use this program in any manner prohibited above.
 ---------------------------------------------------------------
  

 Cite this work as:
 Gaussian 03, Revision E.01,
 M. J. Frisch, G. W. Trucks, H. B. Schlegel, G. E. Scuseria, 
 M. A. Robb, J. R. Cheeseman, J. A. Montgomery, Jr., T. Vreven, 
 K. N. Kudin, J. C. Burant, J. M. Millam, S. S. Iyengar, J. Tomasi, 
 V. Barone, B. Mennucci, M. Cossi, G. Scalmani, N. Rega, 
 G. A. Petersson, H. Nakatsuji, M. Hada, M. Ehara, K. Toyota, 
 R. Fukuda, J. Hasegawa, M. Ishida, T. Nakajima, Y. Honda, O. Kitao, 
 H. Nakai, M. Klene, X. Li, J. E. Knox, H. P. Hratchian, J. B. Cross, 
 V. Bakken, C. Adamo, J. Jaramillo, R. Gomperts, R. E. Stratmann, 
 O. Yazyev, A. J. Austin, R. Cammi, C. Pomelli, J. W. Ochterski, 
 P. Y. Ayala, K. Morokuma, G. A. Voth, P. Salvador, J. J. Dannenberg, 
 V. G. Zakrzewski, S. Dapprich, A. D. Daniels, M. C. Strain, 
 O. Farkas, D. K. Malick, A. D. Rabuck, K. Raghavachari, 
 J. B. Foresman, J. V. Ortiz, Q. Cui, A. G. Baboul, S. Clifford, 
 J. Cioslowski, B. B. Stefanov, G. Liu, A. Liashenko, P. Piskorz, 
 I. Komaromi, R. L. Martin, D. J. Fox, T. Keith, M. A. Al-Laham, 
 C. Y. Peng, A. Nanayakkara, M. Challacombe, P. M. W. Gill, 
 B. Johnson, W. Chen, M. W. Wong, C. Gonzalez, and J. A. Pople, 
 Gaussian, Inc., Wallingford CT, 2004.
 
 ******************************************
 Gaussian 03:  EM64T-G03RevE.01 11-Sep-2007
                12-Jun-2015 
 ******************************************
 %nproc=2
 Will use up to    2 processors via shared memory.
 Default route:  MP2=Direct MaxDisk=2000MB
 ----------------------------------------------------
 # b3lyp/6-31+G(d,p) int=ultrafine pop=(ReadRadii,MK)
 ----------------------------------------------------

 Warning!  SCF SP cutoffs with diffuse functions may be unreliable.
 Consider SCF=Tight

 1/38=1/1;
 2/17=6,18=5,40=1/2;
 3/5=1,6=6,7=111,11=2,16=1,25=1,30=1,74=-5,75=5/1,2,3;
 4//1;
 5/5=2,32=1,38=5/2;
 6/7=2,8=2,9=2,10=2,15=8,20=101,28=1/1,2;
 99/5=1,9=1/99;
 -------------------------------------
 mol_17.28.2.pdbc_plusQ.z58553.zip.xyz
 -------------------------------------
 Symbolic Z-matrix:
 Charge =  1 Multiplicity = 1
 O                     1.72594  -1.49167   0.00014 
 O                    -0.56475   1.10599  -0.00016 
 Ca                   -2.81828   0.99356   0.00012 
 O                    -2.7128   -1.08836   0.78498 
 O                    -2.71301  -1.08833  -0.78485 
 Ca                   -0.59797  -1.30833  -0.00021 
 P                     3.19441  -1.02913   0.00015 
 Ca                    1.43231   1.90266  -0.00001 
 O                     3.23496   0.52227  -0.00016 
 
                          Input orientation:                          
 ---------------------------------------------------------------------
 Center     Atomic     Atomic              Coordinates (Angstroms)
 Number     Number      Type              X           Y           Z
 ---------------------------------------------------------------------
    1          8             0        1.725940   -1.491670    0.000140
    2          8             0       -0.564750    1.105990   -0.000160
    3         20             0       -2.818280    0.993560    0.000120
    4          8             0       -2.712800   -1.088360    0.784980
    5          8             0       -2.713010   -1.088330   -0.784850
    6         20             0       -0.597970   -1.308330   -0.000210
    7         15             0        3.194410   -1.029130    0.000150
    8         20             0        1.432310    1.902660   -0.000010
    9          8             0        3.234960    0.522270   -0.000160
 ---------------------------------------------------------------------
                    Distance matrix (angstroms):
                    1          2          3          4          5
     1  O    0.000000
     2  O    3.463394   0.000000
     3  Ca   5.179412   2.256333   0.000000
     4  O    4.525599   3.169501   2.227447   0.000000
     5  O    4.525834   3.169511   2.227448   1.569830   0.000000
     6  Ca   2.331131   2.414549   3.198199   2.266587   2.266595
     7  P    1.539593   4.323196   6.343793   5.959412   5.959643
     8  Ca   3.407007   2.150100   4.346720   5.171494   5.171622
     9  O    2.516564   3.844285   6.071559   6.211797   6.211934
                    6          7          8          9
     6  Ca   0.000000
     7  P    3.802644   0.000000
     8  Ca   3.799012   3.420583   0.000000
     9  O    4.247640   1.551930   2.270468   0.000000
 Stoichiometry    Ca3O5P(1+)
 Framework group  C1[X(Ca3O5P)]
 Deg. of freedom    21
 Full point group                 C1
 Largest Abelian subgroup         C1      NOp   1
 Largest concise Abelian subgroup C1      NOp   1
                         Standard orientation:                         
 ---------------------------------------------------------------------
 Center     Atomic     Atomic              Coordinates (Angstroms)
 Number     Number      Type              X           Y           Z
 ---------------------------------------------------------------------
    1          8             0        1.725937   -1.491673    0.000141
    2          8             0       -0.564749    1.105990   -0.000159
    3         20             0       -2.818279    0.993563    0.000121
    4          8             0       -2.712802   -1.088357    0.784981
    5          8             0       -2.713012   -1.088327   -0.784849
    6         20             0       -0.597972   -1.308330   -0.000209
    7         15             0        3.194408   -1.029135    0.000151
    8         20             0        1.432312    1.902658   -0.000009
    9          8             0        3.234960    0.522265   -0.000159
 ---------------------------------------------------------------------
 Rotational constants (GHZ):      1.2558215      0.4194014      0.3223055
 Standard basis: 6-31+G(d,p) (6D, 7F)
 There are   199 symmetry adapted basis functions of A   symmetry.
 Integral buffers will be    131072 words long.
 Raffenetti 2 integral format.
 Two-electron integral symmetry is turned on.
   199 basis functions,   456 primitive gaussians,   199 cartesian basis functions
    57 alpha electrons       57 beta electrons
       nuclear repulsion energy       946.9408747529 Hartrees.
 NAtoms=    9 NActive=    9 NUniq=    9 SFac= 7.50D-01 NAtFMM=   80 NAOKFM=F Big=F
 One-electron integrals computed using PRISM.
 NBasis=   199 RedAO= T  NBF=   199
 NBsUse=   199 1.00D-06 NBFU=   199
 Harris functional with IExCor=  402 diagonalized for initial guess.
 ExpMin= 7.10D-03 ExpMax= 3.53D+04 ExpMxC= 5.30D+03 IAcc=3 IRadAn=         5 AccDes= 0.00D+00
 HarFok:  IExCor= 402 AccDes= 0.00D+00 IRadAn=         5 IDoV=1
 ScaDFX=  1.000000  1.000000  1.000000  1.000000
 Initial guess orbital symmetries:
       Occupied  (A) (A) (A) (A) (A) (A) (A) (A) (A) (A) (A) (A)
                 (A) (A) (A) (A) (A) (A) (A) (A) (A) (A) (A) (A)
                 (A) (A) (A) (A) (A) (A) (A) (A) (A) (A) (A) (A)
                 (A) (A) (A) (A) (A) (A) (A) (A) (A) (A) (A) (A)
                 (A) (A) (A) (A) (A) (A) (A) (A) (A)
       Virtual   (A) (A) (A) (A) (A) (A) (A) (A) (A) (A) (A) (A)
                 (A) (A) (A) (A) (A) (A) (A) (A) (A) (A) (A) (A)
                 (A) (A) (A) (A) (A) (A) (A) (A) (A) (A) (A) (A)
                 (A) (A) (A) (A) (A) (A) (A) (A) (A) (A) (A) (A)
                 (A) (A) (A) (A) (A) (A) (A) (A) (A) (A) (A) (A)
                 (A) (A) (A) (A) (A) (A) (A) (A) (A) (A) (A) (A)
                 (A) (A) (A) (A) (A) (A) (A) (A) (A) (A) (A) (A)
                 (A) (A) (A) (A) (A) (A) (A) (A) (A) (A) (A) (A)
                 (A) (A) (A) (A) (A) (A) (A) (A) (A) (A) (A) (A)
                 (A) (A) (A) (A) (A) (A) (A) (A) (A) (A) (A) (A)
                 (A) (A) (A) (A) (A) (A) (A) (A) (A) (A) (A) (A)
                 (A) (A) (A) (A) (A) (A) (A) (A) (A) (A)
 The electronic state of the initial guess is 1-A.
 Requested convergence on RMS density matrix=1.00D-04 within 128 cycles.
 Requested convergence on MAX density matrix=1.00D-02.
 Requested convergence on             energy=1.00D-02.
 No special actions if energy rises.
 EnCoef did     1 forward-backward iterations
 SCF Done:  E(RB+HF-LYP) =  -2750.20951967     A.U. after    8 cycles
             Convg  =    0.5070D-04             -V/T =  2.0029
             S**2   =   0.0000

 **********************************************************************

            Population analysis using the SCF density.

 **********************************************************************

 Orbital symmetries:
       Occupied  (A) (A) (A) (A) (A) (A) (A) (A) (A) (A) (A) (A)
                 (A) (A) (A) (A) (A) (A) (A) (A) (A) (A) (A) (A)
                 (A) (A) (A) (A) (A) (A) (A) (A) (A) (A) (A) (A)
                 (A) (A) (A) (A) (A) (A) (A) (A) (A) (A) (A) (A)
                 (A) (A) (A) (A) (A) (A) (A) (A) (A)
       Virtual   (A) (A) (A) (A) (A) (A) (A) (A) (A) (A) (A) (A)
                 (A) (A) (A) (A) (A) (A) (A) (A) (A) (A) (A) (A)
                 (A) (A) (A) (A) (A) (A) (A) (A) (A) (A) (A) (A)
                 (A) (A) (A) (A) (A) (A) (A) (A) (A) (A) (A) (A)
                 (A) (A) (A) (A) (A) (A) (A) (A) (A) (A) (A) (A)
                 (A) (A) (A) (A) (A) (A) (A) (A) (A) (A) (A) (A)
                 (A) (A) (A) (A) (A) (A) (A) (A) (A) (A) (A) (A)
                 (A) (A) (A) (A) (A) (A) (A) (A) (A) (A) (A) (A)
                 (A) (A) (A) (A) (A) (A) (A) (A) (A) (A) (A) (A)
                 (A) (A) (A) (A) (A) (A) (A) (A) (A) (A) (A) (A)
                 (A) (A) (A) (A) (A) (A) (A) (A) (A) (A) (A) (A)
                 (A) (A) (A) (A) (A) (A) (A) (A) (A) (A)
 The electronic state is 1-A.
 Alpha  occ. eigenvalues -- -145.53396-145.48023-145.44978 -77.30022 -19.27965
 Alpha  occ. eigenvalues --  -19.27481 -19.19914 -19.19909 -19.17881 -15.60298
 Alpha  occ. eigenvalues --  -15.54889 -15.51856 -12.73554 -12.73507 -12.73334
 Alpha  occ. eigenvalues --  -12.68098 -12.68071 -12.67999 -12.65099 -12.65062
 Alpha  occ. eigenvalues --  -12.64932  -6.75540  -4.91984  -4.91757  -4.91321
 Alpha  occ. eigenvalues --   -1.97519  -1.92193  -1.89239  -1.25377  -1.25257
 Alpha  occ. eigenvalues --   -1.24383  -1.20508  -1.19791  -1.19393  -1.17218
 Alpha  occ. eigenvalues --   -1.17082  -1.16763  -1.13768  -1.08257  -1.02445
 Alpha  occ. eigenvalues --   -0.92462  -0.83748  -0.67357  -0.56792  -0.52839
 Alpha  occ. eigenvalues --   -0.52586  -0.45477  -0.43600  -0.43400  -0.41978
 Alpha  occ. eigenvalues --   -0.41118  -0.40749  -0.37991  -0.37314  -0.36420
 Alpha  occ. eigenvalues --   -0.30523  -0.28910
 Alpha virt. eigenvalues --   -0.21330  -0.19764  -0.18064  -0.13533  -0.13442
 Alpha virt. eigenvalues --   -0.11692  -0.10903  -0.10463  -0.08649  -0.08278
 Alpha virt. eigenvalues --   -0.07168  -0.06873  -0.06457  -0.06203  -0.05657
 Alpha virt. eigenvalues --   -0.05516  -0.04723  -0.04636  -0.04613  -0.04285
 Alpha virt. eigenvalues --   -0.03761  -0.03629  -0.03453  -0.03300  -0.03129
 Alpha virt. eigenvalues --   -0.02675  -0.02580  -0.02060  -0.01581   0.00557
 Alpha virt. eigenvalues --    0.00842   0.02235   0.03293   0.03714   0.03967
 Alpha virt. eigenvalues --    0.04367   0.04687   0.05413   0.06070   0.06133
 Alpha virt. eigenvalues --    0.06476   0.07046   0.07468   0.07675   0.08275
 Alpha virt. eigenvalues --    0.08430   0.10254   0.10982   0.11255   0.11331
 Alpha virt. eigenvalues --    0.13157   0.14021   0.14944   0.15748   0.17099
 Alpha virt. eigenvalues --    0.17102   0.17936   0.19388   0.19777   0.20754
 Alpha virt. eigenvalues --    0.21395   0.22647   0.23695   0.25448   0.26717
 Alpha virt. eigenvalues --    0.27621   0.29622   0.31176   0.31677   0.31941
 Alpha virt. eigenvalues --    0.33453   0.35114   0.36312   0.37202   0.38472
 Alpha virt. eigenvalues --    0.40685   0.43727   0.46240   0.48331   0.53216
 Alpha virt. eigenvalues --    0.53708   0.56113   0.56490   0.58892   0.62018
 Alpha virt. eigenvalues --    0.69416   0.83802   0.89919   0.94247   1.03038
 Alpha virt. eigenvalues --    1.06345   1.07895   1.08675   1.10159   1.10498
 Alpha virt. eigenvalues --    1.15093   1.18023   1.18484   1.19154   1.20883
 Alpha virt. eigenvalues --    1.20957   1.24159   1.25779   1.29666   1.32688
 Alpha virt. eigenvalues --    1.38071   1.41649   1.43416   1.51975   1.54157
 Alpha virt. eigenvalues --    1.55003   1.66101   1.66889   1.68523   1.70574
 Alpha virt. eigenvalues --    1.71038   1.76778   1.77258   1.77415   1.79906
 Alpha virt. eigenvalues --    1.82589   1.84481   1.85076   1.85615   1.86862
 Alpha virt. eigenvalues --    1.87733   1.92701   1.94515   2.01970   2.09788
 Alpha virt. eigenvalues --    2.16982   2.21956   2.24286   2.53609   2.68669
 Alpha virt. eigenvalues --    3.07105   3.39455   3.84575   3.90257   3.93976
 Alpha virt. eigenvalues --    4.13722   4.14727
          Condensed to atoms (all electrons):
              1          2          3          4          5          6
     1  O    8.824833  -0.010430   0.009594  -0.000626  -0.000630   0.043529
     2  O   -0.010430   9.017644   0.105146  -0.004351  -0.004349   0.054362
     3  Ca   0.009594   0.105146  18.303817   0.102999   0.102998  -0.047658
     4  O   -0.000626  -0.004351   0.102999   8.484183  -0.032711   0.102240
     5  O   -0.000630  -0.004349   0.102998  -0.032711   8.484166   0.102261
     6  Ca   0.043529   0.054362  -0.047658   0.102240   0.102261  18.336648
     7  P   -0.109968  -0.005756  -0.014940  -0.000224  -0.000224   0.008697
     8  Ca   0.003410   0.192244  -0.009753  -0.000351  -0.000357  -0.006157
     9  O   -0.082299   0.003541   0.004351   0.000044   0.000044  -0.000367
              7          8          9
     1  O   -0.109968   0.003410  -0.082299
     2  O   -0.005756   0.192244   0.003541
     3  Ca  -0.014940  -0.009753   0.004351
     4  O   -0.000224  -0.000351   0.000044
     5  O   -0.000224  -0.000357   0.000044
     6  Ca   0.008697  -0.006157  -0.000367
     7  P   14.541112  -0.033659  -0.050963
     8  Ca  -0.033659  18.240458   0.086642
     9  O   -0.050963   0.086642   8.754483
 Mulliken atomic charges:
              1
     1  O   -0.677413
     2  O   -1.348051
     3  Ca   1.443445
     4  O   -0.651203
     5  O   -0.651199
     6  Ca   1.406445
     7  P    0.665927
     8  Ca   1.527524
     9  O   -0.715475
 Sum of Mulliken charges=   1.00000
 Atomic charges with hydrogens summed into heavy atoms:
              1
     1  O   -0.677413
     2  O   -1.348051
     3  Ca   1.443445
     4  O   -0.651203
     5  O   -0.651199
     6  Ca   1.406445
     7  P    0.665927
     8  Ca   1.527524
     9  O   -0.715475
 Sum of Mulliken charges=   1.00000
 Electronic spatial extent (au):  <R**2>=  2955.7200
 Charge=     1.0000 electrons
 Dipole moment (field-independent basis, Debye):
    X=     1.2579    Y=    12.1947    Z=     0.0002  Tot=    12.2594
 Quadrupole moment (field-independent basis, Debye-Ang):
   XX=   -63.3352   YY=   -46.1890   ZZ=   -77.2339
   XY=   -15.9541   XZ=    -0.0003   YZ=     0.0059
 Traceless Quadrupole moment (field-independent basis, Debye-Ang):
   XX=    -1.0825   YY=    16.0637   ZZ=   -14.9813
   XY=   -15.9541   XZ=    -0.0003   YZ=     0.0059
 Octapole moment (field-independent basis, Debye-Ang**2):
  XXX=   -86.9835  YYY=    79.9672  ZZZ=    -0.0015  XYY=    20.8190
  XXY=   125.6020  XXZ=     0.0119  XZZ=     8.9340  YZZ=    12.7834
  YYZ=    -0.0031  XYZ=    -0.0033
 Hexadecapole moment (field-independent basis, Debye-Ang**3):
 XXXX= -2459.0526 YYYY=  -630.9118 ZZZZ=  -129.1329 XXXY=  -382.3900
 XXXZ=    -0.0176 YYYX=    77.4452 YYYZ=     0.0194 ZZZX=    -0.0007
 ZZZY=     0.0117 XXYY=  -482.2706 XXZZ=  -454.9682 YYZZ=  -148.8292
 XXYZ=     0.0210 YYXZ=    -0.0056 ZZXY=   -13.7104
 N-N= 9.469408747529D+02 E-N=-8.395456639504D+03  KE= 2.742217463139D+03
 Merz-Kollman atomic radii used.
 Read replacement radii for each type of atom:
 Rad(20) =   1.188000000000D+00
 Atom Element Radius
    1     8    1.40
    2     8    1.40
    3    20    1.19
    4     8    1.40
    5     8    1.40
    6    20    1.19
    7    15    1.80
    8    20    1.19
    9     8    1.40

 **********************************************************************

            Electrostatic Properties Using The SCF Density

 **********************************************************************

       Atomic Center    1 is at   1.725937 -1.491673  0.000141
       Atomic Center    2 is at  -0.564749  1.105990 -0.000159
       Atomic Center    3 is at  -2.818279  0.993563  0.000121
       Atomic Center    4 is at  -2.712802 -1.088357  0.784981
       Atomic Center    5 is at  -2.713012 -1.088327 -0.784849
       Atomic Center    6 is at  -0.597972 -1.308330 -0.000209
       Atomic Center    7 is at   3.194408 -1.029135  0.000151
       Atomic Center    8 is at   1.432312  1.902658 -0.000009
       Atomic Center    9 is at   3.234960  0.522265 -0.000159
     886 points will be used for fitting atomic charges
 Fitting point charges to eletrostatic potential
 Charges from ESP fit, RMS=   0.00467 RRMS=   0.03163:
 Charge=   1.00000 Dipole=     1.3122    12.4032     0.0004 Tot=    12.4724
              1
     1  O   -0.668759
     2  O   -1.743118
     3  Ca   1.685380
     4  O   -0.773597
     5  O   -0.773552
     6  Ca   1.677993
     7  P    0.572381
     8  Ca   1.741689
     9  O   -0.718418
 -----------------------------------------------------------------

              Electrostatic Properties (Atomic Units)

 -----------------------------------------------------------------
    Center     Electric         -------- Electric Field --------
               Potential          X             Y             Z
 -----------------------------------------------------------------
    1 Atom    -22.184923
    2 Atom    -22.285694
    3 Atom    -80.060368
    4 Atom    -22.271073
    5 Atom    -22.271073
    6 Atom    -80.090750
    7 Atom    -53.920072
    8 Atom    -80.006599
    9 Atom    -22.189665
 -----------------------------------------------------------------
 1\1\GINC-N059\SP\RB3LYP\6-31+G(d,p)\Ca3O5P1(1+)\TIMN\12-Jun-2015\0\\# 
 b3lyp/6-31+G(d,p) int=ultrafine pop=(ReadRadii,MK)\\mol_17.28.2.pdbc_p
 lusQ.z58553.zip.xyz\\1,1\O,0,1.72594,-1.49167,0.00014\O,0,-0.56475,1.1
 0599,-0.00016\Ca,0,-2.81828,0.99356,0.00012\O,0,-2.7128,-1.08836,0.784
 98\O,0,-2.71301,-1.08833,-0.78485\Ca,0,-0.59797,-1.30833,-0.00021\P,0,
 3.19441,-1.02913,0.00015\Ca,0,1.43231,1.90266,-0.00001\O,0,3.23496,0.5
 2227,-0.00016\\Version=EM64T-G03RevE.01\State=1-A\HF=-2750.2095197\RMS
 D=5.070e-05\Thermal=0.\Dipole=0.4948726,4.7977543,0.0000788\PG=C01 [X(
 Ca3O5P1)]\\@


 "I COULD HAVE DONE IT IN A MUCH MORE COMPLICATED WAY"
 SAID THE RED QUEEN, IMMENSELY PROUD.

                                      -- LEWIS CARROLL
 Job cpu time:  0 days  0 hours  1 minutes 59.5 seconds.
 File lengths (MBytes):  RWF=     36 Int=      0 D2E=      0 Chk=     11 Scr=      1
 Normal termination of Gaussian 03 at Fri Jun 12 18:09:32 2015.
