 Entering Gaussian System, Link 0=/home/timn/tmp/g03.e01/g03
 Input=mol_17.27.33.pdbcccc_plusQ.z58500.zip.xyz.gjf
 Output=mol_17.27.33.pdbcccc_plusQ.z58500.zip.xyz.out
 Initial command:
 /home/timn/tmp/g03.e01/l1.exe /home/timn/tmp/g03.e01/Gau-17635.inp -scrdir=/home/timn/tmp/g03.e01/
 Default is to use a total of   2 processors:
                                2 via shared-memory
                                1 via Linda
 Entering Link 1 = /home/timn/tmp/g03.e01/l1.exe PID=     17638.
  
 Copyright (c) 1988,1990,1992,1993,1995,1998,2003,2004,2007, Gaussian, Inc.
                  All Rights Reserved.
  
 This is the Gaussian(R) 03 program.  It is based on the
 the Gaussian(R) 98 system (copyright 1998, Gaussian, Inc.),
 the Gaussian(R) 94 system (copyright 1995, Gaussian, Inc.),
 the Gaussian 92(TM) system (copyright 1992, Gaussian, Inc.),
 the Gaussian 90(TM) system (copyright 1990, Gaussian, Inc.),
 the Gaussian 88(TM) system (copyright 1988, Gaussian, Inc.),
 the Gaussian 86(TM) system (copyright 1986, Carnegie Mellon
 University), and the Gaussian 82(TM) system (copyright 1983,
 Carnegie Mellon University). Gaussian is a federally registered
 trademark of Gaussian, Inc.
  
 This software contains proprietary and confidential information,
 including trade secrets, belonging to Gaussian, Inc.
  
 This software is provided under written license and may be
 used, copied, transmitted, or stored only in accord with that
 written license.
  
 The following legend is applicable only to US Government
 contracts under FAR:
  
                    RESTRICTED RIGHTS LEGEND
  
 Use, reproduction and disclosure by the US Government is
 subject to restrictions as set forth in subparagraphs (a)
 and (c) of the Commercial Computer Software - Restricted
 Rights clause in FAR 52.227-19.
  
 Gaussian, Inc.
 340 Quinnipiac St., Bldg. 40, Wallingford CT 06492
  
  
 ---------------------------------------------------------------
 Warning -- This program may not be used in any manner that
 competes with the business of Gaussian, Inc. or will provide
 assistance to any competitor of Gaussian, Inc.  The licensee
 of this program is prohibited from giving any competitor of
 Gaussian, Inc. access to this program.  By using this program,
 the user acknowledges that Gaussian, Inc. is engaged in the
 business of creating and licensing software in the field of
 computational chemistry and represents and warrants to the
 licensee that it is not a competitor of Gaussian, Inc. and that
 it will not use this program in any manner prohibited above.
 ---------------------------------------------------------------
  

 Cite this work as:
 Gaussian 03, Revision E.01,
 M. J. Frisch, G. W. Trucks, H. B. Schlegel, G. E. Scuseria, 
 M. A. Robb, J. R. Cheeseman, J. A. Montgomery, Jr., T. Vreven, 
 K. N. Kudin, J. C. Burant, J. M. Millam, S. S. Iyengar, J. Tomasi, 
 V. Barone, B. Mennucci, M. Cossi, G. Scalmani, N. Rega, 
 G. A. Petersson, H. Nakatsuji, M. Hada, M. Ehara, K. Toyota, 
 R. Fukuda, J. Hasegawa, M. Ishida, T. Nakajima, Y. Honda, O. Kitao, 
 H. Nakai, M. Klene, X. Li, J. E. Knox, H. P. Hratchian, J. B. Cross, 
 V. Bakken, C. Adamo, J. Jaramillo, R. Gomperts, R. E. Stratmann, 
 O. Yazyev, A. J. Austin, R. Cammi, C. Pomelli, J. W. Ochterski, 
 P. Y. Ayala, K. Morokuma, G. A. Voth, P. Salvador, J. J. Dannenberg, 
 V. G. Zakrzewski, S. Dapprich, A. D. Daniels, M. C. Strain, 
 O. Farkas, D. K. Malick, A. D. Rabuck, K. Raghavachari, 
 J. B. Foresman, J. V. Ortiz, Q. Cui, A. G. Baboul, S. Clifford, 
 J. Cioslowski, B. B. Stefanov, G. Liu, A. Liashenko, P. Piskorz, 
 I. Komaromi, R. L. Martin, D. J. Fox, T. Keith, M. A. Al-Laham, 
 C. Y. Peng, A. Nanayakkara, M. Challacombe, P. M. W. Gill, 
 B. Johnson, W. Chen, M. W. Wong, C. Gonzalez, and J. A. Pople, 
 Gaussian, Inc., Wallingford CT, 2004.
 
 ******************************************
 Gaussian 03:  EM64T-G03RevE.01 11-Sep-2007
                12-Jun-2015 
 ******************************************
 %nproc=2
 Will use up to    2 processors via shared memory.
 Default route:  MP2=Direct MaxDisk=2000MB
 ----------------------------------------------------
 # b3lyp/6-31+G(d,p) int=ultrafine pop=(ReadRadii,MK)
 ----------------------------------------------------

 Warning!  SCF SP cutoffs with diffuse functions may be unreliable.
 Consider SCF=Tight

 1/38=1/1;
 2/17=6,18=5,40=1/2;
 3/5=1,6=6,7=111,11=2,16=1,25=1,30=1,74=-5,75=5/1,2,3;
 4//1;
 5/5=2,32=1,38=5/2;
 6/7=2,8=2,9=2,10=2,15=8,20=101,28=1/1,2;
 99/5=1,9=1/99;
 -----------------------------------------
 mol_17.27.33.pdbcccc_plusQ.z58500.zip.xyz
 -----------------------------------------
 Symbolic Z-matrix:
 Charge =  1 Multiplicity = 1
 O                    -0.69416  -2.00805   0.78459 
 O                    -0.69422  -2.00797  -0.78465 
 O                    -1.89695   1.36822   0.78572 
 O                    -1.89706   1.36821  -0.78563 
 Ca                   -2.39119  -0.7157    0.00008 
 P                     3.29719   0.48794   0.00015 
 Ca                    1.3621   -1.71896  -0.00009 
 O                     1.70399   0.74011  -0.00009 
 Ca                   -0.05245   2.2845   -0.00009 
 
                          Input orientation:                          
 ---------------------------------------------------------------------
 Center     Atomic     Atomic              Coordinates (Angstroms)
 Number     Number      Type              X           Y           Z
 ---------------------------------------------------------------------
    1          8             0       -0.694160   -2.008050    0.784590
    2          8             0       -0.694220   -2.007970   -0.784650
    3          8             0       -1.896950    1.368220    0.785720
    4          8             0       -1.897060    1.368210   -0.785630
    5         20             0       -2.391190   -0.715700    0.000080
    6         15             0        3.297190    0.487940    0.000150
    7         20             0        1.362100   -1.718960   -0.000090
    8          8             0        1.703990    0.740110   -0.000090
    9         20             0       -0.052450    2.284500   -0.000090
 ---------------------------------------------------------------------
                    Distance matrix (angstroms):
                    1          2          3          4          5
     1  O    0.000000
     2  O    1.569240   0.000000
     3  O    3.584118   3.912963   0.000000
     4  O    3.913016   3.584050   1.571350   0.000000
     5  Ca   2.272781   2.272767   2.281277   2.281268   0.000000
     6  P    4.772440   4.772508   5.326453   5.326590   5.814329
     7  Ca   2.219797   2.219800   4.557366   4.557391   3.885063
     8  O    3.730848   3.730803   3.738822   3.738869   4.346249
     9  Ca   4.410612   4.410522   2.204370   2.204370   3.804064
                    6          7          8          9
     6  P    0.000000
     7  Ca   2.935129   0.000000
     8  O    1.613033   2.482723   0.000000
     9  Ca   3.801015   4.246015   2.338851   0.000000
 Stoichiometry    Ca3O5P(1+)
 Framework group  C1[X(Ca3O5P)]
 Deg. of freedom    21
 Full point group                 C1
 Largest Abelian subgroup         C1      NOp   1
 Largest concise Abelian subgroup C1      NOp   1
                         Standard orientation:                         
 ---------------------------------------------------------------------
 Center     Atomic     Atomic              Coordinates (Angstroms)
 Number     Number      Type              X           Y           Z
 ---------------------------------------------------------------------
    1          8             0       -0.694152   -2.008053    0.784592
    2          8             0       -0.694212   -2.007973   -0.784648
    3          8             0       -1.896953    1.368214    0.785722
    4          8             0       -1.897063    1.368204   -0.785628
    5         20             0       -2.391186   -0.715708    0.000082
    6         15             0        3.297190    0.487950    0.000152
    7         20             0        1.362107   -1.718956   -0.000088
    8          8             0        1.703989    0.740115   -0.000088
    9         20             0       -0.052456    2.284499   -0.000088
 ---------------------------------------------------------------------
 Rotational constants (GHZ):      0.8543269      0.5904906      0.3692850
 Standard basis: 6-31+G(d,p) (6D, 7F)
 There are   199 symmetry adapted basis functions of A   symmetry.
 Integral buffers will be    131072 words long.
 Raffenetti 2 integral format.
 Two-electron integral symmetry is turned on.
   199 basis functions,   456 primitive gaussians,   199 cartesian basis functions
    57 alpha electrons       57 beta electrons
       nuclear repulsion energy       955.7473608409 Hartrees.
 NAtoms=    9 NActive=    9 NUniq=    9 SFac= 7.50D-01 NAtFMM=   80 NAOKFM=F Big=F
 One-electron integrals computed using PRISM.
 NBasis=   199 RedAO= T  NBF=   199
 NBsUse=   199 1.00D-06 NBFU=   199
 Harris functional with IExCor=  402 diagonalized for initial guess.
 ExpMin= 7.10D-03 ExpMax= 3.53D+04 ExpMxC= 5.30D+03 IAcc=3 IRadAn=         5 AccDes= 0.00D+00
 HarFok:  IExCor= 402 AccDes= 0.00D+00 IRadAn=         5 IDoV=1
 ScaDFX=  1.000000  1.000000  1.000000  1.000000
 Initial guess orbital symmetries:
       Occupied  (A) (A) (A) (A) (A) (A) (A) (A) (A) (A) (A) (A)
                 (A) (A) (A) (A) (A) (A) (A) (A) (A) (A) (A) (A)
                 (A) (A) (A) (A) (A) (A) (A) (A) (A) (A) (A) (A)
                 (A) (A) (A) (A) (A) (A) (A) (A) (A) (A) (A) (A)
                 (A) (A) (A) (A) (A) (A) (A) (A) (A)
       Virtual   (A) (A) (A) (A) (A) (A) (A) (A) (A) (A) (A) (A)
                 (A) (A) (A) (A) (A) (A) (A) (A) (A) (A) (A) (A)
                 (A) (A) (A) (A) (A) (A) (A) (A) (A) (A) (A) (A)
                 (A) (A) (A) (A) (A) (A) (A) (A) (A) (A) (A) (A)
                 (A) (A) (A) (A) (A) (A) (A) (A) (A) (A) (A) (A)
                 (A) (A) (A) (A) (A) (A) (A) (A) (A) (A) (A) (A)
                 (A) (A) (A) (A) (A) (A) (A) (A) (A) (A) (A) (A)
                 (A) (A) (A) (A) (A) (A) (A) (A) (A) (A) (A) (A)
                 (A) (A) (A) (A) (A) (A) (A) (A) (A) (A) (A) (A)
                 (A) (A) (A) (A) (A) (A) (A) (A) (A) (A) (A) (A)
                 (A) (A) (A) (A) (A) (A) (A) (A) (A) (A) (A) (A)
                 (A) (A) (A) (A) (A) (A) (A) (A) (A) (A)
 The electronic state of the initial guess is 1-A.
 Requested convergence on RMS density matrix=1.00D-04 within 128 cycles.
 Requested convergence on MAX density matrix=1.00D-02.
 Requested convergence on             energy=1.00D-02.
 No special actions if energy rises.
 EnCoef did     7 forward-backward iterations
 EnCoef did     5 forward-backward iterations
 EnCoef did     7 forward-backward iterations
 EnCoef did     3 forward-backward iterations
 SCF Done:  E(RB+HF-LYP) =  -2750.03111758     A.U. after   11 cycles
             Convg  =    0.8530D-04             -V/T =  2.0029
             S**2   =   0.0000

 **********************************************************************

            Population analysis using the SCF density.

 **********************************************************************

 Orbital symmetries:
       Occupied  (A) (A) (A) (A) (A) (A) (A) (A) (A) (A) (A) (A)
                 (A) (A) (A) (A) (A) (A) (A) (A) (A) (A) (A) (A)
                 (A) (A) (A) (A) (A) (A) (A) (A) (A) (A) (A) (A)
                 (A) (A) (A) (A) (A) (A) (A) (A) (A) (A) (A) (A)
                 (A) (A) (A) (A) (A) (A) (A) (A) (A)
       Virtual   (A) (A) (A) (A) (A) (A) (A) (A) (A) (A) (A) (A)
                 (A) (A) (A) (A) (A) (A) (A) (A) (A) (A) (A) (A)
                 (A) (A) (A) (A) (A) (A) (A) (A) (A) (A) (A) (A)
                 (A) (A) (A) (A) (A) (A) (A) (A) (A) (A) (A) (A)
                 (A) (A) (A) (A) (A) (A) (A) (A) (A) (A) (A) (A)
                 (A) (A) (A) (A) (A) (A) (A) (A) (A) (A) (A) (A)
                 (A) (A) (A) (A) (A) (A) (A) (A) (A) (A) (A) (A)
                 (A) (A) (A) (A) (A) (A) (A) (A) (A) (A) (A) (A)
                 (A) (A) (A) (A) (A) (A) (A) (A) (A) (A) (A) (A)
                 (A) (A) (A) (A) (A) (A) (A) (A) (A) (A) (A) (A)
                 (A) (A) (A) (A) (A) (A) (A) (A) (A) (A) (A) (A)
                 (A) (A) (A) (A) (A) (A) (A) (A) (A) (A)
 The electronic state is 1-A.
 Alpha  occ. eigenvalues -- -145.52430-145.50046-145.45771 -77.26981 -19.31940
 Alpha  occ. eigenvalues --  -19.23157 -19.23118 -19.22641 -19.22614 -15.59246
 Alpha  occ. eigenvalues --  -15.56944 -15.52671 -12.72473 -12.72460 -12.72341
 Alpha  occ. eigenvalues --  -12.70171 -12.70167 -12.70010 -12.65907 -12.65859
 Alpha  occ. eigenvalues --  -12.65759  -6.73278  -4.90039  -4.89524  -4.88531
 Alpha  occ. eigenvalues --   -1.96379  -1.94182  -1.90002  -1.24306  -1.23963
 Alpha  occ. eigenvalues --   -1.23915  -1.22062  -1.21927  -1.21849  -1.18154
 Alpha  occ. eigenvalues --   -1.17916  -1.17512  -1.12829  -1.05808  -1.04925
 Alpha  occ. eigenvalues --   -0.86961  -0.86371  -0.69656  -0.53428  -0.52148
 Alpha  occ. eigenvalues --   -0.51842  -0.46570  -0.46000  -0.45778  -0.44520
 Alpha  occ. eigenvalues --   -0.44034  -0.42826  -0.34722  -0.34089  -0.32049
 Alpha  occ. eigenvalues --   -0.31949  -0.30579
 Alpha virt. eigenvalues --   -0.26329  -0.19896  -0.17121  -0.14473  -0.13332
 Alpha virt. eigenvalues --   -0.12634  -0.11452  -0.09798  -0.09267  -0.08763
 Alpha virt. eigenvalues --   -0.07244  -0.07126  -0.06598  -0.06005  -0.05852
 Alpha virt. eigenvalues --   -0.05653  -0.04912  -0.04757  -0.04646  -0.04370
 Alpha virt. eigenvalues --   -0.04280  -0.03986  -0.03722  -0.03683  -0.03323
 Alpha virt. eigenvalues --   -0.03012  -0.02628  -0.02500  -0.02256  -0.01839
 Alpha virt. eigenvalues --    0.00412   0.00979   0.01211   0.01654   0.03167
 Alpha virt. eigenvalues --    0.03897   0.04092   0.04535   0.05161   0.06046
 Alpha virt. eigenvalues --    0.07615   0.08034   0.08449   0.08546   0.09230
 Alpha virt. eigenvalues --    0.09265   0.10185   0.10295   0.11421   0.11793
 Alpha virt. eigenvalues --    0.12859   0.13570   0.14161   0.14835   0.15641
 Alpha virt. eigenvalues --    0.16669   0.17123   0.18878   0.19683   0.20452
 Alpha virt. eigenvalues --    0.20716   0.21847   0.22796   0.22958   0.26356
 Alpha virt. eigenvalues --    0.27054   0.28243   0.31760   0.32089   0.33263
 Alpha virt. eigenvalues --    0.34334   0.35323   0.36959   0.37047   0.37436
 Alpha virt. eigenvalues --    0.38418   0.40099   0.41084   0.43105   0.48840
 Alpha virt. eigenvalues --    0.49568   0.53927   0.54652   0.57135   0.60982
 Alpha virt. eigenvalues --    0.67786   0.68946   0.76761   0.86640   0.89751
 Alpha virt. eigenvalues --    0.95524   1.04423   1.10365   1.11171   1.11376
 Alpha virt. eigenvalues --    1.13482   1.16110   1.18591   1.18965   1.19437
 Alpha virt. eigenvalues --    1.20507   1.21064   1.24016   1.25198   1.26908
 Alpha virt. eigenvalues --    1.35852   1.40828   1.52309   1.52505   1.53579
 Alpha virt. eigenvalues --    1.53627   1.53729   1.55841   1.62340   1.64405
 Alpha virt. eigenvalues --    1.71310   1.73734   1.74791   1.77496   1.80454
 Alpha virt. eigenvalues --    1.84077   1.84432   1.84595   1.86956   1.88673
 Alpha virt. eigenvalues --    1.88729   1.89323   1.95283   2.01738   2.18577
 Alpha virt. eigenvalues --    2.19642   2.20727   2.20881   2.45750   3.02888
 Alpha virt. eigenvalues --    3.04453   3.36347   3.86016   3.98635   4.11683
 Alpha virt. eigenvalues --    4.13268   4.17200
          Condensed to atoms (all electrons):
              1          2          3          4          5          6
     1  O    8.516193  -0.045698   0.018317  -0.014321   0.081277  -0.003671
     2  O   -0.045698   8.515530  -0.014322   0.018317   0.081314  -0.003671
     3  O    0.018317  -0.014322   8.492862  -0.032638   0.078495  -0.001814
     4  O   -0.014321   0.018317  -0.032638   8.491877   0.078548  -0.001815
     5  Ca   0.081277   0.081314   0.078495   0.078548  18.264453   0.003860
     6  P   -0.003671  -0.003671  -0.001814  -0.001815   0.003860  15.157923
     7  Ca   0.112244   0.112298   0.003423   0.003428  -0.022125   0.174448
     8  O    0.001991   0.001994   0.002417   0.002420   0.003774  -0.363910
     9  Ca   0.003749   0.003755   0.118545   0.118633  -0.023438  -0.011583
              7          8          9
     1  O    0.112244   0.001991   0.003749
     2  O    0.112298   0.001994   0.003755
     3  O    0.003423   0.002417   0.118545
     4  O    0.003428   0.002420   0.118633
     5  Ca  -0.022125   0.003774  -0.023438
     6  P    0.174448  -0.363910  -0.011583
     7  Ca  18.290940  -0.032962   0.002464
     8  O   -0.032962   9.047716   0.038534
     9  Ca   0.002464   0.038534  18.237957
 Mulliken atomic charges:
              1
     1  O   -0.670080
     2  O   -0.669516
     3  O   -0.665285
     4  O   -0.664450
     5  Ca   1.453843
     6  P    0.050233
     7  Ca   1.355843
     8  O   -0.701973
     9  Ca   1.511385
 Sum of Mulliken charges=   1.00000
 Atomic charges with hydrogens summed into heavy atoms:
              1
     1  O   -0.670080
     2  O   -0.669516
     3  O   -0.665285
     4  O   -0.664450
     5  Ca   1.453843
     6  P    0.050233
     7  Ca   1.355843
     8  O   -0.701973
     9  Ca   1.511385
 Sum of Mulliken charges=   1.00000
 Electronic spatial extent (au):  <R**2>=  2634.7390
 Charge=     1.0000 electrons
 Dipole moment (field-independent basis, Debye):
    X=     3.4151    Y=     2.6009    Z=    -0.0060  Tot=     4.2928
 Quadrupole moment (field-independent basis, Debye-Ang):
   XX=   -54.1790   YY=   -51.2316   ZZ=   -81.0988
   XY=     2.6111   XZ=     0.0047   YZ=    -0.0012
 Traceless Quadrupole moment (field-independent basis, Debye-Ang):
   XX=     7.9908   YY=    10.9382   ZZ=   -18.9290
   XY=     2.6111   XZ=     0.0047   YZ=    -0.0012
 Octapole moment (field-independent basis, Debye-Ang**2):
  XXX=  -101.2507  YYY=    92.7272  ZZZ=    -0.0063  XYY=    40.5631
  XXY=   -88.6349  XXZ=    -0.0110  XZZ=     7.7093  YZZ=     4.4509
  YYZ=    -0.0202  XYZ=     0.0088
 Hexadecapole moment (field-independent basis, Debye-Ang**3):
 XXXX= -1626.3045 YYYY=  -901.2858 ZZZZ=  -175.1578 XXXY=    99.2940
 XXXZ=    -0.0200 YYYX=   -84.5714 YYYZ=     0.0010 ZZZX=    -0.0005
 ZZZY=    -0.0039 XXYY=  -525.0492 XXZZ=  -326.3242 YYZZ=  -234.5082
 XXYZ=    -0.0180 YYXZ=     0.0037 ZZXY=     6.3435
 N-N= 9.557473608409D+02 E-N=-8.412419020558D+03  KE= 2.742154069450D+03
 Merz-Kollman atomic radii used.
 Read replacement radii for each type of atom:
 Rad(20) =   1.188000000000D+00
 Atom Element Radius
    1     8    1.40
    2     8    1.40
    3     8    1.40
    4     8    1.40
    5    20    1.19
    6    15    1.80
    7    20    1.19
    8     8    1.40
    9    20    1.19

 **********************************************************************

            Electrostatic Properties Using The SCF Density

 **********************************************************************

       Atomic Center    1 is at  -0.694152 -2.008053  0.784592
       Atomic Center    2 is at  -0.694212 -2.007973 -0.784648
       Atomic Center    3 is at  -1.896953  1.368214  0.785722
       Atomic Center    4 is at  -1.897063  1.368204 -0.785628
       Atomic Center    5 is at  -2.391186 -0.715708  0.000082
       Atomic Center    6 is at   3.297190  0.487950  0.000152
       Atomic Center    7 is at   1.362107 -1.718956 -0.000088
       Atomic Center    8 is at   1.703989  0.740115 -0.000088
       Atomic Center    9 is at  -0.052456  2.284499 -0.000088
     905 points will be used for fitting atomic charges
 Fitting point charges to eletrostatic potential
 Charges from ESP fit, RMS=   0.00855 RRMS=   0.05929:
 Charge=   1.00000 Dipole=     3.7561     2.4093    -0.0058 Tot=     4.4624
              1
     1  O   -0.775304
     2  O   -0.774713
     3  O   -0.817103
     4  O   -0.816284
     5  Ca   1.712748
     6  P    0.027855
     7  Ca   1.483648
     8  O   -0.773989
     9  Ca   1.733142
 -----------------------------------------------------------------

              Electrostatic Properties (Atomic Units)

 -----------------------------------------------------------------
    Center     Electric         -------- Electric Field --------
               Potential          X             Y             Z
 -----------------------------------------------------------------
    1 Atom    -22.245346
    2 Atom    -22.244546
    3 Atom    -22.239359
    4 Atom    -22.238180
    5 Atom    -80.082733
    6 Atom    -53.950382
    7 Atom    -80.040412
    8 Atom    -22.143618
    9 Atom    -80.015862
 -----------------------------------------------------------------
 1\1\GINC-N028\SP\RB3LYP\6-31+G(d,p)\Ca3O5P1(1+)\TIMN\12-Jun-2015\0\\# 
 b3lyp/6-31+G(d,p) int=ultrafine pop=(ReadRadii,MK)\\mol_17.27.33.pdbcc
 cc_plusQ.z58500.zip.xyz\\1,1\O,0,-0.69416,-2.00805,0.78459\O,0,-0.6942
 2,-2.00797,-0.78465\O,0,-1.89695,1.36822,0.78572\O,0,-1.89706,1.36821,
 -0.78563\Ca,0,-2.39119,-0.7157,0.00008\P,0,3.29719,0.48794,0.00015\Ca,
 0,1.3621,-1.71896,-0.00009\O,0,1.70399,0.74011,-0.00009\Ca,0,-0.05245,
 2.2845,-0.00009\\Version=EM64T-G03RevE.01\State=1-A\HF=-2750.0311176\R
 MSD=8.530e-05\Thermal=0.\Dipole=1.3436215,1.0232744,-0.0023529\PG=C01 
 [X(Ca3O5P1)]\\@


 THE THINKER DIES, BUT HIS THOUGHTS ARE BEYOND THE 
 REACH OF DESTRUCTION.  MEN ARE MORTAL; BUT IDEAS 
 ARE IMMORTAL.
                              -- WALTER LIPPMANN
 Job cpu time:  0 days  0 hours  2 minutes 36.6 seconds.
 File lengths (MBytes):  RWF=     36 Int=      0 D2E=      0 Chk=     11 Scr=      1
 Normal termination of Gaussian 03 at Fri Jun 12 18:07:04 2015.
