 Entering Gaussian System, Link 0=/home/timn/tmp/g03.e01/g03
 Input=mol_17.25.44.pdbccc_plusQ.z58349.zip.xyz.gjf
 Output=mol_17.25.44.pdbccc_plusQ.z58349.zip.xyz.out
 Initial command:
 /home/timn/tmp/g03.e01/l1.exe /home/timn/tmp/g03.e01/Gau-14120.inp -scrdir=/home/timn/tmp/g03.e01/
 Default is to use a total of   2 processors:
                                2 via shared-memory
                                1 via Linda
 Entering Link 1 = /home/timn/tmp/g03.e01/l1.exe PID=     14121.
  
 Copyright (c) 1988,1990,1992,1993,1995,1998,2003,2004,2007, Gaussian, Inc.
                  All Rights Reserved.
  
 This is the Gaussian(R) 03 program.  It is based on the
 the Gaussian(R) 98 system (copyright 1998, Gaussian, Inc.),
 the Gaussian(R) 94 system (copyright 1995, Gaussian, Inc.),
 the Gaussian 92(TM) system (copyright 1992, Gaussian, Inc.),
 the Gaussian 90(TM) system (copyright 1990, Gaussian, Inc.),
 the Gaussian 88(TM) system (copyright 1988, Gaussian, Inc.),
 the Gaussian 86(TM) system (copyright 1986, Carnegie Mellon
 University), and the Gaussian 82(TM) system (copyright 1983,
 Carnegie Mellon University). Gaussian is a federally registered
 trademark of Gaussian, Inc.
  
 This software contains proprietary and confidential information,
 including trade secrets, belonging to Gaussian, Inc.
  
 This software is provided under written license and may be
 used, copied, transmitted, or stored only in accord with that
 written license.
  
 The following legend is applicable only to US Government
 contracts under FAR:
  
                    RESTRICTED RIGHTS LEGEND
  
 Use, reproduction and disclosure by the US Government is
 subject to restrictions as set forth in subparagraphs (a)
 and (c) of the Commercial Computer Software - Restricted
 Rights clause in FAR 52.227-19.
  
 Gaussian, Inc.
 340 Quinnipiac St., Bldg. 40, Wallingford CT 06492
  
  
 ---------------------------------------------------------------
 Warning -- This program may not be used in any manner that
 competes with the business of Gaussian, Inc. or will provide
 assistance to any competitor of Gaussian, Inc.  The licensee
 of this program is prohibited from giving any competitor of
 Gaussian, Inc. access to this program.  By using this program,
 the user acknowledges that Gaussian, Inc. is engaged in the
 business of creating and licensing software in the field of
 computational chemistry and represents and warrants to the
 licensee that it is not a competitor of Gaussian, Inc. and that
 it will not use this program in any manner prohibited above.
 ---------------------------------------------------------------
  

 Cite this work as:
 Gaussian 03, Revision E.01,
 M. J. Frisch, G. W. Trucks, H. B. Schlegel, G. E. Scuseria, 
 M. A. Robb, J. R. Cheeseman, J. A. Montgomery, Jr., T. Vreven, 
 K. N. Kudin, J. C. Burant, J. M. Millam, S. S. Iyengar, J. Tomasi, 
 V. Barone, B. Mennucci, M. Cossi, G. Scalmani, N. Rega, 
 G. A. Petersson, H. Nakatsuji, M. Hada, M. Ehara, K. Toyota, 
 R. Fukuda, J. Hasegawa, M. Ishida, T. Nakajima, Y. Honda, O. Kitao, 
 H. Nakai, M. Klene, X. Li, J. E. Knox, H. P. Hratchian, J. B. Cross, 
 V. Bakken, C. Adamo, J. Jaramillo, R. Gomperts, R. E. Stratmann, 
 O. Yazyev, A. J. Austin, R. Cammi, C. Pomelli, J. W. Ochterski, 
 P. Y. Ayala, K. Morokuma, G. A. Voth, P. Salvador, J. J. Dannenberg, 
 V. G. Zakrzewski, S. Dapprich, A. D. Daniels, M. C. Strain, 
 O. Farkas, D. K. Malick, A. D. Rabuck, K. Raghavachari, 
 J. B. Foresman, J. V. Ortiz, Q. Cui, A. G. Baboul, S. Clifford, 
 J. Cioslowski, B. B. Stefanov, G. Liu, A. Liashenko, P. Piskorz, 
 I. Komaromi, R. L. Martin, D. J. Fox, T. Keith, M. A. Al-Laham, 
 C. Y. Peng, A. Nanayakkara, M. Challacombe, P. M. W. Gill, 
 B. Johnson, W. Chen, M. W. Wong, C. Gonzalez, and J. A. Pople, 
 Gaussian, Inc., Wallingford CT, 2004.
 
 ******************************************
 Gaussian 03:  EM64T-G03RevE.01 11-Sep-2007
                12-Jun-2015 
 ******************************************
 %nproc=2
 Will use up to    2 processors via shared memory.
 Default route:  MP2=Direct MaxDisk=2000MB
 ----------------------------------------------------
 # b3lyp/6-31+G(d,p) int=ultrafine pop=(ReadRadii,MK)
 ----------------------------------------------------

 Warning!  SCF SP cutoffs with diffuse functions may be unreliable.
 Consider SCF=Tight

 1/38=1/1;
 2/17=6,18=5,40=1/2;
 3/5=1,6=6,7=111,11=2,16=1,25=1,30=1,74=-5,75=5/1,2,3;
 4//1;
 5/5=2,32=1,38=5/2;
 6/7=2,8=2,9=2,10=2,15=8,20=101,28=1/1,2;
 99/5=1,9=1/99;
 ----------------------------------------
 mol_17.25.44.pdbccc_plusQ.z58349.zip.xyz
 ----------------------------------------
 Symbolic Z-matrix:
 Charge =  1 Multiplicity = 1
 O                     1.23689   1.28649  -0.43797 
 O                     1.23733  -1.28368  -0.44569 
 P                     1.06399   0.00473  -1.53141 
 Ca                   -1.05431  -1.67129  -0.14227 
 Ca                    1.62757  -0.00384   1.38903 
 O                    -0.59162   0.00491  -1.65602 
 O                    -2.06748  -0.00266   1.10564 
 O                    -0.6068   -0.00624   1.52085 
 Ca                   -1.05458   1.67205  -0.13293 
 
                          Input orientation:                          
 ---------------------------------------------------------------------
 Center     Atomic     Atomic              Coordinates (Angstroms)
 Number     Number      Type              X           Y           Z
 ---------------------------------------------------------------------
    1          8             0        1.236890    1.286490   -0.437970
    2          8             0        1.237330   -1.283680   -0.445690
    3         15             0        1.063990    0.004730   -1.531410
    4         20             0       -1.054310   -1.671290   -0.142270
    5         20             0        1.627570   -0.003840    1.389030
    6          8             0       -0.591620    0.004910   -1.656020
    7          8             0       -2.067480   -0.002660    1.105640
    8          8             0       -0.606800   -0.006240    1.520850
    9         20             0       -1.054580    1.672050   -0.132930
 ---------------------------------------------------------------------
                    Distance matrix (angstroms):
                    1          2          3          4          5
     1  O    0.000000
     2  O    2.570182   0.000000
     3  P    1.693639   1.693764   0.000000
     4  Ca   3.753065   2.343911   3.037425   0.000000
     5  Ca   2.270575   2.270787   2.974334   3.509665   0.000000
     6  O    2.543529   2.543702   1.660293   2.305465   3.767919
     7  O    3.868268   3.869032   4.093921   2.316920   3.705901
     8  O    2.984513   2.983278   3.479648   2.395543   2.238256
     9  Ca   2.343617   3.753267   3.037111   3.343353   3.509829
                    6          7          8          9
     6  O    0.000000
     7  O    3.131291   0.000000
     8  O    3.176926   1.518551   0.000000
     9  Ca   2.305101   2.316177   2.398365   0.000000
 Stoichiometry    Ca3O5P(1+)
 Framework group  C1[X(Ca3O5P)]
 Deg. of freedom    21
 Full point group                 C1
 Largest Abelian subgroup         C1      NOp   1
 Largest concise Abelian subgroup C1      NOp   1
                         Standard orientation:                         
 ---------------------------------------------------------------------
 Center     Atomic     Atomic              Coordinates (Angstroms)
 Number     Number      Type              X           Y           Z
 ---------------------------------------------------------------------
    1          8             0        1.236883    1.286498   -0.437969
    2          8             0        1.237337   -1.283672   -0.445689
    3         15             0        1.063990    0.004737   -1.531409
    4         20             0       -1.054301   -1.671295   -0.142269
    5         20             0        1.627570   -0.003830    1.389031
    6          8             0       -0.591620    0.004907   -1.656019
    7          8             0       -2.067480   -0.002671    1.105641
    8          8             0       -0.606800   -0.006243    1.520851
    9         20             0       -1.054589    1.672045   -0.132929
 ---------------------------------------------------------------------
 Rotational constants (GHZ):      0.9462935      0.8197430      0.7961107
 Standard basis: 6-31+G(d,p) (6D, 7F)
 There are   199 symmetry adapted basis functions of A   symmetry.
 Integral buffers will be    131072 words long.
 Raffenetti 2 integral format.
 Two-electron integral symmetry is turned on.
   199 basis functions,   456 primitive gaussians,   199 cartesian basis functions
    57 alpha electrons       57 beta electrons
       nuclear repulsion energy      1104.9177048751 Hartrees.
 NAtoms=    9 NActive=    9 NUniq=    9 SFac= 7.50D-01 NAtFMM=   80 NAOKFM=F Big=F
 One-electron integrals computed using PRISM.
 NBasis=   199 RedAO= T  NBF=   199
 NBsUse=   199 1.00D-06 NBFU=   199
 Harris functional with IExCor=  402 diagonalized for initial guess.
 ExpMin= 7.10D-03 ExpMax= 3.53D+04 ExpMxC= 5.30D+03 IAcc=3 IRadAn=         5 AccDes= 0.00D+00
 HarFok:  IExCor= 402 AccDes= 0.00D+00 IRadAn=         5 IDoV=1
 ScaDFX=  1.000000  1.000000  1.000000  1.000000
 Initial guess orbital symmetries:
       Occupied  (A) (A) (A) (A) (A) (A) (A) (A) (A) (A) (A) (A)
                 (A) (A) (A) (A) (A) (A) (A) (A) (A) (A) (A) (A)
                 (A) (A) (A) (A) (A) (A) (A) (A) (A) (A) (A) (A)
                 (A) (A) (A) (A) (A) (A) (A) (A) (A) (A) (A) (A)
                 (A) (A) (A) (A) (A) (A) (A) (A) (A)
       Virtual   (A) (A) (A) (A) (A) (A) (A) (A) (A) (A) (A) (A)
                 (A) (A) (A) (A) (A) (A) (A) (A) (A) (A) (A) (A)
                 (A) (A) (A) (A) (A) (A) (A) (A) (A) (A) (A) (A)
                 (A) (A) (A) (A) (A) (A) (A) (A) (A) (A) (A) (A)
                 (A) (A) (A) (A) (A) (A) (A) (A) (A) (A) (A) (A)
                 (A) (A) (A) (A) (A) (A) (A) (A) (A) (A) (A) (A)
                 (A) (A) (A) (A) (A) (A) (A) (A) (A) (A) (A) (A)
                 (A) (A) (A) (A) (A) (A) (A) (A) (A) (A) (A) (A)
                 (A) (A) (A) (A) (A) (A) (A) (A) (A) (A) (A) (A)
                 (A) (A) (A) (A) (A) (A) (A) (A) (A) (A) (A) (A)
                 (A) (A) (A) (A) (A) (A) (A) (A) (A) (A) (A) (A)
                 (A) (A) (A) (A) (A) (A) (A) (A) (A) (A)
 The electronic state of the initial guess is 1-A.
 Requested convergence on RMS density matrix=1.00D-04 within 128 cycles.
 Requested convergence on MAX density matrix=1.00D-02.
 Requested convergence on             energy=1.00D-02.
 No special actions if energy rises.
 SCF Done:  E(RB+HF-LYP) =  -2750.24881772     A.U. after    7 cycles
             Convg  =    0.5381D-04             -V/T =  2.0029
             S**2   =   0.0000

 **********************************************************************

            Population analysis using the SCF density.

 **********************************************************************

 Orbital symmetries:
       Occupied  (A) (A) (A) (A) (A) (A) (A) (A) (A) (A) (A) (A)
                 (A) (A) (A) (A) (A) (A) (A) (A) (A) (A) (A) (A)
                 (A) (A) (A) (A) (A) (A) (A) (A) (A) (A) (A) (A)
                 (A) (A) (A) (A) (A) (A) (A) (A) (A) (A) (A) (A)
                 (A) (A) (A) (A) (A) (A) (A) (A) (A)
       Virtual   (A) (A) (A) (A) (A) (A) (A) (A) (A) (A) (A) (A)
                 (A) (A) (A) (A) (A) (A) (A) (A) (A) (A) (A) (A)
                 (A) (A) (A) (A) (A) (A) (A) (A) (A) (A) (A) (A)
                 (A) (A) (A) (A) (A) (A) (A) (A) (A) (A) (A) (A)
                 (A) (A) (A) (A) (A) (A) (A) (A) (A) (A) (A) (A)
                 (A) (A) (A) (A) (A) (A) (A) (A) (A) (A) (A) (A)
                 (A) (A) (A) (A) (A) (A) (A) (A) (A) (A) (A) (A)
                 (A) (A) (A) (A) (A) (A) (A) (A) (A) (A) (A) (A)
                 (A) (A) (A) (A) (A) (A) (A) (A) (A) (A) (A) (A)
                 (A) (A) (A) (A) (A) (A) (A) (A) (A) (A) (A) (A)
                 (A) (A) (A) (A) (A) (A) (A) (A) (A) (A) (A) (A)
                 (A) (A) (A) (A) (A) (A) (A) (A) (A) (A)
 The electronic state is 1-A.
 Alpha  occ. eigenvalues -- -145.52389-145.50177-145.50169 -77.25154 -19.25910
 Alpha  occ. eigenvalues --  -19.25460 -19.21784 -19.21784 -19.21333 -15.59147
 Alpha  occ. eigenvalues --  -15.56976 -15.56968 -12.72335 -12.72331 -12.72305
 Alpha  occ. eigenvalues --  -12.70184 -12.70177 -12.70176 -12.70169 -12.70096
 Alpha  occ. eigenvalues --  -12.70090  -6.70242  -4.86596  -4.86588  -4.86027
 Alpha  occ. eigenvalues --   -1.96325  -1.94226  -1.94160  -1.24348  -1.23880
 Alpha  occ. eigenvalues --   -1.23783  -1.22780  -1.22073  -1.21713  -1.21638
 Alpha  occ. eigenvalues --   -1.21518  -1.21220  -1.10031  -1.07324  -1.00850
 Alpha  occ. eigenvalues --   -1.00732  -0.89076  -0.63092  -0.51344  -0.51077
 Alpha  occ. eigenvalues --   -0.50976  -0.49233  -0.48450  -0.46043  -0.43790
 Alpha  occ. eigenvalues --   -0.43556  -0.38833  -0.38640  -0.38610  -0.35299
 Alpha  occ. eigenvalues --   -0.33989  -0.31697
 Alpha virt. eigenvalues --   -0.20303  -0.18387  -0.17630  -0.12784  -0.12601
 Alpha virt. eigenvalues --   -0.10906  -0.09917  -0.09096  -0.08254  -0.07950
 Alpha virt. eigenvalues --   -0.07348  -0.06562  -0.06018  -0.05818  -0.04925
 Alpha virt. eigenvalues --   -0.04867  -0.04857  -0.04686  -0.04486  -0.04309
 Alpha virt. eigenvalues --   -0.04013  -0.03910  -0.03218  -0.02973  -0.02947
 Alpha virt. eigenvalues --   -0.02710  -0.01827  -0.00967   0.00846   0.01988
 Alpha virt. eigenvalues --    0.02247   0.03416   0.04333   0.04544   0.04865
 Alpha virt. eigenvalues --    0.05218   0.05243   0.06161   0.06289   0.07054
 Alpha virt. eigenvalues --    0.07073   0.07100   0.07503   0.07557   0.07796
 Alpha virt. eigenvalues --    0.08499   0.09373   0.10327   0.11208   0.11843
 Alpha virt. eigenvalues --    0.12320   0.14919   0.14940   0.16118   0.17400
 Alpha virt. eigenvalues --    0.18783   0.20650   0.21083   0.21102   0.23269
 Alpha virt. eigenvalues --    0.23558   0.23711   0.24623   0.25785   0.27293
 Alpha virt. eigenvalues --    0.27992   0.29797   0.31570   0.33557   0.33936
 Alpha virt. eigenvalues --    0.34434   0.36044   0.36690   0.38778   0.39286
 Alpha virt. eigenvalues --    0.41198   0.45562   0.46023   0.53540   0.54406
 Alpha virt. eigenvalues --    0.55430   0.62687   0.63183   0.63526   0.66212
 Alpha virt. eigenvalues --    0.81583   0.85425   0.90490   0.93114   0.99261
 Alpha virt. eigenvalues --    1.11615   1.11897   1.15493   1.16021   1.17642
 Alpha virt. eigenvalues --    1.18029   1.19916   1.19984   1.20451   1.22324
 Alpha virt. eigenvalues --    1.22914   1.27527   1.31255   1.33943   1.38919
 Alpha virt. eigenvalues --    1.45504   1.46495   1.49237   1.56976   1.58140
 Alpha virt. eigenvalues --    1.60027   1.64341   1.68056   1.71386   1.73209
 Alpha virt. eigenvalues --    1.76858   1.78167   1.78951   1.81322   1.84887
 Alpha virt. eigenvalues --    1.86385   1.87072   1.89511   1.90271   1.91255
 Alpha virt. eigenvalues --    1.92844   1.93665   1.99389   2.00494   2.11356
 Alpha virt. eigenvalues --    2.21664   2.24630   2.36585   2.52356   2.56748
 Alpha virt. eigenvalues --    3.07049   3.54035   4.03192   4.09919   4.14250
 Alpha virt. eigenvalues --    4.19216   4.32905
          Condensed to atoms (all electrons):
              1          2          3          4          5          6
     1  O    8.964856   0.043440  -0.177984   0.004982   0.074714   0.050187
     2  O    0.043440   8.964545  -0.177634   0.060420   0.074735   0.050097
     3  P   -0.177984  -0.177634  14.404367   0.017275   0.026367  -0.171558
     4  Ca   0.004982   0.060420   0.017275  18.339485  -0.045016   0.065821
     5  Ca   0.074714   0.074735   0.026367  -0.045016  18.361958   0.013805
     6  O    0.050187   0.050097  -0.171558   0.065821   0.013805   8.936177
     7  O   -0.006632  -0.006658   0.003419   0.104047  -0.033191   0.002002
     8  O    0.029637   0.029717  -0.024758   0.038243   0.088511   0.022413
     9  Ca   0.060530   0.004991   0.017372  -0.047931  -0.045052   0.065917
              7          8          9
     1  O   -0.006632   0.029637   0.060530
     2  O   -0.006658   0.029717   0.004991
     3  P    0.003419  -0.024758   0.017372
     4  Ca   0.104047   0.038243  -0.047931
     5  Ca  -0.033191   0.088511  -0.045052
     6  O    0.002002   0.022413   0.065917
     7  O    8.578232  -0.101428   0.104132
     8  O   -0.101428   8.605083   0.037979
     9  Ca   0.104132   0.037979  18.339476
 Mulliken atomic charges:
              1
     1  O   -1.043728
     2  O   -1.043653
     3  P    1.083134
     4  Ca   1.462674
     5  Ca   1.483168
     6  O   -1.034862
     7  O   -0.643922
     8  O   -0.725397
     9  Ca   1.462585
 Sum of Mulliken charges=   1.00000
 Atomic charges with hydrogens summed into heavy atoms:
              1
     1  O   -1.043728
     2  O   -1.043653
     3  P    1.083134
     4  Ca   1.462674
     5  Ca   1.483168
     6  O   -1.034862
     7  O   -0.643922
     8  O   -0.725397
     9  Ca   1.462585
 Sum of Mulliken charges=   1.00000
 Electronic spatial extent (au):  <R**2>=  1729.0159
 Charge=     1.0000 electrons
 Dipole moment (field-independent basis, Debye):
    X=    -0.9335    Y=    -0.0131    Z=     6.2084  Tot=     6.2782
 Quadrupole moment (field-independent basis, Debye-Ang):
   XX=   -63.6689   YY=   -44.2247   ZZ=   -80.5639
   XY=    -0.0814   XZ=    28.3145   YZ=     0.1103
 Traceless Quadrupole moment (field-independent basis, Debye-Ang):
   XX=    -0.8497   YY=    18.5945   ZZ=   -17.7448
   XY=    -0.0814   XZ=    28.3145   YZ=     0.1103
 Octapole moment (field-independent basis, Debye-Ang**2):
  XXX=    20.2347  YYY=    -0.0517  ZZZ=    45.1983  XYY=   -73.7900
  XXY=    -0.0674  XXZ=    28.2200  XZZ=    39.2475  YZZ=    -0.0834
  YYZ=     4.9365  XYZ=    -0.3211
 Hexadecapole moment (field-independent basis, Debye-Ang**3):
 XXXX=  -745.5035 YYYY=  -401.3970 ZZZZ=  -674.2402 XXXY=    -0.4503
 XXXZ=   157.8449 YYYX=    -0.3129 YYYZ=     0.5395 ZZZX=   109.8186
 ZZZY=     0.4124 XXYY=  -182.3448 XXZZ=  -218.9696 YYZZ=  -189.7234
 XXYZ=     0.1142 YYXZ=    34.9574 ZZXY=    -0.1176
 N-N= 1.104917704875D+03 E-N=-8.710492751331D+03  KE= 2.742231283395D+03
 Merz-Kollman atomic radii used.
 Read replacement radii for each type of atom:
 Rad(20) =   1.188000000000D+00
 Atom Element Radius
    1     8    1.40
    2     8    1.40
    3    15    1.80
    4    20    1.19
    5    20    1.19
    6     8    1.40
    7     8    1.40
    8     8    1.40
    9    20    1.19

 **********************************************************************

            Electrostatic Properties Using The SCF Density

 **********************************************************************

       Atomic Center    1 is at   1.236883  1.286498 -0.437969
       Atomic Center    2 is at   1.237337 -1.283672 -0.445689
       Atomic Center    3 is at   1.063990  0.004737 -1.531409
       Atomic Center    4 is at  -1.054301 -1.671295 -0.142269
       Atomic Center    5 is at   1.627570 -0.003830  1.389031
       Atomic Center    6 is at  -0.591620  0.004907 -1.656019
       Atomic Center    7 is at  -2.067480 -0.002671  1.105641
       Atomic Center    8 is at  -0.606800 -0.006243  1.520851
       Atomic Center    9 is at  -1.054589  1.672045 -0.132929
     736 points will be used for fitting atomic charges
 Fitting point charges to eletrostatic potential
 Charges from ESP fit, RMS=   0.00664 RRMS=   0.04144:
 Charge=   1.00000 Dipole=    -0.7852    -0.0129     6.0508 Tot=     6.1016
              1
     1  O   -0.990077
     2  O   -0.989924
     3  P    0.545166
     4  Ca   1.675003
     5  Ca   1.651162
     6  O   -0.945431
     7  O   -0.690095
     8  O   -0.930682
     9  Ca   1.674878
 -----------------------------------------------------------------

              Electrostatic Properties (Atomic Units)

 -----------------------------------------------------------------
    Center     Electric         -------- Electric Field --------
               Potential          X             Y             Z
 -----------------------------------------------------------------
    1 Atom    -22.248428
    2 Atom    -22.248627
    3 Atom    -53.962542
    4 Atom    -80.039084
    5 Atom    -80.016240
    6 Atom    -22.248761
    7 Atom    -22.216068
    8 Atom    -22.204678
    9 Atom    -80.039010
 -----------------------------------------------------------------
 1\1\GINC-N032\SP\RB3LYP\6-31+G(d,p)\Ca3O5P1(1+)\TIMN\12-Jun-2015\0\\# 
 b3lyp/6-31+G(d,p) int=ultrafine pop=(ReadRadii,MK)\\mol_17.25.44.pdbcc
 c_plusQ.z58349.zip.xyz\\1,1\O,0,1.23689,1.28649,-0.43797\O,0,1.23733,-
 1.28368,-0.44569\P,0,1.06399,0.00473,-1.53141\Ca,0,-1.05431,-1.67129,-
 0.14227\Ca,0,1.62757,-0.00384,1.38903\O,0,-0.59162,0.00491,-1.65602\O,
 0,-2.06748,-0.00266,1.10564\O,0,-0.6068,-0.00624,1.52085\Ca,0,-1.05458
 ,1.67205,-0.13293\\Version=EM64T-G03RevE.01\State=1-A\HF=-2750.2488177
 \RMSD=5.381e-05\Thermal=0.\Dipole=-0.3672593,-0.0051571,2.4425628\PG=C
 01 [X(Ca3O5P1)]\\@


 RESEARCH IS WHAT I AM DOING WHEN I DON'T KNOW WHAT I AM DOING.
     -- WERNER VON BRAUN
 Job cpu time:  0 days  0 hours  1 minutes 57.1 seconds.
 File lengths (MBytes):  RWF=     36 Int=      0 D2E=      0 Chk=     11 Scr=      1
 Normal termination of Gaussian 03 at Fri Jun 12 17:58:08 2015.
