 Entering Gaussian System, Link 0=/home/timn/tmp/g03.e01/g03
 Input=mol_16.4.41.pdb_plusQ.out.z51591.zip.xyz.gjf
 Output=mol_16.4.41.pdb_plusQ.out.z51591.zip.xyz.out
 Initial command:
 /home/timn/tmp/g03.e01/l1.exe /home/timn/tmp/g03.e01/Gau-12416.inp -scrdir=/home/timn/tmp/g03.e01/
 Default is to use a total of   2 processors:
                                2 via shared-memory
                                1 via Linda
 Entering Link 1 = /home/timn/tmp/g03.e01/l1.exe PID=     12419.
  
 Copyright (c) 1988,1990,1992,1993,1995,1998,2003,2004,2007, Gaussian, Inc.
                  All Rights Reserved.
  
 This is the Gaussian(R) 03 program.  It is based on the
 the Gaussian(R) 98 system (copyright 1998, Gaussian, Inc.),
 the Gaussian(R) 94 system (copyright 1995, Gaussian, Inc.),
 the Gaussian 92(TM) system (copyright 1992, Gaussian, Inc.),
 the Gaussian 90(TM) system (copyright 1990, Gaussian, Inc.),
 the Gaussian 88(TM) system (copyright 1988, Gaussian, Inc.),
 the Gaussian 86(TM) system (copyright 1986, Carnegie Mellon
 University), and the Gaussian 82(TM) system (copyright 1983,
 Carnegie Mellon University). Gaussian is a federally registered
 trademark of Gaussian, Inc.
  
 This software contains proprietary and confidential information,
 including trade secrets, belonging to Gaussian, Inc.
  
 This software is provided under written license and may be
 used, copied, transmitted, or stored only in accord with that
 written license.
  
 The following legend is applicable only to US Government
 contracts under FAR:
  
                    RESTRICTED RIGHTS LEGEND
  
 Use, reproduction and disclosure by the US Government is
 subject to restrictions as set forth in subparagraphs (a)
 and (c) of the Commercial Computer Software - Restricted
 Rights clause in FAR 52.227-19.
  
 Gaussian, Inc.
 340 Quinnipiac St., Bldg. 40, Wallingford CT 06492
  
  
 ---------------------------------------------------------------
 Warning -- This program may not be used in any manner that
 competes with the business of Gaussian, Inc. or will provide
 assistance to any competitor of Gaussian, Inc.  The licensee
 of this program is prohibited from giving any competitor of
 Gaussian, Inc. access to this program.  By using this program,
 the user acknowledges that Gaussian, Inc. is engaged in the
 business of creating and licensing software in the field of
 computational chemistry and represents and warrants to the
 licensee that it is not a competitor of Gaussian, Inc. and that
 it will not use this program in any manner prohibited above.
 ---------------------------------------------------------------
  

 Cite this work as:
 Gaussian 03, Revision E.01,
 M. J. Frisch, G. W. Trucks, H. B. Schlegel, G. E. Scuseria, 
 M. A. Robb, J. R. Cheeseman, J. A. Montgomery, Jr., T. Vreven, 
 K. N. Kudin, J. C. Burant, J. M. Millam, S. S. Iyengar, J. Tomasi, 
 V. Barone, B. Mennucci, M. Cossi, G. Scalmani, N. Rega, 
 G. A. Petersson, H. Nakatsuji, M. Hada, M. Ehara, K. Toyota, 
 R. Fukuda, J. Hasegawa, M. Ishida, T. Nakajima, Y. Honda, O. Kitao, 
 H. Nakai, M. Klene, X. Li, J. E. Knox, H. P. Hratchian, J. B. Cross, 
 V. Bakken, C. Adamo, J. Jaramillo, R. Gomperts, R. E. Stratmann, 
 O. Yazyev, A. J. Austin, R. Cammi, C. Pomelli, J. W. Ochterski, 
 P. Y. Ayala, K. Morokuma, G. A. Voth, P. Salvador, J. J. Dannenberg, 
 V. G. Zakrzewski, S. Dapprich, A. D. Daniels, M. C. Strain, 
 O. Farkas, D. K. Malick, A. D. Rabuck, K. Raghavachari, 
 J. B. Foresman, J. V. Ortiz, Q. Cui, A. G. Baboul, S. Clifford, 
 J. Cioslowski, B. B. Stefanov, G. Liu, A. Liashenko, P. Piskorz, 
 I. Komaromi, R. L. Martin, D. J. Fox, T. Keith, M. A. Al-Laham, 
 C. Y. Peng, A. Nanayakkara, M. Challacombe, P. M. W. Gill, 
 B. Johnson, W. Chen, M. W. Wong, C. Gonzalez, and J. A. Pople, 
 Gaussian, Inc., Wallingford CT, 2004.
 
 ******************************************
 Gaussian 03:  EM64T-G03RevE.01 11-Sep-2007
                12-Jun-2015 
 ******************************************
 %nproc=2
 Will use up to    2 processors via shared memory.
 Default route:  MP2=Direct MaxDisk=2000MB
 ----------------------------------------------------
 # b3lyp/6-31+G(d,p) int=ultrafine pop=(ReadRadii,MK)
 ----------------------------------------------------

 Warning!  SCF SP cutoffs with diffuse functions may be unreliable.
 Consider SCF=Tight

 1/38=1/1;
 2/17=6,18=5,40=1/2;
 3/5=1,6=6,7=111,11=2,16=1,25=1,30=1,74=-5,75=5/1,2,3;
 4//1;
 5/5=2,32=1,38=5/2;
 6/7=2,8=2,9=2,10=2,15=8,20=101,28=1/1,2;
 99/5=1,9=1/99;
 ----------------------------------------
 mol_16.4.41.pdb_plusQ.out.z51591.zip.xyz
 ----------------------------------------
 Symbolic Z-matrix:
 Charge =  1 Multiplicity = 1
 O                    -1.7266   -0.03309   0.76993 
 O                    -1.72829  -0.03299  -0.7667 
 P                    -1.32299  -1.58179  -0.00067 
 O                     0.20734  -1.70787  -0.00176 
 O                     1.52047   1.39912  -0.00124 
 Ca                    2.20759  -0.59425   0.00079 
 Ca                   -0.52452   1.93053  -0.00039 
 
                          Input orientation:                          
 ---------------------------------------------------------------------
 Center     Atomic     Atomic              Coordinates (Angstroms)
 Number     Number      Type              X           Y           Z
 ---------------------------------------------------------------------
    1          8             0       -1.726600   -0.033090    0.769930
    2          8             0       -1.728290   -0.032990   -0.766700
    3         15             0       -1.322990   -1.581790   -0.000670
    4          8             0        0.207340   -1.707870   -0.001760
    5          8             0        1.520470    1.399120   -0.001240
    6         20             0        2.207590   -0.594250    0.000790
    7         20             0       -0.524520    1.930530   -0.000390
 ---------------------------------------------------------------------
                    Distance matrix (angstroms):
                    1          2          3          4          5
     1  O    0.000000
     2  O    1.536631   0.000000
     3  P    1.776287   1.774782   0.000000
     4  O    2.672175   2.671520   1.535515   0.000000
     5  O    3.631720   3.631984   4.119598   3.373084   0.000000
     6  Ca   4.047756   4.049099   3.666092   2.289357   2.108474
     7  Ca   2.427796   2.427283   3.601936   3.711277   2.112908
                    6          7
     6  Ca   0.000000
     7  Ca   3.720073   0.000000
 Stoichiometry    Ca2O4P(1+)
 Framework group  C1[X(Ca2O4P)]
 Deg. of freedom    15
 Full point group                 C1
 Largest Abelian subgroup         C1      NOp   1
 Largest concise Abelian subgroup C1      NOp   1
                         Standard orientation:                         
 ---------------------------------------------------------------------
 Center     Atomic     Atomic              Coordinates (Angstroms)
 Number     Number      Type              X           Y           Z
 ---------------------------------------------------------------------
    1          8             0       -1.726599   -0.033090    0.769932
    2          8             0       -1.728289   -0.032990   -0.766698
    3         15             0       -1.322990   -1.581790   -0.000668
    4          8             0        0.207340   -1.707871   -0.001758
    5          8             0        1.520472    1.399118   -0.001238
    6         20             0        2.207591   -0.594253    0.000792
    7         20             0       -0.524518    1.930529   -0.000388
 ---------------------------------------------------------------------
 Rotational constants (GHZ):      1.4980455      1.2265832      0.7101884
 Standard basis: 6-31+G(d,p) (6D, 7F)
 There are   153 symmetry adapted basis functions of A   symmetry.
 Integral buffers will be    131072 words long.
 Raffenetti 2 integral format.
 Two-electron integral symmetry is turned on.
   153 basis functions,   344 primitive gaussians,   153 cartesian basis functions
    43 alpha electrons       43 beta electrons
       nuclear repulsion energy       600.2674235159 Hartrees.
 NAtoms=    7 NActive=    7 NUniq=    7 SFac= 7.50D-01 NAtFMM=   80 NAOKFM=F Big=F
 One-electron integrals computed using PRISM.
 NBasis=   153 RedAO= T  NBF=   153
 NBsUse=   153 1.00D-06 NBFU=   153
 Harris functional with IExCor=  402 diagonalized for initial guess.
 ExpMin= 7.10D-03 ExpMax= 3.53D+04 ExpMxC= 5.30D+03 IAcc=3 IRadAn=         5 AccDes= 0.00D+00
 HarFok:  IExCor= 402 AccDes= 0.00D+00 IRadAn=         5 IDoV=1
 ScaDFX=  1.000000  1.000000  1.000000  1.000000
 Initial guess orbital symmetries:
       Occupied  (A) (A) (A) (A) (A) (A) (A) (A) (A) (A) (A) (A)
                 (A) (A) (A) (A) (A) (A) (A) (A) (A) (A) (A) (A)
                 (A) (A) (A) (A) (A) (A) (A) (A) (A) (A) (A) (A)
                 (A) (A) (A) (A) (A) (A) (A)
       Virtual   (A) (A) (A) (A) (A) (A) (A) (A) (A) (A) (A) (A)
                 (A) (A) (A) (A) (A) (A) (A) (A) (A) (A) (A) (A)
                 (A) (A) (A) (A) (A) (A) (A) (A) (A) (A) (A) (A)
                 (A) (A) (A) (A) (A) (A) (A) (A) (A) (A) (A) (A)
                 (A) (A) (A) (A) (A) (A) (A) (A) (A) (A) (A) (A)
                 (A) (A) (A) (A) (A) (A) (A) (A) (A) (A) (A) (A)
                 (A) (A) (A) (A) (A) (A) (A) (A) (A) (A) (A) (A)
                 (A) (A) (A) (A) (A) (A) (A) (A) (A) (A) (A) (A)
                 (A) (A) (A) (A) (A) (A) (A) (A) (A) (A) (A) (A)
                 (A) (A)
 The electronic state of the initial guess is 1-A.
 Requested convergence on RMS density matrix=1.00D-04 within 128 cycles.
 Requested convergence on MAX density matrix=1.00D-02.
 Requested convergence on             energy=1.00D-02.
 No special actions if energy rises.
 EnCoef did     4 forward-backward iterations
 SCF Done:  E(RB+HF-LYP) =  -1997.25492746     A.U. after    8 cycles
             Convg  =    0.6273D-04             -V/T =  2.0031
             S**2   =   0.0000

 **********************************************************************

            Population analysis using the SCF density.

 **********************************************************************

 Orbital symmetries:
       Occupied  (A) (A) (A) (A) (A) (A) (A) (A) (A) (A) (A) (A)
                 (A) (A) (A) (A) (A) (A) (A) (A) (A) (A) (A) (A)
                 (A) (A) (A) (A) (A) (A) (A) (A) (A) (A) (A) (A)
                 (A) (A) (A) (A) (A) (A) (A)
       Virtual   (A) (A) (A) (A) (A) (A) (A) (A) (A) (A) (A) (A)
                 (A) (A) (A) (A) (A) (A) (A) (A) (A) (A) (A) (A)
                 (A) (A) (A) (A) (A) (A) (A) (A) (A) (A) (A) (A)
                 (A) (A) (A) (A) (A) (A) (A) (A) (A) (A) (A) (A)
                 (A) (A) (A) (A) (A) (A) (A) (A) (A) (A) (A) (A)
                 (A) (A) (A) (A) (A) (A) (A) (A) (A) (A) (A) (A)
                 (A) (A) (A) (A) (A) (A) (A) (A) (A) (A) (A) (A)
                 (A) (A) (A) (A) (A) (A) (A) (A) (A) (A) (A) (A)
                 (A) (A) (A) (A) (A) (A) (A) (A) (A) (A) (A) (A)
                 (A) (A)
 The electronic state is 1-A.
 Alpha  occ. eigenvalues -- -145.52553-145.52280 -77.32937 -19.36112 -19.35999
 Alpha  occ. eigenvalues --  -19.28497 -19.15011 -15.59422 -15.59121 -12.72670
 Alpha  occ. eigenvalues --  -12.72595 -12.72504 -12.72354 -12.72324 -12.72204
 Alpha  occ. eigenvalues --   -6.78133  -4.94515  -4.94426  -4.93872  -1.96563
 Alpha  occ. eigenvalues --   -1.96235  -1.27062  -1.24347  -1.24145  -1.23912
 Alpha  occ. eigenvalues --   -1.23694  -1.23119  -1.22444  -1.12160  -0.99998
 Alpha  occ. eigenvalues --   -0.89422  -0.73016  -0.60901  -0.58873  -0.57869
 Alpha  occ. eigenvalues --   -0.53890  -0.48261  -0.46900  -0.42437  -0.42249
 Alpha  occ. eigenvalues --   -0.35635  -0.33599  -0.33505
 Alpha virt. eigenvalues --   -0.20898  -0.19535  -0.19405  -0.16452  -0.12533
 Alpha virt. eigenvalues --   -0.11227  -0.11074  -0.11013  -0.10012  -0.08470
 Alpha virt. eigenvalues --   -0.07620  -0.06634  -0.06227  -0.05388  -0.05359
 Alpha virt. eigenvalues --   -0.04570  -0.04454  -0.04298  -0.03610  -0.03487
 Alpha virt. eigenvalues --   -0.03309  -0.02345  -0.00520   0.00721   0.02030
 Alpha virt. eigenvalues --    0.02136   0.02732   0.03369   0.04307   0.04647
 Alpha virt. eigenvalues --    0.05035   0.05157   0.06165   0.06579   0.07377
 Alpha virt. eigenvalues --    0.07862   0.08037   0.08511   0.10173   0.12425
 Alpha virt. eigenvalues --    0.13507   0.14759   0.15934   0.16791   0.17777
 Alpha virt. eigenvalues --    0.19386   0.21226   0.22392   0.23061   0.23402
 Alpha virt. eigenvalues --    0.23612   0.27790   0.28229   0.29456   0.31535
 Alpha virt. eigenvalues --    0.33789   0.37350   0.37630   0.38834   0.43234
 Alpha virt. eigenvalues --    0.48303   0.56434   0.58631   0.61809   0.68303
 Alpha virt. eigenvalues --    0.68605   0.77733   0.82520   0.91526   1.00912
 Alpha virt. eigenvalues --    1.04816   1.05893   1.08588   1.10953   1.11921
 Alpha virt. eigenvalues --    1.13903   1.16711   1.18240   1.20699   1.23552
 Alpha virt. eigenvalues --    1.24716   1.38120   1.42442   1.45794   1.48646
 Alpha virt. eigenvalues --    1.50477   1.56592   1.66556   1.68774   1.70370
 Alpha virt. eigenvalues --    1.71368   1.74223   1.81931   1.82346   1.86262
 Alpha virt. eigenvalues --    1.86609   1.91379   1.93646   1.97675   2.01572
 Alpha virt. eigenvalues --    2.11944   2.23014   2.29817   2.64333   2.98564
 Alpha virt. eigenvalues --    3.42733   3.87030   3.94504   4.04483   4.05723
          Condensed to atoms (all electrons):
              1          2          3          4          5          6
     1  O    8.332275   0.040323  -0.011628   0.002339   0.007458   0.003534
     2  O    0.040323   8.335328  -0.012908   0.002281   0.007544   0.003508
     3  P   -0.011628  -0.012908  14.289873  -0.076147  -0.009770  -0.018060
     4  O    0.002339   0.002281  -0.076147   8.781028  -0.006441   0.060793
     5  O    0.007458   0.007544  -0.009770  -0.006441   8.736911   0.228795
     6  Ca   0.003534   0.003508  -0.018060   0.060793   0.228795  18.249668
     7  Ca   0.047515   0.047344  -0.009887  -0.010988   0.223583  -0.005726
              7
     1  O    0.047515
     2  O    0.047344
     3  P   -0.009887
     4  O   -0.010988
     5  O    0.223583
     6  Ca  -0.005726
     7  Ca  18.247997
 Mulliken atomic charges:
              1
     1  O   -0.421815
     2  O   -0.423419
     3  P    0.848526
     4  O   -0.752864
     5  O   -1.188079
     6  Ca   1.477489
     7  Ca   1.460162
 Sum of Mulliken charges=   1.00000
 Atomic charges with hydrogens summed into heavy atoms:
              1
     1  O   -0.421815
     2  O   -0.423419
     3  P    0.848526
     4  O   -0.752864
     5  O   -1.188079
     6  Ca   1.477489
     7  Ca   1.460162
 Sum of Mulliken charges=   1.00000
 Electronic spatial extent (au):  <R**2>=  1396.1058
 Charge=     1.0000 electrons
 Dipole moment (field-independent basis, Debye):
    X=     3.9650    Y=     1.7109    Z=     0.0182  Tot=     4.3185
 Quadrupole moment (field-independent basis, Debye-Ang):
   XX=   -36.5321   YY=   -39.2934   ZZ=   -56.5026
   XY=   -26.7015   XZ=     0.0233   YZ=    -0.0086
 Traceless Quadrupole moment (field-independent basis, Debye-Ang):
   XX=     7.5773   YY=     4.8159   ZZ=   -12.3932
   XY=   -26.7015   XZ=     0.0233   YZ=    -0.0086
 Octapole moment (field-independent basis, Debye-Ang**2):
  XXX=    94.8709  YYY=    64.1884  ZZZ=     0.0201  XYY=   -34.2269
  XXY=   -42.1906  XXZ=     0.0628  XZZ=     6.6373  YZZ=     1.8233
  YYZ=     0.0246  XYZ=     0.0055
 Hexadecapole moment (field-independent basis, Debye-Ang**3):
 XXXX=  -643.4078 YYYY=  -577.0945 ZZZZ=   -96.6186 XXXY=  -150.5132
 XXXZ=     0.1242 YYYX=  -119.2720 YYYZ=    -0.0550 ZZZX=     0.0652
 ZZZY=    -0.0175 XXYY=  -247.3719 XXZZ=  -150.1349 YYZZ=  -122.3131
 XXYZ=    -0.0008 YYXZ=     0.0555 ZZXY=   -20.7139
 N-N= 6.002674235159D+02 E-N=-5.919281183555D+03  KE= 1.991051473799D+03
 Merz-Kollman atomic radii used.
 Read replacement radii for each type of atom:
 Rad(20) =   1.188000000000D+00
 Atom Element Radius
    1     8    1.40
    2     8    1.40
    3    15    1.80
    4     8    1.40
    5     8    1.40
    6    20    1.19
    7    20    1.19

 **********************************************************************

            Electrostatic Properties Using The SCF Density

 **********************************************************************

       Atomic Center    1 is at  -1.726599 -0.033090  0.769932
       Atomic Center    2 is at  -1.728289 -0.032990 -0.766698
       Atomic Center    3 is at  -1.322990 -1.581790 -0.000668
       Atomic Center    4 is at   0.207340 -1.707871 -0.001758
       Atomic Center    5 is at   1.520472  1.399118 -0.001238
       Atomic Center    6 is at   2.207591 -0.594253  0.000792
       Atomic Center    7 is at  -0.524518  1.930529 -0.000388
     693 points will be used for fitting atomic charges
 Fitting point charges to eletrostatic potential
 Charges from ESP fit, RMS=   0.00556 RRMS=   0.03635:
 Charge=   1.00000 Dipole=     3.9512     1.6464     0.0236 Tot=     4.2806
              1
     1  O   -0.383930
     2  O   -0.387469
     3  P    0.674676
     4  O   -0.749975
     5  O   -1.523147
     6  Ca   1.691589
     7  Ca   1.678256
 -----------------------------------------------------------------

              Electrostatic Properties (Atomic Units)

 -----------------------------------------------------------------
    Center     Electric         -------- Electric Field --------
               Potential          X             Y             Z
 -----------------------------------------------------------------
    1 Atom    -22.112211
    2 Atom    -22.115285
    3 Atom    -53.887978
    4 Atom    -22.177295
    5 Atom    -22.312847
    6 Atom    -80.015976
    7 Atom    -80.018299
 -----------------------------------------------------------------
 1\1\GINC-N034\SP\RB3LYP\6-31+G(d,p)\Ca2O4P1(1+)\TIMN\12-Jun-2015\0\\# 
 b3lyp/6-31+G(d,p) int=ultrafine pop=(ReadRadii,MK)\\mol_16.4.41.pdb_pl
 usQ.out.z51591.zip.xyz\\1,1\O,0,-1.7266,-0.03309,0.76993\O,0,-1.72829,
 -0.03299,-0.7667\P,0,-1.32299,-1.58179,-0.00067\O,0,0.20734,-1.70787,-
 0.00176\O,0,1.52047,1.39912,-0.00124\Ca,0,2.20759,-0.59425,0.00079\Ca,
 0,-0.52452,1.93053,-0.00039\\Version=EM64T-G03RevE.01\State=1-A\HF=-19
 97.2549275\RMSD=6.273e-05\Thermal=0.\Dipole=1.5599699,0.6731163,0.0071
 557\PG=C01 [X(Ca2O4P1)]\\@


 The hours that make us happy make us wise.
                         -- John Masefield
 Job cpu time:  0 days  0 hours  0 minutes 58.0 seconds.
 File lengths (MBytes):  RWF=     28 Int=      0 D2E=      0 Chk=     10 Scr=      1
 Normal termination of Gaussian 03 at Fri Jun 12 17:48:24 2015.
