 Entering Gaussian System, Link 0=/home/timn/tmp/g03.e01/g03
 Input=mol_16.4.44.pdbc_plusQc.out.z51594.zip.xyz.gjf
 Output=mol_16.4.44.pdbc_plusQc.out.z51594.zip.xyz.out
 Initial command:
 /home/timn/tmp/g03.e01/l1.exe /home/timn/tmp/g03.e01/Gau-14384.inp -scrdir=/home/timn/tmp/g03.e01/
 Default is to use a total of   2 processors:
                                2 via shared-memory
                                1 via Linda
 Entering Link 1 = /home/timn/tmp/g03.e01/l1.exe PID=     14385.
  
 Copyright (c) 1988,1990,1992,1993,1995,1998,2003,2004,2007, Gaussian, Inc.
                  All Rights Reserved.
  
 This is the Gaussian(R) 03 program.  It is based on the
 the Gaussian(R) 98 system (copyright 1998, Gaussian, Inc.),
 the Gaussian(R) 94 system (copyright 1995, Gaussian, Inc.),
 the Gaussian 92(TM) system (copyright 1992, Gaussian, Inc.),
 the Gaussian 90(TM) system (copyright 1990, Gaussian, Inc.),
 the Gaussian 88(TM) system (copyright 1988, Gaussian, Inc.),
 the Gaussian 86(TM) system (copyright 1986, Carnegie Mellon
 University), and the Gaussian 82(TM) system (copyright 1983,
 Carnegie Mellon University). Gaussian is a federally registered
 trademark of Gaussian, Inc.
  
 This software contains proprietary and confidential information,
 including trade secrets, belonging to Gaussian, Inc.
  
 This software is provided under written license and may be
 used, copied, transmitted, or stored only in accord with that
 written license.
  
 The following legend is applicable only to US Government
 contracts under FAR:
  
                    RESTRICTED RIGHTS LEGEND
  
 Use, reproduction and disclosure by the US Government is
 subject to restrictions as set forth in subparagraphs (a)
 and (c) of the Commercial Computer Software - Restricted
 Rights clause in FAR 52.227-19.
  
 Gaussian, Inc.
 340 Quinnipiac St., Bldg. 40, Wallingford CT 06492
  
  
 ---------------------------------------------------------------
 Warning -- This program may not be used in any manner that
 competes with the business of Gaussian, Inc. or will provide
 assistance to any competitor of Gaussian, Inc.  The licensee
 of this program is prohibited from giving any competitor of
 Gaussian, Inc. access to this program.  By using this program,
 the user acknowledges that Gaussian, Inc. is engaged in the
 business of creating and licensing software in the field of
 computational chemistry and represents and warrants to the
 licensee that it is not a competitor of Gaussian, Inc. and that
 it will not use this program in any manner prohibited above.
 ---------------------------------------------------------------
  

 Cite this work as:
 Gaussian 03, Revision E.01,
 M. J. Frisch, G. W. Trucks, H. B. Schlegel, G. E. Scuseria, 
 M. A. Robb, J. R. Cheeseman, J. A. Montgomery, Jr., T. Vreven, 
 K. N. Kudin, J. C. Burant, J. M. Millam, S. S. Iyengar, J. Tomasi, 
 V. Barone, B. Mennucci, M. Cossi, G. Scalmani, N. Rega, 
 G. A. Petersson, H. Nakatsuji, M. Hada, M. Ehara, K. Toyota, 
 R. Fukuda, J. Hasegawa, M. Ishida, T. Nakajima, Y. Honda, O. Kitao, 
 H. Nakai, M. Klene, X. Li, J. E. Knox, H. P. Hratchian, J. B. Cross, 
 V. Bakken, C. Adamo, J. Jaramillo, R. Gomperts, R. E. Stratmann, 
 O. Yazyev, A. J. Austin, R. Cammi, C. Pomelli, J. W. Ochterski, 
 P. Y. Ayala, K. Morokuma, G. A. Voth, P. Salvador, J. J. Dannenberg, 
 V. G. Zakrzewski, S. Dapprich, A. D. Daniels, M. C. Strain, 
 O. Farkas, D. K. Malick, A. D. Rabuck, K. Raghavachari, 
 J. B. Foresman, J. V. Ortiz, Q. Cui, A. G. Baboul, S. Clifford, 
 J. Cioslowski, B. B. Stefanov, G. Liu, A. Liashenko, P. Piskorz, 
 I. Komaromi, R. L. Martin, D. J. Fox, T. Keith, M. A. Al-Laham, 
 C. Y. Peng, A. Nanayakkara, M. Challacombe, P. M. W. Gill, 
 B. Johnson, W. Chen, M. W. Wong, C. Gonzalez, and J. A. Pople, 
 Gaussian, Inc., Wallingford CT, 2004.
 
 ******************************************
 Gaussian 03:  EM64T-G03RevE.01 11-Sep-2007
                12-Jun-2015 
 ******************************************
 %nproc=2
 Will use up to    2 processors via shared memory.
 Default route:  MP2=Direct MaxDisk=2000MB
 ----------------------------------------------------
 # b3lyp/6-31+G(d,p) int=ultrafine pop=(ReadRadii,MK)
 ----------------------------------------------------

 Warning!  SCF SP cutoffs with diffuse functions may be unreliable.
 Consider SCF=Tight

 1/38=1/1;
 2/17=6,18=5,40=1/2;
 3/5=1,6=6,7=111,11=2,16=1,25=1,30=1,74=-5,75=5/1,2,3;
 4//1;
 5/5=2,32=1,38=5/2;
 6/7=2,8=2,9=2,10=2,15=8,20=101,28=1/1,2;
 99/5=1,9=1/99;
 ------------------------------------------
 mol_16.4.44.pdbc_plusQc.out.z51594.zip.xyz
 ------------------------------------------
 Symbolic Z-matrix:
 Charge =  1 Multiplicity = 1
 O                     1.1828   -1.54364   0.00669 
 O                    -0.05192  -0.75538   0.01025 
 P                     2.5547   -0.67634  -0.00408 
 O                     2.18138   0.79773  -0.0072 
 Ca                   -2.35522  -0.98494  -0.00293 
 O                    -2.11763   1.11161  -0.00519 
 Ca                   -0.03865   1.64807   0.00417 
 
                          Input orientation:                          
 ---------------------------------------------------------------------
 Center     Atomic     Atomic              Coordinates (Angstroms)
 Number     Number      Type              X           Y           Z
 ---------------------------------------------------------------------
    1          8             0        1.182800   -1.543640    0.006690
    2          8             0       -0.051920   -0.755380    0.010250
    3         15             0        2.554700   -0.676340   -0.004080
    4          8             0        2.181380    0.797730   -0.007200
    5         20             0       -2.355220   -0.984940   -0.002930
    6          8             0       -2.117630    1.111610   -0.005190
    7         20             0       -0.038650    1.648070    0.004170
 ---------------------------------------------------------------------
                    Distance matrix (angstroms):
                    1          2          3          4          5
     1  O    0.000000
     2  O    1.464889   0.000000
     3  P    1.623094   2.607857   0.000000
     4  O    2.545460   2.720310   1.520612   0.000000
     5  Ca   3.581874   2.314749   4.919609   4.874287   0.000000
     6  O    4.235957   2.784430   5.002743   4.310454   2.109971
     7  Ca   3.417449   2.403494   3.482587   2.377339   3.507034
                    6          7
     6  O    0.000000
     7  Ca   2.147099   0.000000
 Stoichiometry    Ca2O4P(1+)
 Framework group  C1[X(Ca2O4P)]
 Deg. of freedom    15
 Full point group                 C1
 Largest Abelian subgroup         C1      NOp   1
 Largest concise Abelian subgroup C1      NOp   1
                         Standard orientation:                         
 ---------------------------------------------------------------------
 Center     Atomic     Atomic              Coordinates (Angstroms)
 Number     Number      Type              X           Y           Z
 ---------------------------------------------------------------------
    1          8             0        1.182799   -1.543640    0.006690
    2          8             0       -0.051921   -0.755381    0.010250
    3         15             0        2.554699   -0.676340   -0.004080
    4          8             0        2.181378    0.797730   -0.007200
    5         20             0       -2.355221   -0.984941   -0.002930
    6          8             0       -2.117632    1.111609   -0.005190
    7         20             0       -0.038652    1.648069    0.004170
 ---------------------------------------------------------------------
 Rotational constants (GHZ):      2.1175930      0.8506370      0.6068686
 Standard basis: 6-31+G(d,p) (6D, 7F)
 There are   153 symmetry adapted basis functions of A   symmetry.
 Integral buffers will be    131072 words long.
 Raffenetti 2 integral format.
 Two-electron integral symmetry is turned on.
   153 basis functions,   344 primitive gaussians,   153 cartesian basis functions
    43 alpha electrons       43 beta electrons
       nuclear repulsion energy       585.7921470155 Hartrees.
 NAtoms=    7 NActive=    7 NUniq=    7 SFac= 7.50D-01 NAtFMM=   80 NAOKFM=F Big=F
 One-electron integrals computed using PRISM.
 NBasis=   153 RedAO= T  NBF=   153
 NBsUse=   153 1.00D-06 NBFU=   153
 Harris functional with IExCor=  402 diagonalized for initial guess.
 ExpMin= 7.10D-03 ExpMax= 3.53D+04 ExpMxC= 5.30D+03 IAcc=3 IRadAn=         5 AccDes= 0.00D+00
 HarFok:  IExCor= 402 AccDes= 0.00D+00 IRadAn=         5 IDoV=1
 ScaDFX=  1.000000  1.000000  1.000000  1.000000
 Initial guess orbital symmetries:
       Occupied  (A) (A) (A) (A) (A) (A) (A) (A) (A) (A) (A) (A)
                 (A) (A) (A) (A) (A) (A) (A) (A) (A) (A) (A) (A)
                 (A) (A) (A) (A) (A) (A) (A) (A) (A) (A) (A) (A)
                 (A) (A) (A) (A) (A) (A) (A)
       Virtual   (A) (A) (A) (A) (A) (A) (A) (A) (A) (A) (A) (A)
                 (A) (A) (A) (A) (A) (A) (A) (A) (A) (A) (A) (A)
                 (A) (A) (A) (A) (A) (A) (A) (A) (A) (A) (A) (A)
                 (A) (A) (A) (A) (A) (A) (A) (A) (A) (A) (A) (A)
                 (A) (A) (A) (A) (A) (A) (A) (A) (A) (A) (A) (A)
                 (A) (A) (A) (A) (A) (A) (A) (A) (A) (A) (A) (A)
                 (A) (A) (A) (A) (A) (A) (A) (A) (A) (A) (A) (A)
                 (A) (A) (A) (A) (A) (A) (A) (A) (A) (A) (A) (A)
                 (A) (A) (A) (A) (A) (A) (A) (A) (A) (A) (A) (A)
                 (A) (A)
 The electronic state of the initial guess is 1-A.
 Requested convergence on RMS density matrix=1.00D-04 within 128 cycles.
 Requested convergence on MAX density matrix=1.00D-02.
 Requested convergence on             energy=1.00D-02.
 No special actions if energy rises.
 EnCoef did     5 forward-backward iterations
 SCF Done:  E(RB+HF-LYP) =  -1997.24345552     A.U. after    8 cycles
             Convg  =    0.8065D-04             -V/T =  2.0031
             S**2   =   0.0000

 **********************************************************************

            Population analysis using the SCF density.

 **********************************************************************

 Orbital symmetries:
       Occupied  (A) (A) (A) (A) (A) (A) (A) (A) (A) (A) (A) (A)
                 (A) (A) (A) (A) (A) (A) (A) (A) (A) (A) (A) (A)
                 (A) (A) (A) (A) (A) (A) (A) (A) (A) (A) (A) (A)
                 (A) (A) (A) (A) (A) (A) (A)
       Virtual   (A) (A) (A) (A) (A) (A) (A) (A) (A) (A) (A) (A)
                 (A) (A) (A) (A) (A) (A) (A) (A) (A) (A) (A) (A)
                 (A) (A) (A) (A) (A) (A) (A) (A) (A) (A) (A) (A)
                 (A) (A) (A) (A) (A) (A) (A) (A) (A) (A) (A) (A)
                 (A) (A) (A) (A) (A) (A) (A) (A) (A) (A) (A) (A)
                 (A) (A) (A) (A) (A) (A) (A) (A) (A) (A) (A) (A)
                 (A) (A) (A) (A) (A) (A) (A) (A) (A) (A) (A) (A)
                 (A) (A) (A) (A) (A) (A) (A) (A) (A) (A) (A) (A)
                 (A) (A) (A) (A) (A) (A) (A) (A) (A) (A) (A) (A)
                 (A) (A)
 The electronic state is 1-A.
 Alpha  occ. eigenvalues -- -145.53179-145.49983 -77.33165 -19.37613 -19.31250
 Alpha  occ. eigenvalues --  -19.31061 -19.14540 -15.60000 -15.56897 -12.73238
 Alpha  occ. eigenvalues --  -12.73170 -12.73103 -12.70162 -12.70092 -12.69941
 Alpha  occ. eigenvalues --   -6.78893  -4.95225  -4.95176  -4.94657  -1.97073
 Alpha  occ. eigenvalues --   -1.94160  -1.25188  -1.24770  -1.23983  -1.23728
 Alpha  occ. eigenvalues --   -1.22093  -1.21497  -1.21129  -1.14493  -0.99932
 Alpha  occ. eigenvalues --   -0.88713  -0.71617  -0.62439  -0.59516  -0.57809
 Alpha  occ. eigenvalues --   -0.50951  -0.50471  -0.46065  -0.42906  -0.40975
 Alpha  occ. eigenvalues --   -0.34585  -0.32686  -0.32615
 Alpha virt. eigenvalues --   -0.22840  -0.21676  -0.18242  -0.15499  -0.13030
 Alpha virt. eigenvalues --   -0.12201  -0.11017  -0.10842  -0.09520  -0.07753
 Alpha virt. eigenvalues --   -0.07441  -0.06874  -0.06253  -0.05611  -0.05418
 Alpha virt. eigenvalues --   -0.04539  -0.04531  -0.04389  -0.03816  -0.03794
 Alpha virt. eigenvalues --   -0.03244  -0.02643   0.00525   0.01038   0.01521
 Alpha virt. eigenvalues --    0.02117   0.03095   0.03788   0.04269   0.04622
 Alpha virt. eigenvalues --    0.05630   0.05954   0.06063   0.06996   0.07377
 Alpha virt. eigenvalues --    0.08176   0.09187   0.09464   0.11977   0.12527
 Alpha virt. eigenvalues --    0.13116   0.14908   0.16701   0.16813   0.17359
 Alpha virt. eigenvalues --    0.19486   0.20086   0.21848   0.23761   0.24881
 Alpha virt. eigenvalues --    0.26135   0.29809   0.30960   0.32633   0.33289
 Alpha virt. eigenvalues --    0.33961   0.35882   0.37982   0.42122   0.44334
 Alpha virt. eigenvalues --    0.48076   0.50929   0.53666   0.54163   0.70577
 Alpha virt. eigenvalues --    0.73915   0.80601   0.89322   0.92261   0.98775
 Alpha virt. eigenvalues --    1.03543   1.05422   1.09411   1.10606   1.12803
 Alpha virt. eigenvalues --    1.13919   1.15136   1.23573   1.23879   1.26087
 Alpha virt. eigenvalues --    1.30041   1.33133   1.39058   1.41236   1.47396
 Alpha virt. eigenvalues --    1.55555   1.57142   1.59643   1.67119   1.73069
 Alpha virt. eigenvalues --    1.77965   1.80745   1.83051   1.83448   1.83984
 Alpha virt. eigenvalues --    1.84912   1.88750   1.90568   1.95137   2.03732
 Alpha virt. eigenvalues --    2.19883   2.26383   2.43327   2.65725   3.02994
 Alpha virt. eigenvalues --    3.37900   3.72733   3.86952   3.96481   4.14166
          Condensed to atoms (all electrons):
              1          2          3          4          5          6
     1  O    8.627066  -0.262727  -0.061467  -0.031351   0.009496   0.026061
     2  O   -0.262727   8.804005  -0.013746  -0.030154   0.064004  -0.003344
     3  P   -0.061467  -0.013746  14.081322   0.193675   0.012064  -0.005531
     4  O   -0.031351  -0.030154   0.193675   8.508260   0.001361   0.000467
     5  Ca   0.009496   0.064004   0.012064   0.001361  18.272290   0.220418
     6  O    0.026061  -0.003344  -0.005531   0.000467   0.220418   8.656046
     7  Ca   0.028203   0.032418  -0.033126   0.050684  -0.010997   0.205612
              7
     1  O    0.028203
     2  O    0.032418
     3  P   -0.033126
     4  O    0.050684
     5  Ca  -0.010997
     6  O    0.205612
     7  Ca  18.266966
 Mulliken atomic charges:
              1
     1  O   -0.335281
     2  O   -0.590456
     3  P    0.826808
     4  O   -0.692943
     5  Ca   1.431363
     6  O   -1.099729
     7  Ca   1.460238
 Sum of Mulliken charges=   1.00000
 Atomic charges with hydrogens summed into heavy atoms:
              1
     1  O   -0.335281
     2  O   -0.590456
     3  P    0.826808
     4  O   -0.692943
     5  Ca   1.431363
     6  O   -1.099729
     7  Ca   1.460238
 Sum of Mulliken charges=   1.00000
 Electronic spatial extent (au):  <R**2>=  1574.9263
 Charge=     1.0000 electrons
 Dipole moment (field-independent basis, Debye):
    X=    -3.4284    Y=    -2.3519    Z=     0.0142  Tot=     4.1576
 Quadrupole moment (field-independent basis, Debye-Ang):
   XX=   -38.8674   YY=   -39.5096   ZZ=   -55.1865
   XY=    25.5814   XZ=     0.0071   YZ=     0.1757
 Traceless Quadrupole moment (field-independent basis, Debye-Ang):
   XX=     5.6538   YY=     5.0116   ZZ=   -10.6653
   XY=    25.5814   XZ=     0.0071   YZ=     0.1757
 Octapole moment (field-independent basis, Debye-Ang**2):
  XXX=   -53.6236  YYY=    29.4184  ZZZ=     0.0496  XYY=   -15.7520
  XXY=   -92.3627  XXZ=     0.0704  XZZ=    -4.2686  YZZ=    -0.0399
  YYZ=     0.1018  XYZ=    -0.0728
 Hexadecapole moment (field-independent basis, Debye-Ang**3):
 XXXX= -1096.8059 YYYY=  -418.6473 ZZZZ=   -60.2156 XXXY=   196.8268
 XXXZ=     0.2151 YYYX=    92.0445 YYYZ=     0.5235 ZZZX=     0.0445
 ZZZY=     0.2881 XXYY=  -292.2043 XXZZ=  -213.3071 YYZZ=   -87.6249
 XXYZ=     0.4451 YYXZ=     0.0242 ZZXY=    21.0592
 N-N= 5.857921470155D+02 E-N=-5.890673467657D+03  KE= 1.991069504964D+03
 Merz-Kollman atomic radii used.
 Read replacement radii for each type of atom:
 Rad(20) =   1.188000000000D+00
 Atom Element Radius
    1     8    1.40
    2     8    1.40
    3    15    1.80
    4     8    1.40
    5    20    1.19
    6     8    1.40
    7    20    1.19

 **********************************************************************

            Electrostatic Properties Using The SCF Density

 **********************************************************************

       Atomic Center    1 is at   1.182799 -1.543640  0.006690
       Atomic Center    2 is at  -0.051921 -0.755381  0.010250
       Atomic Center    3 is at   2.554699 -0.676340 -0.004080
       Atomic Center    4 is at   2.181378  0.797730 -0.007200
       Atomic Center    5 is at  -2.355221 -0.984941 -0.002930
       Atomic Center    6 is at  -2.117632  1.111609 -0.005190
       Atomic Center    7 is at  -0.038652  1.648069  0.004170
     720 points will be used for fitting atomic charges
 Fitting point charges to eletrostatic potential
 Charges from ESP fit, RMS=   0.00546 RRMS=   0.03600:
 Charge=   1.00000 Dipole=    -3.4884    -2.5077     0.0131 Tot=     4.2962
              1
     1  O   -0.115800
     2  O   -0.778958
     3  P    0.575744
     4  O   -0.565627
     5  Ca   1.645893
     6  O   -1.452117
     7  Ca   1.690864
 -----------------------------------------------------------------

              Electrostatic Properties (Atomic Units)

 -----------------------------------------------------------------
    Center     Electric         -------- Electric Field --------
               Potential          X             Y             Z
 -----------------------------------------------------------------
    1 Atom    -22.092961
    2 Atom    -22.151268
    3 Atom    -53.890149
    4 Atom    -22.157314
    5 Atom    -80.008762
    6 Atom    -22.316844
    7 Atom    -80.040729
 -----------------------------------------------------------------
 1\1\GINC-N035\SP\RB3LYP\6-31+G(d,p)\Ca2O4P1(1+)\TIMN\12-Jun-2015\0\\# 
 b3lyp/6-31+G(d,p) int=ultrafine pop=(ReadRadii,MK)\\mol_16.4.44.pdbc_p
 lusQc.out.z51594.zip.xyz\\1,1\O,0,1.1828,-1.54364,0.00669\O,0,-0.05192
 ,-0.75538,0.01025\P,0,2.5547,-0.67634,-0.00408\O,0,2.18138,0.79773,-0.
 0072\Ca,0,-2.35522,-0.98494,-0.00293\O,0,-2.11763,1.11161,-0.00519\Ca,
 0,-0.03865,1.64807,0.00417\\Version=EM64T-G03RevE.01\State=1-A\HF=-199
 7.2434555\RMSD=8.065e-05\Thermal=0.\Dipole=-1.3488393,-0.9253073,0.005
 5782\PG=C01 [X(Ca2O4P1)]\\@


 THE ONLY DIFFERENCE BETWEEN ECCENTRICS AND JOGGERS
 IS THAT JOGGERS WEAR SWEATBANDS WHEN THEY RUN IN THE RAIN.
 Job cpu time:  0 days  0 hours  0 minutes 56.3 seconds.
 File lengths (MBytes):  RWF=     28 Int=      0 D2E=      0 Chk=     10 Scr=      1
 Normal termination of Gaussian 03 at Fri Jun 12 17:48:42 2015.
