 Entering Gaussian System, Link 0=/home/timn/tmp/g03.e01/g03
 Input=mol_17.27.4.pdbcc_plusQ.z58516.zip.xyz.gjf
 Output=mol_17.27.4.pdbcc_plusQ.z58516.zip.xyz.out
 Initial command:
 /home/timn/tmp/g03.e01/l1.exe /home/timn/tmp/g03.e01/Gau-13516.inp -scrdir=/home/timn/tmp/g03.e01/
 Default is to use a total of   2 processors:
                                2 via shared-memory
                                1 via Linda
 Entering Link 1 = /home/timn/tmp/g03.e01/l1.exe PID=     13518.
  
 Copyright (c) 1988,1990,1992,1993,1995,1998,2003,2004,2007, Gaussian, Inc.
                  All Rights Reserved.
  
 This is the Gaussian(R) 03 program.  It is based on the
 the Gaussian(R) 98 system (copyright 1998, Gaussian, Inc.),
 the Gaussian(R) 94 system (copyright 1995, Gaussian, Inc.),
 the Gaussian 92(TM) system (copyright 1992, Gaussian, Inc.),
 the Gaussian 90(TM) system (copyright 1990, Gaussian, Inc.),
 the Gaussian 88(TM) system (copyright 1988, Gaussian, Inc.),
 the Gaussian 86(TM) system (copyright 1986, Carnegie Mellon
 University), and the Gaussian 82(TM) system (copyright 1983,
 Carnegie Mellon University). Gaussian is a federally registered
 trademark of Gaussian, Inc.
  
 This software contains proprietary and confidential information,
 including trade secrets, belonging to Gaussian, Inc.
  
 This software is provided under written license and may be
 used, copied, transmitted, or stored only in accord with that
 written license.
  
 The following legend is applicable only to US Government
 contracts under FAR:
  
                    RESTRICTED RIGHTS LEGEND
  
 Use, reproduction and disclosure by the US Government is
 subject to restrictions as set forth in subparagraphs (a)
 and (c) of the Commercial Computer Software - Restricted
 Rights clause in FAR 52.227-19.
  
 Gaussian, Inc.
 340 Quinnipiac St., Bldg. 40, Wallingford CT 06492
  
  
 ---------------------------------------------------------------
 Warning -- This program may not be used in any manner that
 competes with the business of Gaussian, Inc. or will provide
 assistance to any competitor of Gaussian, Inc.  The licensee
 of this program is prohibited from giving any competitor of
 Gaussian, Inc. access to this program.  By using this program,
 the user acknowledges that Gaussian, Inc. is engaged in the
 business of creating and licensing software in the field of
 computational chemistry and represents and warrants to the
 licensee that it is not a competitor of Gaussian, Inc. and that
 it will not use this program in any manner prohibited above.
 ---------------------------------------------------------------
  

 Cite this work as:
 Gaussian 03, Revision E.01,
 M. J. Frisch, G. W. Trucks, H. B. Schlegel, G. E. Scuseria, 
 M. A. Robb, J. R. Cheeseman, J. A. Montgomery, Jr., T. Vreven, 
 K. N. Kudin, J. C. Burant, J. M. Millam, S. S. Iyengar, J. Tomasi, 
 V. Barone, B. Mennucci, M. Cossi, G. Scalmani, N. Rega, 
 G. A. Petersson, H. Nakatsuji, M. Hada, M. Ehara, K. Toyota, 
 R. Fukuda, J. Hasegawa, M. Ishida, T. Nakajima, Y. Honda, O. Kitao, 
 H. Nakai, M. Klene, X. Li, J. E. Knox, H. P. Hratchian, J. B. Cross, 
 V. Bakken, C. Adamo, J. Jaramillo, R. Gomperts, R. E. Stratmann, 
 O. Yazyev, A. J. Austin, R. Cammi, C. Pomelli, J. W. Ochterski, 
 P. Y. Ayala, K. Morokuma, G. A. Voth, P. Salvador, J. J. Dannenberg, 
 V. G. Zakrzewski, S. Dapprich, A. D. Daniels, M. C. Strain, 
 O. Farkas, D. K. Malick, A. D. Rabuck, K. Raghavachari, 
 J. B. Foresman, J. V. Ortiz, Q. Cui, A. G. Baboul, S. Clifford, 
 J. Cioslowski, B. B. Stefanov, G. Liu, A. Liashenko, P. Piskorz, 
 I. Komaromi, R. L. Martin, D. J. Fox, T. Keith, M. A. Al-Laham, 
 C. Y. Peng, A. Nanayakkara, M. Challacombe, P. M. W. Gill, 
 B. Johnson, W. Chen, M. W. Wong, C. Gonzalez, and J. A. Pople, 
 Gaussian, Inc., Wallingford CT, 2004.
 
 ******************************************
 Gaussian 03:  EM64T-G03RevE.01 11-Sep-2007
                12-Jun-2015 
 ******************************************
 %nproc=2
 Will use up to    2 processors via shared memory.
 Default route:  MP2=Direct MaxDisk=2000MB
 ----------------------------------------------------
 # b3lyp/6-31+G(d,p) int=ultrafine pop=(ReadRadii,MK)
 ----------------------------------------------------

 Warning!  SCF SP cutoffs with diffuse functions may be unreliable.
 Consider SCF=Tight

 1/38=1/1;
 2/17=6,18=5,40=1/2;
 3/5=1,6=6,7=111,11=2,16=1,25=1,30=1,74=-5,75=5/1,2,3;
 4//1;
 5/5=2,32=1,38=5/2;
 6/7=2,8=2,9=2,10=2,15=8,20=101,28=1/1,2;
 99/5=1,9=1/99;
 --------------------------------------
 mol_17.27.4.pdbcc_plusQ.z58516.zip.xyz
 --------------------------------------
 Symbolic Z-matrix:
 Charge =  1 Multiplicity = 1
 O                     0.6493   -2.465     0.19518 
 O                    -0.0748   -1.25867  -0.34758 
 P                    -1.12054  -0.71612   0.87043 
 O                    -1.46128   0.81443   0.19375 
 Ca                   -3.52483  -0.05698  -0.43269 
 Ca                    0.49775   2.03519   0.11519 
 O                     2.24352   1.08141  -0.88761 
 O                     2.34867   0.95283   0.67293 
 Ca                    2.38533  -1.09112  -0.26599 
 
                          Input orientation:                          
 ---------------------------------------------------------------------
 Center     Atomic     Atomic              Coordinates (Angstroms)
 Number     Number      Type              X           Y           Z
 ---------------------------------------------------------------------
    1          8             0        0.649300   -2.465000    0.195180
    2          8             0       -0.074800   -1.258670   -0.347580
    3         15             0       -1.120540   -0.716120    0.870430
    4          8             0       -1.461280    0.814430    0.193750
    5         20             0       -3.524830   -0.056980   -0.432690
    6         20             0        0.497750    2.035190    0.115190
    7          8             0        2.243520    1.081410   -0.887610
    8          8             0        2.348670    0.952830    0.672930
    9         20             0        2.385330   -1.091120   -0.265990
 ---------------------------------------------------------------------
                    Distance matrix (angstroms):
                    1          2          3          4          5
     1  O    0.000000
     2  O    1.508026   0.000000
     3  P    2.578154   1.694544   0.000000
     4  O    3.899899   2.552079   1.707801   0.000000
     5  Ca   4.859644   3.654314   2.813041   2.325945   0.000000
     6  Ca   4.503452   3.375127   3.280085   2.309594   4.567110
     7  O    4.036211   3.337996   4.199847   3.868612   5.897181
     8  O    3.846773   3.435896   3.854843   3.842458   6.061362
     9  Ca   2.261421   2.467178   3.704484   4.317278   6.002268
                    6          7          8          9
     6  Ca   0.000000
     7  O    2.227783   0.000000
     8  O    2.215509   1.569355   0.000000
     9  Ca   3.671794   2.264157   2.249588   0.000000
 Stoichiometry    Ca3O5P(1+)
 Framework group  C1[X(Ca3O5P)]
 Deg. of freedom    21
 Full point group                 C1
 Largest Abelian subgroup         C1      NOp   1
 Largest concise Abelian subgroup C1      NOp   1
                         Standard orientation:                         
 ---------------------------------------------------------------------
 Center     Atomic     Atomic              Coordinates (Angstroms)
 Number     Number      Type              X           Y           Z
 ---------------------------------------------------------------------
    1          8             0        0.649293   -2.465002    0.195180
    2          8             0       -0.074805   -1.258670   -0.347580
    3         15             0       -1.120543   -0.716117    0.870430
    4          8             0       -1.461280    0.814433    0.193750
    5         20             0       -3.524832   -0.056972   -0.432690
    6         20             0        0.497753    2.035189    0.115190
    7          8             0        2.243521    1.081405   -0.887610
    8          8             0        2.348671    0.952824    0.672930
    9         20             0        2.385326   -1.091126   -0.265990
 ---------------------------------------------------------------------
 Rotational constants (GHZ):      1.1162020      0.4860833      0.3667783
 Standard basis: 6-31+G(d,p) (6D, 7F)
 There are   199 symmetry adapted basis functions of A   symmetry.
 Integral buffers will be    131072 words long.
 Raffenetti 2 integral format.
 Two-electron integral symmetry is turned on.
   199 basis functions,   456 primitive gaussians,   199 cartesian basis functions
    57 alpha electrons       57 beta electrons
       nuclear repulsion energy       967.0777681448 Hartrees.
 NAtoms=    9 NActive=    9 NUniq=    9 SFac= 7.50D-01 NAtFMM=   80 NAOKFM=F Big=F
 One-electron integrals computed using PRISM.
 NBasis=   199 RedAO= T  NBF=   199
 NBsUse=   199 1.00D-06 NBFU=   199
 Harris functional with IExCor=  402 diagonalized for initial guess.
 ExpMin= 7.10D-03 ExpMax= 3.53D+04 ExpMxC= 5.30D+03 IAcc=3 IRadAn=         5 AccDes= 0.00D+00
 HarFok:  IExCor= 402 AccDes= 0.00D+00 IRadAn=         5 IDoV=1
 ScaDFX=  1.000000  1.000000  1.000000  1.000000
 Initial guess orbital symmetries:
       Occupied  (A) (A) (A) (A) (A) (A) (A) (A) (A) (A) (A) (A)
                 (A) (A) (A) (A) (A) (A) (A) (A) (A) (A) (A) (A)
                 (A) (A) (A) (A) (A) (A) (A) (A) (A) (A) (A) (A)
                 (A) (A) (A) (A) (A) (A) (A) (A) (A) (A) (A) (A)
                 (A) (A) (A) (A) (A) (A) (A) (A) (A)
       Virtual   (A) (A) (A) (A) (A) (A) (A) (A) (A) (A) (A) (A)
                 (A) (A) (A) (A) (A) (A) (A) (A) (A) (A) (A) (A)
                 (A) (A) (A) (A) (A) (A) (A) (A) (A) (A) (A) (A)
                 (A) (A) (A) (A) (A) (A) (A) (A) (A) (A) (A) (A)
                 (A) (A) (A) (A) (A) (A) (A) (A) (A) (A) (A) (A)
                 (A) (A) (A) (A) (A) (A) (A) (A) (A) (A) (A) (A)
                 (A) (A) (A) (A) (A) (A) (A) (A) (A) (A) (A) (A)
                 (A) (A) (A) (A) (A) (A) (A) (A) (A) (A) (A) (A)
                 (A) (A) (A) (A) (A) (A) (A) (A) (A) (A) (A) (A)
                 (A) (A) (A) (A) (A) (A) (A) (A) (A) (A) (A) (A)
                 (A) (A) (A) (A) (A) (A) (A) (A) (A) (A) (A) (A)
                 (A) (A) (A) (A) (A) (A) (A) (A) (A) (A)
 The electronic state of the initial guess is 1-A.
 Requested convergence on RMS density matrix=1.00D-04 within 128 cycles.
 Requested convergence on MAX density matrix=1.00D-02.
 Requested convergence on             energy=1.00D-02.
 No special actions if energy rises.
 EnCoef did     2 forward-backward iterations
 SCF Done:  E(RB+HF-LYP) =  -2749.99629166     A.U. after   10 cycles
             Convg  =    0.3627D-04             -V/T =  2.0029
             S**2   =   0.0000

 **********************************************************************

            Population analysis using the SCF density.

 **********************************************************************

 Orbital symmetries:
       Occupied  (A) (A) (A) (A) (A) (A) (A) (A) (A) (A) (A) (A)
                 (A) (A) (A) (A) (A) (A) (A) (A) (A) (A) (A) (A)
                 (A) (A) (A) (A) (A) (A) (A) (A) (A) (A) (A) (A)
                 (A) (A) (A) (A) (A) (A) (A) (A) (A) (A) (A) (A)
                 (A) (A) (A) (A) (A) (A) (A) (A) (A)
       Virtual   (A) (A) (A) (A) (A) (A) (A) (A) (A) (A) (A) (A)
                 (A) (A) (A) (A) (A) (A) (A) (A) (A) (A) (A) (A)
                 (A) (A) (A) (A) (A) (A) (A) (A) (A) (A) (A) (A)
                 (A) (A) (A) (A) (A) (A) (A) (A) (A) (A) (A) (A)
                 (A) (A) (A) (A) (A) (A) (A) (A) (A) (A) (A) (A)
                 (A) (A) (A) (A) (A) (A) (A) (A) (A) (A) (A) (A)
                 (A) (A) (A) (A) (A) (A) (A) (A) (A) (A) (A) (A)
                 (A) (A) (A) (A) (A) (A) (A) (A) (A) (A) (A) (A)
                 (A) (A) (A) (A) (A) (A) (A) (A) (A) (A) (A) (A)
                 (A) (A) (A) (A) (A) (A) (A) (A) (A) (A) (A) (A)
                 (A) (A) (A) (A) (A) (A) (A) (A) (A) (A) (A) (A)
                 (A) (A) (A) (A) (A) (A) (A) (A) (A) (A)
 The electronic state is 1-A.
 Alpha  occ. eigenvalues -- -145.54618-145.50463-145.47582 -77.24678 -19.30521
 Alpha  occ. eigenvalues --  -19.25391 -19.23367 -19.22927 -19.22750 -15.61535
 Alpha  occ. eigenvalues --  -15.57321 -15.54486 -12.74743 -12.74709 -12.74634
 Alpha  occ. eigenvalues --  -12.70552 -12.70536 -12.70395 -12.67721 -12.67705
 Alpha  occ. eigenvalues --  -12.67547  -6.70540  -4.86985  -4.86642  -4.86318
 Alpha  occ. eigenvalues --   -1.98515  -1.94551  -1.91771  -1.26043  -1.25811
 Alpha  occ. eigenvalues --   -1.25714  -1.22710  -1.22158  -1.22043  -1.20258
 Alpha  occ. eigenvalues --   -1.19515  -1.19355  -1.14452  -1.05842  -1.05343
 Alpha  occ. eigenvalues --   -0.91316  -0.86654  -0.66634  -0.54279  -0.52646
 Alpha  occ. eigenvalues --   -0.51653  -0.47069  -0.46245  -0.44971  -0.44731
 Alpha  occ. eigenvalues --   -0.43379  -0.41104  -0.35049  -0.34180  -0.33443
 Alpha  occ. eigenvalues --   -0.31468  -0.27466
 Alpha virt. eigenvalues --   -0.22451  -0.18634  -0.15719  -0.14495  -0.13810
 Alpha virt. eigenvalues --   -0.11988  -0.11888  -0.10291  -0.09184  -0.08749
 Alpha virt. eigenvalues --   -0.08166  -0.07471  -0.07077  -0.06402  -0.05615
 Alpha virt. eigenvalues --   -0.05508  -0.05178  -0.04983  -0.04883  -0.04583
 Alpha virt. eigenvalues --   -0.04220  -0.03850  -0.03620  -0.03428  -0.03356
 Alpha virt. eigenvalues --   -0.02958  -0.02717  -0.02180  -0.01356  -0.00504
 Alpha virt. eigenvalues --    0.00638   0.01352   0.02013   0.02938   0.03251
 Alpha virt. eigenvalues --    0.03837   0.04202   0.04456   0.04674   0.05117
 Alpha virt. eigenvalues --    0.05715   0.06107   0.06823   0.06906   0.07809
 Alpha virt. eigenvalues --    0.08415   0.08981   0.09570   0.09693   0.09964
 Alpha virt. eigenvalues --    0.11031   0.11343   0.12909   0.13825   0.15297
 Alpha virt. eigenvalues --    0.15403   0.16965   0.18824   0.19451   0.20142
 Alpha virt. eigenvalues --    0.21151   0.21713   0.23610   0.23989   0.25365
 Alpha virt. eigenvalues --    0.26101   0.26750   0.28424   0.29718   0.30216
 Alpha virt. eigenvalues --    0.32682   0.34293   0.36000   0.36260   0.37485
 Alpha virt. eigenvalues --    0.38743   0.39635   0.40988   0.45543   0.47760
 Alpha virt. eigenvalues --    0.50737   0.52148   0.55882   0.59178   0.65535
 Alpha virt. eigenvalues --    0.70926   0.72994   0.78817   0.85797   0.89215
 Alpha virt. eigenvalues --    0.97688   1.09351   1.09651   1.11691   1.12065
 Alpha virt. eigenvalues --    1.13705   1.15959   1.17294   1.17754   1.18652
 Alpha virt. eigenvalues --    1.20294   1.20879   1.22677   1.26561   1.31221
 Alpha virt. eigenvalues --    1.32218   1.46369   1.50067   1.51638   1.54102
 Alpha virt. eigenvalues --    1.55239   1.57775   1.58501   1.65130   1.69575
 Alpha virt. eigenvalues --    1.74035   1.76391   1.77331   1.78367   1.79907
 Alpha virt. eigenvalues --    1.82661   1.83992   1.84597   1.85893   1.87914
 Alpha virt. eigenvalues --    1.88803   1.93057   1.98748   2.19515   2.20362
 Alpha virt. eigenvalues --    2.23781   2.24979   2.31019   2.46205   3.03351
 Alpha virt. eigenvalues --    3.07971   3.46575   3.91914   4.01210   4.09902
 Alpha virt. eigenvalues --    4.14417   4.23051
          Condensed to atoms (all electrons):
              1          2          3          4          5          6
     1  O    8.427651   0.011047  -0.027477   0.010651   0.001775   0.000173
     2  O    0.011047   8.531277  -0.303926   0.066328  -0.012977   0.027083
     3  P   -0.027477  -0.303926  15.556348  -0.494400   0.226607  -0.020943
     4  O    0.010651   0.066328  -0.494400   9.264686  -0.088319   0.057596
     5  Ca   0.001775  -0.012977   0.226607  -0.088319  18.852577   0.009128
     6  Ca   0.000173   0.027083  -0.020943   0.057596   0.009128  18.254182
     7  O    0.005313  -0.009463  -0.022328   0.001704   0.000049   0.116899
     8  O   -0.010485   0.013930   0.020768  -0.000720   0.001242   0.105370
     9  Ca   0.140066  -0.003723  -0.037489   0.012416   0.012227  -0.018075
              7          8          9
     1  O    0.005313  -0.010485   0.140066
     2  O   -0.009463   0.013930  -0.003723
     3  P   -0.022328   0.020768  -0.037489
     4  O    0.001704  -0.000720   0.012416
     5  Ca   0.000049   0.001242   0.012227
     6  Ca   0.116899   0.105370  -0.018075
     7  O    8.510167  -0.039348   0.096233
     8  O   -0.039348   8.485016   0.085417
     9  Ca   0.096233   0.085417  18.253398
 Mulliken atomic charges:
              1
     1  O   -0.558714
     2  O   -0.319576
     3  P    0.102839
     4  O   -0.829942
     5  Ca   0.997693
     6  Ca   1.468587
     7  O   -0.659226
     8  O   -0.661189
     9  Ca   1.459530
 Sum of Mulliken charges=   1.00000
 Atomic charges with hydrogens summed into heavy atoms:
              1
     1  O   -0.558714
     2  O   -0.319576
     3  P    0.102839
     4  O   -0.829942
     5  Ca   0.997693
     6  Ca   1.468587
     7  O   -0.659226
     8  O   -0.661189
     9  Ca   1.459530
 Sum of Mulliken charges=   1.00000
 Electronic spatial extent (au):  <R**2>=  2687.7787
 Charge=     1.0000 electrons
 Dipole moment (field-independent basis, Debye):
    X=    -5.9018    Y=     5.7543    Z=    -3.2911  Tot=     8.8755
 Quadrupole moment (field-independent basis, Debye-Ang):
   XX=   -25.0011   YY=   -64.7172   ZZ=   -82.1407
   XY=   -21.0590   XZ=     5.0911   YZ=     5.6099
 Traceless Quadrupole moment (field-independent basis, Debye-Ang):
   XX=    32.2852   YY=    -7.4309   ZZ=   -24.8543
   XY=   -21.0590   XZ=     5.0911   YZ=     5.6099
 Octapole moment (field-independent basis, Debye-Ang**2):
  XXX=   -94.7510  YYY=   114.2604  ZZZ=   -12.7770  XYY=    33.1600
  XXY=   -77.4271  XXZ=   -40.0285  XZZ=     2.0923  YZZ=     3.4514
  YYZ=    -1.9566  XYZ=     9.4484
 Hexadecapole moment (field-independent basis, Debye-Ang**3):
 XXXX= -1466.5449 YYYY=  -775.6361 ZZZZ=  -248.1024 XXXY=  -261.9257
 XXXZ=    57.4636 YYYX=   -27.2613 YYYZ=    28.6648 ZZZX=     3.7101
 ZZZY=    21.3584 XXYY=  -491.6712 XXZZ=  -405.6610 YYZZ=  -183.6506
 XXYZ=    30.2454 YYXZ=     0.7675 ZZXY=   -28.8623
 N-N= 9.670777681448D+02 E-N=-8.434453753994D+03  KE= 2.742148766374D+03
 Merz-Kollman atomic radii used.
 Read replacement radii for each type of atom:
 Rad(20) =   1.188000000000D+00
 Atom Element Radius
    1     8    1.40
    2     8    1.40
    3    15    1.80
    4     8    1.40
    5    20    1.19
    6    20    1.19
    7     8    1.40
    8     8    1.40
    9    20    1.19

 **********************************************************************

            Electrostatic Properties Using The SCF Density

 **********************************************************************

       Atomic Center    1 is at   0.649293 -2.465002  0.195180
       Atomic Center    2 is at  -0.074805 -1.258670 -0.347580
       Atomic Center    3 is at  -1.120543 -0.716117  0.870430
       Atomic Center    4 is at  -1.461280  0.814433  0.193750
       Atomic Center    5 is at  -3.524832 -0.056972 -0.432690
       Atomic Center    6 is at   0.497753  2.035189  0.115190
       Atomic Center    7 is at   2.243521  1.081405 -0.887610
       Atomic Center    8 is at   2.348671  0.952824  0.672930
       Atomic Center    9 is at   2.385326 -1.091126 -0.265990
     805 points will be used for fitting atomic charges
 Fitting point charges to eletrostatic potential
 Charges from ESP fit, RMS=   0.01080 RRMS=   0.07099:
 Charge=   1.00000 Dipole=    -8.0928     5.7726    -3.7884 Tot=    10.6381
              1
     1  O   -0.583892
     2  O   -0.299276
     3  P   -0.170088
     4  O   -0.771786
     5  Ca   1.087081
     6  Ca   1.644554
     7  O   -0.824967
     8  O   -0.733016
     9  Ca   1.651390
 -----------------------------------------------------------------

              Electrostatic Properties (Atomic Units)

 -----------------------------------------------------------------
    Center     Electric         -------- Electric Field --------
               Potential          X             Y             Z
 -----------------------------------------------------------------
    1 Atom    -22.239140
    2 Atom    -22.162930
    3 Atom    -53.970645
    4 Atom    -22.209495
    5 Atom    -79.997281
    6 Atom    -80.035879
    7 Atom    -22.241140
    8 Atom    -22.244264
    9 Atom    -80.064979
 -----------------------------------------------------------------
 1\1\GINC-N034\SP\RB3LYP\6-31+G(d,p)\Ca3O5P1(1+)\TIMN\12-Jun-2015\0\\# 
 b3lyp/6-31+G(d,p) int=ultrafine pop=(ReadRadii,MK)\\mol_17.27.4.pdbcc_
 plusQ.z58516.zip.xyz\\1,1\O,0,0.6493,-2.465,0.19518\O,0,-0.0748,-1.258
 67,-0.34758\P,0,-1.12054,-0.71612,0.87043\O,0,-1.46128,0.81443,0.19375
 \Ca,0,-3.52483,-0.05698,-0.43269\Ca,0,0.49775,2.03519,0.11519\O,0,2.24
 352,1.08141,-0.88761\O,0,2.34867,0.95283,0.67293\Ca,0,2.38533,-1.09112
 ,-0.26599\\Version=EM64T-G03RevE.01\State=1-A\HF=-2749.9962917\RMSD=3.
 627e-05\Thermal=0.\Dipole=-2.3219333,2.2639259,-1.2948243\PG=C01 [X(Ca
 3O5P1)]\\@


 THERE'S NOTHING WRONG WITH FOLLOWING A TRAIN OF THOUGHT...
 AS LONG AS IT ULTIMATELY PULLS INTO THE STATION.
 Job cpu time:  0 days  0 hours  2 minutes 27.7 seconds.
 File lengths (MBytes):  RWF=     36 Int=      0 D2E=      0 Chk=     11 Scr=      1
 Normal termination of Gaussian 03 at Fri Jun 12 18:07:01 2015.
