 Entering Gaussian System, Link 0=/home/timn/tmp/g03.e01/g03
 Input=mol_17.26.17.pdbcc_plusQ.z58376.zip.xyz.gjf
 Output=mol_17.26.17.pdbcc_plusQ.z58376.zip.xyz.out
 Initial command:
 /home/timn/tmp/g03.e01/l1.exe /home/timn/tmp/g03.e01/Gau-18511.inp -scrdir=/home/timn/tmp/g03.e01/
 Default is to use a total of   2 processors:
                                2 via shared-memory
                                1 via Linda
 Entering Link 1 = /home/timn/tmp/g03.e01/l1.exe PID=     18512.
  
 Copyright (c) 1988,1990,1992,1993,1995,1998,2003,2004,2007, Gaussian, Inc.
                  All Rights Reserved.
  
 This is the Gaussian(R) 03 program.  It is based on the
 the Gaussian(R) 98 system (copyright 1998, Gaussian, Inc.),
 the Gaussian(R) 94 system (copyright 1995, Gaussian, Inc.),
 the Gaussian 92(TM) system (copyright 1992, Gaussian, Inc.),
 the Gaussian 90(TM) system (copyright 1990, Gaussian, Inc.),
 the Gaussian 88(TM) system (copyright 1988, Gaussian, Inc.),
 the Gaussian 86(TM) system (copyright 1986, Carnegie Mellon
 University), and the Gaussian 82(TM) system (copyright 1983,
 Carnegie Mellon University). Gaussian is a federally registered
 trademark of Gaussian, Inc.
  
 This software contains proprietary and confidential information,
 including trade secrets, belonging to Gaussian, Inc.
  
 This software is provided under written license and may be
 used, copied, transmitted, or stored only in accord with that
 written license.
  
 The following legend is applicable only to US Government
 contracts under FAR:
  
                    RESTRICTED RIGHTS LEGEND
  
 Use, reproduction and disclosure by the US Government is
 subject to restrictions as set forth in subparagraphs (a)
 and (c) of the Commercial Computer Software - Restricted
 Rights clause in FAR 52.227-19.
  
 Gaussian, Inc.
 340 Quinnipiac St., Bldg. 40, Wallingford CT 06492
  
  
 ---------------------------------------------------------------
 Warning -- This program may not be used in any manner that
 competes with the business of Gaussian, Inc. or will provide
 assistance to any competitor of Gaussian, Inc.  The licensee
 of this program is prohibited from giving any competitor of
 Gaussian, Inc. access to this program.  By using this program,
 the user acknowledges that Gaussian, Inc. is engaged in the
 business of creating and licensing software in the field of
 computational chemistry and represents and warrants to the
 licensee that it is not a competitor of Gaussian, Inc. and that
 it will not use this program in any manner prohibited above.
 ---------------------------------------------------------------
  

 Cite this work as:
 Gaussian 03, Revision E.01,
 M. J. Frisch, G. W. Trucks, H. B. Schlegel, G. E. Scuseria, 
 M. A. Robb, J. R. Cheeseman, J. A. Montgomery, Jr., T. Vreven, 
 K. N. Kudin, J. C. Burant, J. M. Millam, S. S. Iyengar, J. Tomasi, 
 V. Barone, B. Mennucci, M. Cossi, G. Scalmani, N. Rega, 
 G. A. Petersson, H. Nakatsuji, M. Hada, M. Ehara, K. Toyota, 
 R. Fukuda, J. Hasegawa, M. Ishida, T. Nakajima, Y. Honda, O. Kitao, 
 H. Nakai, M. Klene, X. Li, J. E. Knox, H. P. Hratchian, J. B. Cross, 
 V. Bakken, C. Adamo, J. Jaramillo, R. Gomperts, R. E. Stratmann, 
 O. Yazyev, A. J. Austin, R. Cammi, C. Pomelli, J. W. Ochterski, 
 P. Y. Ayala, K. Morokuma, G. A. Voth, P. Salvador, J. J. Dannenberg, 
 V. G. Zakrzewski, S. Dapprich, A. D. Daniels, M. C. Strain, 
 O. Farkas, D. K. Malick, A. D. Rabuck, K. Raghavachari, 
 J. B. Foresman, J. V. Ortiz, Q. Cui, A. G. Baboul, S. Clifford, 
 J. Cioslowski, B. B. Stefanov, G. Liu, A. Liashenko, P. Piskorz, 
 I. Komaromi, R. L. Martin, D. J. Fox, T. Keith, M. A. Al-Laham, 
 C. Y. Peng, A. Nanayakkara, M. Challacombe, P. M. W. Gill, 
 B. Johnson, W. Chen, M. W. Wong, C. Gonzalez, and J. A. Pople, 
 Gaussian, Inc., Wallingford CT, 2004.
 
 ******************************************
 Gaussian 03:  EM64T-G03RevE.01 11-Sep-2007
                12-Jun-2015 
 ******************************************
 %nproc=2
 Will use up to    2 processors via shared memory.
 Default route:  MP2=Direct MaxDisk=2000MB
 ----------------------------------------------------
 # b3lyp/6-31+G(d,p) int=ultrafine pop=(ReadRadii,MK)
 ----------------------------------------------------

 Warning!  SCF SP cutoffs with diffuse functions may be unreliable.
 Consider SCF=Tight

 1/38=1/1;
 2/17=6,18=5,40=1/2;
 3/5=1,6=6,7=111,11=2,16=1,25=1,30=1,74=-5,75=5/1,2,3;
 4//1;
 5/5=2,32=1,38=5/2;
 6/7=2,8=2,9=2,10=2,15=8,20=101,28=1/1,2;
 99/5=1,9=1/99;
 ---------------------------------------
 mol_17.26.17.pdbcc_plusQ.z58376.zip.xyz
 ---------------------------------------
 Symbolic Z-matrix:
 Charge =  1 Multiplicity = 1
 O                     1.83972   2.17549   0. 
 O                    -3.31969  -4.8216    0. 
 O                    -2.09687  -5.35608   0. 
 O                    -1.61116  -0.80622   0. 
 O                    -0.19365  -1.48098   0. 
 Ca                   -1.81636  -3.04882   0. 
 Ca                    0.        0.74891   0. 
 P                     0.73728   3.54593   0. 
 Ca                    3.41606   3.75623   0. 
 
                          Input orientation:                          
 ---------------------------------------------------------------------
 Center     Atomic     Atomic              Coordinates (Angstroms)
 Number     Number      Type              X           Y           Z
 ---------------------------------------------------------------------
    1          8             0        1.839720    2.175490    0.000000
    2          8             0       -3.319690   -4.821600    0.000000
    3          8             0       -2.096870   -5.356080    0.000000
    4          8             0       -1.611160   -0.806220    0.000000
    5          8             0       -0.193650   -1.480980    0.000000
    6         20             0       -1.816360   -3.048820    0.000000
    7         20             0        0.000000    0.748910    0.000000
    8         15             0        0.737280    3.545930    0.000000
    9         20             0        3.416060    3.756230    0.000000
 ---------------------------------------------------------------------
                    Distance matrix (angstroms):
                    1          2          3          4          5
     1  O    0.000000
     2  O    8.693606   0.000000
     3  O    8.498311   1.334525   0.000000
     4  O    4.560610   4.363754   4.575712   0.000000
     5  O    4.183822   4.575136   4.317250   1.569916   0.000000
     6  Ca   6.376546   2.324382   2.324249   2.251968   2.256393
     7  Ca   2.328025   6.484668   6.455057   2.239256   2.238283
     8  P    1.758829   9.299170   9.342280   4.945339   5.112382
     9  Ca   2.232395  10.906397  10.650192   6.788880   6.360690
                    6          7          8          9
     6  Ca   0.000000
     7  Ca   4.209741   0.000000
     8  P    7.071902   2.892560   0.000000
     9  Ca   8.584109   4.551202   2.687022   0.000000
 Stoichiometry    Ca3O5P(1+)
 Framework group  CS[SG(Ca3O5P)]
 Deg. of freedom    15
 Full point group                 CS
 Largest Abelian subgroup         CS      NOp   2
 Largest concise Abelian subgroup C1      NOp   1
                         Standard orientation:                         
 ---------------------------------------------------------------------
 Center     Atomic     Atomic              Coordinates (Angstroms)
 Number     Number      Type              X           Y           Z
 ---------------------------------------------------------------------
    1          8             0        1.839720    2.175488    0.000000
    2          8             0       -3.319690   -4.821602    0.000000
    3          8             0       -2.096870   -5.356082    0.000000
    4          8             0       -1.611160   -0.806222    0.000000
    5          8             0       -0.193650   -1.480982    0.000000
    6         20             0       -1.816360   -3.048822    0.000000
    7         20             0        0.000000    0.748908    0.000000
    8         15             0        0.737280    3.545928    0.000000
    9         20             0        3.416060    3.756228    0.000000
 ---------------------------------------------------------------------
 Rotational constants (GHZ):      3.8892594      0.1616213      0.1551730
 Standard basis: 6-31+G(d,p) (6D, 7F)
 There are   147 symmetry adapted basis functions of A'  symmetry.
 There are    52 symmetry adapted basis functions of A"  symmetry.
 Integral buffers will be    131072 words long.
 Raffenetti 2 integral format.
 Two-electron integral symmetry is turned on.
   199 basis functions,   456 primitive gaussians,   199 cartesian basis functions
    57 alpha electrons       57 beta electrons
       nuclear repulsion energy       812.4731301879 Hartrees.
 NAtoms=    9 NActive=    9 NUniq=    9 SFac= 7.50D-01 NAtFMM=   80 NAOKFM=F Big=F
 One-electron integrals computed using PRISM.
 NBasis=   199 RedAO= T  NBF=   147    52
 NBsUse=   199 1.00D-06 NBFU=   147    52
 Harris functional with IExCor=  402 diagonalized for initial guess.
 ExpMin= 7.10D-03 ExpMax= 3.53D+04 ExpMxC= 5.30D+03 IAcc=3 IRadAn=         5 AccDes= 0.00D+00
 HarFok:  IExCor= 402 AccDes= 0.00D+00 IRadAn=         5 IDoV=1
 ScaDFX=  1.000000  1.000000  1.000000  1.000000
 Initial guess orbital symmetries:
       Occupied  (A') (A') (A') (A') (A') (A') (A') (A') (A') (A')
                 (A') (A') (A') (A') (A") (A') (A') (A") (A') (A')
                 (A") (A') (A') (A') (A") (A') (A') (A') (A') (A')
                 (A') (A') (A') (A') (A') (A") (A") (A") (A') (A')
                 (A') (A') (A') (A') (A') (A') (A') (A") (A') (A")
                 (A") (A') (A') (A") (A') (A") (A')
       Virtual   (A") (A') (A') (A') (A') (A') (A") (A') (A") (A')
                 (A") (A') (A') (A') (A') (A') (A') (A") (A') (A")
                 (A') (A") (A') (A') (A') (A') (A') (A') (A") (A')
                 (A') (A") (A') (A') (A") (A') (A") (A') (A") (A')
                 (A") (A') (A') (A') (A") (A') (A") (A') (A") (A')
                 (A') (A") (A') (A') (A') (A") (A') (A") (A') (A')
                 (A') (A') (A') (A") (A') (A') (A') (A') (A") (A")
                 (A') (A') (A') (A') (A') (A") (A') (A') (A') (A')
                 (A') (A') (A") (A") (A') (A') (A') (A') (A') (A')
                 (A") (A') (A") (A") (A") (A') (A') (A") (A') (A')
                 (A') (A') (A') (A') (A') (A') (A') (A") (A') (A")
                 (A') (A') (A') (A") (A') (A") (A') (A") (A") (A")
                 (A') (A') (A") (A') (A') (A') (A') (A') (A") (A')
                 (A') (A') (A") (A') (A') (A') (A') (A') (A') (A')
                 (A') (A')
 The electronic state of the initial guess is 1-A'.
 Requested convergence on RMS density matrix=1.00D-04 within 128 cycles.
 Requested convergence on MAX density matrix=1.00D-02.
 Requested convergence on             energy=1.00D-02.
 No special actions if energy rises.
 EnCoef did     5 forward-backward iterations
 EnCoef did   100 forward-backward iterations
 EnCoef did   100 forward-backward iterations
 EnCoef did   100 forward-backward iterations
 EnCoef did    65 forward-backward iterations
 EnCoef did    29 forward-backward iterations
 EnCoef did    22 forward-backward iterations
 EnCoef did   100 forward-backward iterations
 EnCoef did    73 forward-backward iterations
 Rare condition: small coef for last iteration:  0.000D+00
 EnCoef did    43 forward-backward iterations
 EnCoef did    10 forward-backward iterations
 EnCoef did    35 forward-backward iterations
 SCF Done:  E(RB+HF-LYP) =  -2749.90312021     A.U. after   18 cycles
             Convg  =    0.2840D-04             -V/T =  2.0028
             S**2   =   0.0000

 **********************************************************************

            Population analysis using the SCF density.

 **********************************************************************

 Orbital symmetries:
       Occupied  (A') (A') (A') (A') (A') (A') (A') (A') (A') (A')
                 (A') (A') (A") (A') (A') (A") (A') (A') (A") (A')
                 (A') (A') (A') (A") (A') (A') (A') (A') (A") (A')
                 (A') (A') (A') (A") (A') (A") (A') (A') (A') (A')
                 (A') (A') (A') (A') (A') (A") (A') (A') (A") (A')
                 (A') (A") (A') (A') (A') (A") (A")
       Virtual   (A") (A') (A') (A") (A') (A') (A') (A') (A') (A")
                 (A') (A") (A') (A') (A") (A') (A') (A') (A") (A')
                 (A') (A') (A") (A') (A') (A") (A') (A') (A') (A')
                 (A") (A') (A') (A") (A') (A") (A') (A') (A') (A")
                 (A') (A") (A') (A') (A") (A') (A") (A") (A') (A')
                 (A') (A") (A') (A') (A") (A') (A') (A') (A") (A')
                 (A') (A') (A") (A') (A') (A') (A") (A') (A') (A")
                 (A') (A') (A') (A') (A") (A') (A') (A') (A') (A')
                 (A') (A') (A") (A") (A') (A') (A') (A') (A') (A')
                 (A') (A") (A") (A") (A') (A") (A') (A") (A') (A')
                 (A') (A') (A') (A') (A') (A') (A') (A") (A') (A')
                 (A") (A') (A') (A") (A') (A") (A') (A") (A") (A')
                 (A") (A') (A") (A') (A') (A') (A') (A') (A") (A')
                 (A') (A') (A") (A') (A') (A') (A') (A') (A') (A')
                 (A') (A')
 The electronic state is 1-A'.
 Alpha  occ. eigenvalues -- -145.58843-145.47661-145.46107 -77.19991 -19.29089
 Alpha  occ. eigenvalues --  -19.28937 -19.25472 -19.22853 -19.22785 -15.65679
 Alpha  occ. eigenvalues --  -15.54555 -15.53031 -12.78908 -12.78857 -12.78793
 Alpha  occ. eigenvalues --  -12.67843 -12.67750 -12.67601 -12.66324 -12.66224
 Alpha  occ. eigenvalues --  -12.66069  -6.66578  -4.83024  -4.82616  -4.82333
 Alpha  occ. eigenvalues --   -2.02558  -1.91847  -1.90382  -1.30082  -1.29788
 Alpha  occ. eigenvalues --   -1.29702  -1.22308  -1.19881  -1.19869  -1.19353
 Alpha  occ. eigenvalues --   -1.18449  -1.17938  -1.16232  -1.05566  -1.04195
 Alpha  occ. eigenvalues --   -0.86596  -0.84524  -0.64793  -0.52737  -0.50390
 Alpha  occ. eigenvalues --   -0.49687  -0.48761  -0.46244  -0.45651  -0.45563
 Alpha  occ. eigenvalues --   -0.44849  -0.43429  -0.34940  -0.31913  -0.31219
 Alpha  occ. eigenvalues --   -0.30891  -0.26515
 Alpha virt. eigenvalues --   -0.25361  -0.25091  -0.15906  -0.15804  -0.15138
 Alpha virt. eigenvalues --   -0.12980  -0.11505  -0.11046  -0.09789  -0.09606
 Alpha virt. eigenvalues --   -0.08062  -0.07141  -0.06409  -0.05876  -0.05795
 Alpha virt. eigenvalues --   -0.05450  -0.05078  -0.04381  -0.04188  -0.03934
 Alpha virt. eigenvalues --   -0.03535  -0.03351  -0.02891  -0.02836  -0.02069
 Alpha virt. eigenvalues --   -0.01941  -0.01864  -0.01642  -0.00827   0.00379
 Alpha virt. eigenvalues --    0.00412   0.01080   0.01782   0.02036   0.02364
 Alpha virt. eigenvalues --    0.02559   0.03454   0.04107   0.04562   0.04878
 Alpha virt. eigenvalues --    0.05794   0.06162   0.06579   0.07938   0.08311
 Alpha virt. eigenvalues --    0.08490   0.08759   0.09514   0.09701   0.09972
 Alpha virt. eigenvalues --    0.10064   0.10585   0.14163   0.15253   0.16111
 Alpha virt. eigenvalues --    0.16236   0.16899   0.17211   0.17961   0.19234
 Alpha virt. eigenvalues --    0.19511   0.19714   0.20644   0.21263   0.21580
 Alpha virt. eigenvalues --    0.22569   0.22982   0.26432   0.26797   0.28482
 Alpha virt. eigenvalues --    0.29076   0.34274   0.34915   0.36248   0.36797
 Alpha virt. eigenvalues --    0.37857   0.38960   0.39679   0.42011   0.43911
 Alpha virt. eigenvalues --    0.45350   0.47342   0.59152   0.61021   0.65401
 Alpha virt. eigenvalues --    0.68699   0.76643   0.78326   0.85722   0.92004
 Alpha virt. eigenvalues --    1.04502   1.06241   1.07491   1.07871   1.08227
 Alpha virt. eigenvalues --    1.09487   1.11815   1.11951   1.12703   1.14958
 Alpha virt. eigenvalues --    1.16508   1.21374   1.24414   1.25925   1.33671
 Alpha virt. eigenvalues --    1.37454   1.40035   1.45221   1.46493   1.49104
 Alpha virt. eigenvalues --    1.51530   1.54263   1.58901   1.60866   1.61327
 Alpha virt. eigenvalues --    1.70806   1.74117   1.76658   1.77220   1.78378
 Alpha virt. eigenvalues --    1.80344   1.83441   1.85404   1.88335   1.94859
 Alpha virt. eigenvalues --    1.96855   2.01094   2.15032   2.19104   2.19631
 Alpha virt. eigenvalues --    2.24654   2.28118   2.41391   2.45309   3.01415
 Alpha virt. eigenvalues --    3.04552   3.39810   3.85397   3.94167   4.01626
 Alpha virt. eigenvalues --    4.08138   4.20922
          Condensed to atoms (all electrons):
              1          2          3          4          5          6
     1  O    8.944955   0.000000  -0.000001  -0.000815   0.003341   0.003254
     2  O    0.000000   8.127197   0.075427   0.004219  -0.003678   0.089791
     3  O   -0.000001   0.075427   8.129486  -0.003545   0.004183   0.095815
     4  O   -0.000815   0.004219  -0.003545   8.493450  -0.062857   0.104271
     5  O    0.003341  -0.003678   0.004183  -0.062857   8.523966   0.095318
     6  Ca   0.003254   0.089791   0.095815   0.104271   0.095318  18.320653
     7  Ca   0.068595   0.006206   0.002922   0.117005   0.096684  -0.055290
     8  P   -0.321377  -0.000015   0.000006  -0.000652   0.006652  -0.013528
     9  Ca   0.042999   0.000871  -0.000855  -0.001180   0.002253  -0.014765
              7          8          9
     1  O    0.068595  -0.321377   0.042999
     2  O    0.006206  -0.000015   0.000871
     3  O    0.002922   0.000006  -0.000855
     4  O    0.117005  -0.000652  -0.001180
     5  O    0.096684   0.006652   0.002253
     6  Ca  -0.055290  -0.013528  -0.014765
     7  Ca  18.310156   0.092522  -0.011921
     8  P    0.092522  15.346950   0.285362
     9  Ca  -0.011921   0.285362  18.388754
 Mulliken atomic charges:
              1
     1  O   -0.740951
     2  O   -0.300018
     3  O   -0.303438
     4  O   -0.649897
     5  O   -0.665861
     6  Ca   1.374481
     7  Ca   1.373122
     8  P   -0.395919
     9  Ca   1.308481
 Sum of Mulliken charges=   1.00000
 Atomic charges with hydrogens summed into heavy atoms:
              1
     1  O   -0.740951
     2  O   -0.300018
     3  O   -0.303438
     4  O   -0.649897
     5  O   -0.665861
     6  Ca   1.374481
     7  Ca   1.373122
     8  P   -0.395919
     9  Ca   1.308481
 Sum of Mulliken charges=   1.00000
 Electronic spatial extent (au):  <R**2>=  5909.6366
 Charge=     1.0000 electrons
 Dipole moment (field-independent basis, Debye):
    X=    16.5511    Y=    15.8943    Z=     0.0000  Tot=    22.9470
 Quadrupole moment (field-independent basis, Debye-Ang):
   XX=   -19.4347   YY=   -56.9806   ZZ=   -76.5901
   XY=    55.1545   XZ=     0.0000   YZ=     0.0000
 Traceless Quadrupole moment (field-independent basis, Debye-Ang):
   XX=    31.5671   YY=    -5.9788   ZZ=   -25.5882
   XY=    55.1545   XZ=     0.0000   YZ=     0.0000
 Octapole moment (field-independent basis, Debye-Ang**2):
  XXX=   319.3066  YYY=   371.6546  ZZZ=     0.0000  XYY=   353.7619
  XXY=   314.3152  XXZ=     0.0000  XZZ=     0.8923  YZZ=   -19.7499
  YYZ=     0.0000  XYZ=     0.0000
 Hexadecapole moment (field-independent basis, Debye-Ang**3):
 XXXX= -1023.5652 YYYY= -5736.6901 ZZZZ=   -97.2519 XXXY=  -493.2134
 XXXZ=     0.0000 YYYX= -1030.6842 YYYZ=     0.0000 ZZZX=     0.0000
 ZZZY=     0.0000 XXYY=  -460.6860 XXZZ=  -312.8500 YYZZ=  -830.3188
 XXYZ=     0.0000 YYXZ=     0.0000 ZZXY=  -414.0631
 N-N= 8.124731301879D+02 E-N=-8.125591904203D+03  KE= 2.742171361621D+03
 Symmetry A'   KE= 2.475391907423D+03
 Symmetry A"   KE= 2.667794541982D+02
 Merz-Kollman atomic radii used.
 Read replacement radii for each type of atom:
 Rad(20) =   1.188000000000D+00
 Atom Element Radius
    1     8    1.40
    2     8    1.40
    3     8    1.40
    4     8    1.40
    5     8    1.40
    6    20    1.19
    7    20    1.19
    8    15    1.80
    9    20    1.19

 **********************************************************************

            Electrostatic Properties Using The SCF Density

 **********************************************************************

       Atomic Center    1 is at   1.839720  2.175488  0.000000
       Atomic Center    2 is at  -3.319690 -4.821602  0.000000
       Atomic Center    3 is at  -2.096870 -5.356082  0.000000
       Atomic Center    4 is at  -1.611160 -0.806222  0.000000
       Atomic Center    5 is at  -0.193650 -1.480982  0.000000
       Atomic Center    6 is at  -1.816360 -3.048822  0.000000
       Atomic Center    7 is at   0.000000  0.748908  0.000000
       Atomic Center    8 is at   0.737280  3.545928  0.000000
       Atomic Center    9 is at   3.416060  3.756228  0.000000
     998 points will be used for fitting atomic charges
 Fitting point charges to eletrostatic potential
 Charges from ESP fit, RMS=   0.00721 RRMS=   0.05194:
 Charge=   1.00000 Dipole=    17.2379    16.5927     0.0000 Tot=    23.9262
              1
     1  O   -0.814174
     2  O   -0.360393
     3  O   -0.369781
     4  O   -0.854761
     5  O   -0.872229
     6  Ca   1.669349
     7  Ca   1.760010
     8  P   -0.643850
     9  Ca   1.485828
 -----------------------------------------------------------------

              Electrostatic Properties (Atomic Units)

 -----------------------------------------------------------------
    Center     Electric         -------- Electric Field --------
               Potential          X             Y             Z
 -----------------------------------------------------------------
    1 Atom    -22.192612
    2 Atom    -22.211587
    3 Atom    -22.216457
    4 Atom    -22.241615
    5 Atom    -22.240685
    6 Atom    -80.086357
    7 Atom    -80.059145
    8 Atom    -53.998808
    9 Atom    -79.946490
 -----------------------------------------------------------------
 1\1\GINC-N021\SP\RB3LYP\6-31+G(d,p)\Ca3O5P1(1+)\TIMN\12-Jun-2015\0\\# 
 b3lyp/6-31+G(d,p) int=ultrafine pop=(ReadRadii,MK)\\mol_17.26.17.pdbcc
 _plusQ.z58376.zip.xyz\\1,1\O,0,1.83972,2.17549,0.\O,0,-3.31969,-4.8216
 ,0.\O,0,-2.09687,-5.35608,0.\O,0,-1.61116,-0.80622,0.\O,0,-0.19365,-1.
 48098,0.\Ca,0,-1.81636,-3.04882,0.\Ca,0,0.,0.74891,0.\P,0,0.73728,3.54
 593,0.\Ca,0,3.41606,3.75623,0.\\Version=EM64T-G03RevE.01\State=1-A'\HF
 =-2749.9031202\RMSD=2.840e-05\Thermal=0.\Dipole=6.5116873,6.2532887,0.
 \PG=CS [SG(Ca3O5P1)]\\@


 THE MORE PROGRESS PHYSICAL SCIENCES MAKE, THE MORE THEY TEND TO ENTER
 THE DOMAIN OF MATHEMATICS, WHICH IS A KIND OF CENTRE TO WHICH THEY ALL
 CONVERGE.  WE MAY EVEN JUDGE THE DEGREE OF PERFECTION TO WHICH A 
 SCIENCE HAS ARRIVED BY THE FACILITY WITH WHICH IT MAY BE SUBMITTED
 TO CALCULATION.

                               -- ADOLPHE QUETELET, 1796-1874
 Job cpu time:  0 days  0 hours  2 minutes 29.1 seconds.
 File lengths (MBytes):  RWF=     36 Int=      0 D2E=      0 Chk=     11 Scr=      1
 Normal termination of Gaussian 03 at Fri Jun 12 18:00:21 2015.
