 Entering Gaussian System, Link 0=/home/timn/tmp/g03.e01/g03
 Input=mol_17.23.50.pdbccc_plusQ.z58251.zip.xyz.gjf
 Output=mol_17.23.50.pdbccc_plusQ.z58251.zip.xyz.out
 Initial command:
 /home/timn/tmp/g03.e01/l1.exe /home/timn/tmp/g03.e01/Gau-12660.inp -scrdir=/home/timn/tmp/g03.e01/
 Default is to use a total of   2 processors:
                                2 via shared-memory
                                1 via Linda
 Entering Link 1 = /home/timn/tmp/g03.e01/l1.exe PID=     12661.
  
 Copyright (c) 1988,1990,1992,1993,1995,1998,2003,2004,2007, Gaussian, Inc.
                  All Rights Reserved.
  
 This is the Gaussian(R) 03 program.  It is based on the
 the Gaussian(R) 98 system (copyright 1998, Gaussian, Inc.),
 the Gaussian(R) 94 system (copyright 1995, Gaussian, Inc.),
 the Gaussian 92(TM) system (copyright 1992, Gaussian, Inc.),
 the Gaussian 90(TM) system (copyright 1990, Gaussian, Inc.),
 the Gaussian 88(TM) system (copyright 1988, Gaussian, Inc.),
 the Gaussian 86(TM) system (copyright 1986, Carnegie Mellon
 University), and the Gaussian 82(TM) system (copyright 1983,
 Carnegie Mellon University). Gaussian is a federally registered
 trademark of Gaussian, Inc.
  
 This software contains proprietary and confidential information,
 including trade secrets, belonging to Gaussian, Inc.
  
 This software is provided under written license and may be
 used, copied, transmitted, or stored only in accord with that
 written license.
  
 The following legend is applicable only to US Government
 contracts under FAR:
  
                    RESTRICTED RIGHTS LEGEND
  
 Use, reproduction and disclosure by the US Government is
 subject to restrictions as set forth in subparagraphs (a)
 and (c) of the Commercial Computer Software - Restricted
 Rights clause in FAR 52.227-19.
  
 Gaussian, Inc.
 340 Quinnipiac St., Bldg. 40, Wallingford CT 06492
  
  
 ---------------------------------------------------------------
 Warning -- This program may not be used in any manner that
 competes with the business of Gaussian, Inc. or will provide
 assistance to any competitor of Gaussian, Inc.  The licensee
 of this program is prohibited from giving any competitor of
 Gaussian, Inc. access to this program.  By using this program,
 the user acknowledges that Gaussian, Inc. is engaged in the
 business of creating and licensing software in the field of
 computational chemistry and represents and warrants to the
 licensee that it is not a competitor of Gaussian, Inc. and that
 it will not use this program in any manner prohibited above.
 ---------------------------------------------------------------
  

 Cite this work as:
 Gaussian 03, Revision E.01,
 M. J. Frisch, G. W. Trucks, H. B. Schlegel, G. E. Scuseria, 
 M. A. Robb, J. R. Cheeseman, J. A. Montgomery, Jr., T. Vreven, 
 K. N. Kudin, J. C. Burant, J. M. Millam, S. S. Iyengar, J. Tomasi, 
 V. Barone, B. Mennucci, M. Cossi, G. Scalmani, N. Rega, 
 G. A. Petersson, H. Nakatsuji, M. Hada, M. Ehara, K. Toyota, 
 R. Fukuda, J. Hasegawa, M. Ishida, T. Nakajima, Y. Honda, O. Kitao, 
 H. Nakai, M. Klene, X. Li, J. E. Knox, H. P. Hratchian, J. B. Cross, 
 V. Bakken, C. Adamo, J. Jaramillo, R. Gomperts, R. E. Stratmann, 
 O. Yazyev, A. J. Austin, R. Cammi, C. Pomelli, J. W. Ochterski, 
 P. Y. Ayala, K. Morokuma, G. A. Voth, P. Salvador, J. J. Dannenberg, 
 V. G. Zakrzewski, S. Dapprich, A. D. Daniels, M. C. Strain, 
 O. Farkas, D. K. Malick, A. D. Rabuck, K. Raghavachari, 
 J. B. Foresman, J. V. Ortiz, Q. Cui, A. G. Baboul, S. Clifford, 
 J. Cioslowski, B. B. Stefanov, G. Liu, A. Liashenko, P. Piskorz, 
 I. Komaromi, R. L. Martin, D. J. Fox, T. Keith, M. A. Al-Laham, 
 C. Y. Peng, A. Nanayakkara, M. Challacombe, P. M. W. Gill, 
 B. Johnson, W. Chen, M. W. Wong, C. Gonzalez, and J. A. Pople, 
 Gaussian, Inc., Wallingford CT, 2004.
 
 ******************************************
 Gaussian 03:  EM64T-G03RevE.01 11-Sep-2007
                12-Jun-2015 
 ******************************************
 %nproc=2
 Will use up to    2 processors via shared memory.
 Default route:  MP2=Direct MaxDisk=2000MB
 ----------------------------------------------------
 # b3lyp/6-31+G(d,p) int=ultrafine pop=(ReadRadii,MK)
 ----------------------------------------------------

 Warning!  SCF SP cutoffs with diffuse functions may be unreliable.
 Consider SCF=Tight

 1/38=1/1;
 2/17=6,18=5,40=1/2;
 3/5=1,6=6,7=111,11=2,16=1,25=1,30=1,74=-5,75=5/1,2,3;
 4//1;
 5/5=2,32=1,38=5/2;
 6/7=2,8=2,9=2,10=2,15=8,20=101,28=1/1,2;
 99/5=1,9=1/99;
 ----------------------------------------
 mol_17.23.50.pdbccc_plusQ.z58251.zip.xyz
 ----------------------------------------
 Symbolic Z-matrix:
 Charge =  1 Multiplicity = 1
 O                    -1.86738  -1.57024  -0.00162 
 P                    -3.30662  -1.02306  -0.01839 
 Ca                    0.43602  -1.34749   0.02627 
 O                    -3.26045   0.52866  -0.01205 
 Ca                   -1.48366   1.93026   0.00627 
 Ca                    2.76604   1.0049   -0.00808 
 O                     0.47232   1.01685   0.01831 
 O                     2.55414  -1.21515  -0.00756 
 O                     4.00529  -0.81106  -0.02375 
 
                          Input orientation:                          
 ---------------------------------------------------------------------
 Center     Atomic     Atomic              Coordinates (Angstroms)
 Number     Number      Type              X           Y           Z
 ---------------------------------------------------------------------
    1          8             0       -1.867380   -1.570240   -0.001620
    2         15             0       -3.306620   -1.023060   -0.018390
    3         20             0        0.436020   -1.347490    0.026270
    4          8             0       -3.260450    0.528660   -0.012050
    5         20             0       -1.483660    1.930260    0.006270
    6         20             0        2.766040    1.004900   -0.008080
    7          8             0        0.472320    1.016850    0.018310
    8          8             0        2.554140   -1.215150   -0.007560
    9          8             0        4.005290   -0.811060   -0.023750
 ---------------------------------------------------------------------
                    Distance matrix (angstroms):
                    1          2          3          4          5
     1  O    0.000000
     2  P    1.539837   0.000000
     3  Ca   2.314313   3.756941   0.000000
     4  O    2.519153   1.552420   4.145515   0.000000
     5  Ca   3.521477   3.470719   3.798581   2.263140   0.000000
     6  Ca   5.300940   6.402338   3.311180   6.045279   4.349304
     7  O    3.488213   4.294528   2.364632   3.764681   2.158778
     8  O    4.435760   5.863917   2.122520   6.070449   5.118361
     9  O    5.921579   7.314985   3.609702   7.388231   6.135496
                    6          7          8          9
     6  Ca   0.000000
     7  O    2.293903   0.000000
     8  O    2.230140   3.052289   0.000000
     9  O    2.198567   3.978052   1.506449   0.000000
 Stoichiometry    Ca3O5P(1+)
 Framework group  C1[X(Ca3O5P)]
 Deg. of freedom    21
 Full point group                 C1
 Largest Abelian subgroup         C1      NOp   1
 Largest concise Abelian subgroup C1      NOp   1
                         Standard orientation:                         
 ---------------------------------------------------------------------
 Center     Atomic     Atomic              Coordinates (Angstroms)
 Number     Number      Type              X           Y           Z
 ---------------------------------------------------------------------
    1          8             0       -1.867382   -1.570238   -0.001620
    2         15             0       -3.306622   -1.023056   -0.018390
    3         20             0        0.436018   -1.347490    0.026270
    4          8             0       -3.260450    0.528664   -0.012050
    5         20             0       -1.483658    1.930262    0.006270
    6         20             0        2.766041    1.004897   -0.008080
    7          8             0        0.472321    1.016850    0.018310
    8          8             0        2.554138   -1.215153   -0.007560
    9          8             0        4.005289   -0.811064   -0.023750
 ---------------------------------------------------------------------
 Rotational constants (GHZ):      1.2996369      0.3798925      0.2939852
 Standard basis: 6-31+G(d,p) (6D, 7F)
 There are   199 symmetry adapted basis functions of A   symmetry.
 Integral buffers will be    131072 words long.
 Raffenetti 2 integral format.
 Two-electron integral symmetry is turned on.
   199 basis functions,   456 primitive gaussians,   199 cartesian basis functions
    57 alpha electrons       57 beta electrons
       nuclear repulsion energy       925.8512179280 Hartrees.
 NAtoms=    9 NActive=    9 NUniq=    9 SFac= 7.50D-01 NAtFMM=   80 NAOKFM=F Big=F
 One-electron integrals computed using PRISM.
 NBasis=   199 RedAO= T  NBF=   199
 NBsUse=   199 1.00D-06 NBFU=   199
 Harris functional with IExCor=  402 diagonalized for initial guess.
 ExpMin= 7.10D-03 ExpMax= 3.53D+04 ExpMxC= 5.30D+03 IAcc=3 IRadAn=         5 AccDes= 0.00D+00
 HarFok:  IExCor= 402 AccDes= 0.00D+00 IRadAn=         5 IDoV=1
 ScaDFX=  1.000000  1.000000  1.000000  1.000000
 Initial guess orbital symmetries:
       Occupied  (A) (A) (A) (A) (A) (A) (A) (A) (A) (A) (A) (A)
                 (A) (A) (A) (A) (A) (A) (A) (A) (A) (A) (A) (A)
                 (A) (A) (A) (A) (A) (A) (A) (A) (A) (A) (A) (A)
                 (A) (A) (A) (A) (A) (A) (A) (A) (A) (A) (A) (A)
                 (A) (A) (A) (A) (A) (A) (A) (A) (A)
       Virtual   (A) (A) (A) (A) (A) (A) (A) (A) (A) (A) (A) (A)
                 (A) (A) (A) (A) (A) (A) (A) (A) (A) (A) (A) (A)
                 (A) (A) (A) (A) (A) (A) (A) (A) (A) (A) (A) (A)
                 (A) (A) (A) (A) (A) (A) (A) (A) (A) (A) (A) (A)
                 (A) (A) (A) (A) (A) (A) (A) (A) (A) (A) (A) (A)
                 (A) (A) (A) (A) (A) (A) (A) (A) (A) (A) (A) (A)
                 (A) (A) (A) (A) (A) (A) (A) (A) (A) (A) (A) (A)
                 (A) (A) (A) (A) (A) (A) (A) (A) (A) (A) (A) (A)
                 (A) (A) (A) (A) (A) (A) (A) (A) (A) (A) (A) (A)
                 (A) (A) (A) (A) (A) (A) (A) (A) (A) (A) (A) (A)
                 (A) (A) (A) (A) (A) (A) (A) (A) (A) (A) (A) (A)
                 (A) (A) (A) (A) (A) (A) (A) (A) (A) (A)
 The electronic state of the initial guess is 1-A.
 Requested convergence on RMS density matrix=1.00D-04 within 128 cycles.
 Requested convergence on MAX density matrix=1.00D-02.
 Requested convergence on             energy=1.00D-02.
 No special actions if energy rises.
 EnCoef did     1 forward-backward iterations
 SCF Done:  E(RB+HF-LYP) =  -2750.16980245     A.U. after    8 cycles
             Convg  =    0.6152D-04             -V/T =  2.0029
             S**2   =   0.0000

 **********************************************************************

            Population analysis using the SCF density.

 **********************************************************************

 Orbital symmetries:
       Occupied  (A) (A) (A) (A) (A) (A) (A) (A) (A) (A) (A) (A)
                 (A) (A) (A) (A) (A) (A) (A) (A) (A) (A) (A) (A)
                 (A) (A) (A) (A) (A) (A) (A) (A) (A) (A) (A) (A)
                 (A) (A) (A) (A) (A) (A) (A) (A) (A) (A) (A) (A)
                 (A) (A) (A) (A) (A) (A) (A) (A) (A)
       Virtual   (A) (A) (A) (A) (A) (A) (A) (A) (A) (A) (A) (A)
                 (A) (A) (A) (A) (A) (A) (A) (A) (A) (A) (A) (A)
                 (A) (A) (A) (A) (A) (A) (A) (A) (A) (A) (A) (A)
                 (A) (A) (A) (A) (A) (A) (A) (A) (A) (A) (A) (A)
                 (A) (A) (A) (A) (A) (A) (A) (A) (A) (A) (A) (A)
                 (A) (A) (A) (A) (A) (A) (A) (A) (A) (A) (A) (A)
                 (A) (A) (A) (A) (A) (A) (A) (A) (A) (A) (A) (A)
                 (A) (A) (A) (A) (A) (A) (A) (A) (A) (A) (A) (A)
                 (A) (A) (A) (A) (A) (A) (A) (A) (A) (A) (A) (A)
                 (A) (A) (A) (A) (A) (A) (A) (A) (A) (A) (A) (A)
                 (A) (A) (A) (A) (A) (A) (A) (A) (A) (A) (A) (A)
                 (A) (A) (A) (A) (A) (A) (A) (A) (A) (A)
 The electronic state is 1-A.
 Alpha  occ. eigenvalues -- -145.54724-145.47740-145.47165 -77.30603 -19.28683
 Alpha  occ. eigenvalues --  -19.28354 -19.19430 -19.18967 -19.16981 -15.61612
 Alpha  occ. eigenvalues --  -15.54549 -15.54095 -12.74868 -12.74813 -12.74659
 Alpha  occ. eigenvalues --  -12.67829 -12.67730 -12.67628 -12.67364 -12.67279
 Alpha  occ. eigenvalues --  -12.67134  -6.76163  -4.92603  -4.92377  -4.91936
 Alpha  occ. eigenvalues --   -1.98798  -1.91839  -1.91451  -1.26644  -1.26486
 Alpha  occ. eigenvalues --   -1.25669  -1.20205  -1.19842  -1.19414  -1.19307
 Alpha  occ. eigenvalues --   -1.19003  -1.18340  -1.14590  -1.09062  -1.02258
 Alpha  occ. eigenvalues --   -0.93942  -0.80783  -0.68242  -0.57730  -0.53571
 Alpha  occ. eigenvalues --   -0.53375  -0.46355  -0.44397  -0.43739  -0.41826
 Alpha  occ. eigenvalues --   -0.40702  -0.39334  -0.39146  -0.38606  -0.37793
 Alpha  occ. eigenvalues --   -0.26930  -0.25202
 Alpha virt. eigenvalues --   -0.22468  -0.20539  -0.17849  -0.15393  -0.14390
 Alpha virt. eigenvalues --   -0.12331  -0.11543  -0.10287  -0.09486  -0.08526
 Alpha virt. eigenvalues --   -0.08073  -0.07361  -0.06894  -0.06386  -0.05911
 Alpha virt. eigenvalues --   -0.05740  -0.05257  -0.05047  -0.04326  -0.04234
 Alpha virt. eigenvalues --   -0.03881  -0.03851  -0.03476  -0.03062  -0.03002
 Alpha virt. eigenvalues --   -0.02841  -0.02478  -0.01942  -0.00903   0.00276
 Alpha virt. eigenvalues --    0.01190   0.01214   0.02442   0.02921   0.03377
 Alpha virt. eigenvalues --    0.03514   0.03777   0.04775   0.04966   0.05345
 Alpha virt. eigenvalues --    0.05857   0.06174   0.06714   0.06862   0.07285
 Alpha virt. eigenvalues --    0.08494   0.09857   0.09889   0.11265   0.11358
 Alpha virt. eigenvalues --    0.12589   0.14423   0.14628   0.15262   0.16337
 Alpha virt. eigenvalues --    0.16801   0.17753   0.19037   0.19760   0.19972
 Alpha virt. eigenvalues --    0.20258   0.22490   0.24164   0.25289   0.25698
 Alpha virt. eigenvalues --    0.26129   0.28320   0.29559   0.30238   0.31699
 Alpha virt. eigenvalues --    0.31834   0.32599   0.36131   0.37945   0.38865
 Alpha virt. eigenvalues --    0.40157   0.41583   0.44477   0.47098   0.51437
 Alpha virt. eigenvalues --    0.54576   0.55544   0.57397   0.61112   0.65975
 Alpha virt. eigenvalues --    0.73289   0.82510   0.90153   0.95573   1.01413
 Alpha virt. eigenvalues --    1.05542   1.08139   1.08317   1.08816   1.11542
 Alpha virt. eigenvalues --    1.11826   1.16138   1.17016   1.19565   1.20758
 Alpha virt. eigenvalues --    1.21842   1.24189   1.25646   1.31182   1.32924
 Alpha virt. eigenvalues --    1.38410   1.41185   1.47994   1.51905   1.56361
 Alpha virt. eigenvalues --    1.59841   1.62109   1.65214   1.65887   1.69883
 Alpha virt. eigenvalues --    1.73865   1.74927   1.76862   1.78097   1.80542
 Alpha virt. eigenvalues --    1.83854   1.84474   1.84603   1.86023   1.87969
 Alpha virt. eigenvalues --    1.88979   1.92822   1.97575   2.00733   2.10412
 Alpha virt. eigenvalues --    2.15151   2.30806   2.33524   2.52657   2.67867
 Alpha virt. eigenvalues --    3.13989   3.38967   3.83238   3.88878   3.91445
 Alpha virt. eigenvalues --    4.01058   4.20005
          Condensed to atoms (all electrons):
              1          2          3          4          5          6
     1  O    8.816309  -0.111729   0.053472  -0.076480   0.002128   0.008679
     2  P   -0.111729  14.547438   0.008572  -0.072171  -0.033749  -0.012171
     3  Ca   0.053472   0.008572  18.363121  -0.001021  -0.019507  -0.030397
     4  O   -0.076480  -0.072171  -0.001021   8.775603   0.087111   0.003113
     5  Ca   0.002128  -0.033749  -0.019507   0.087111  18.244006  -0.006052
     6  Ca   0.008679  -0.012171  -0.030397   0.003113  -0.006052  18.315212
     7  O   -0.010018  -0.006554   0.061106   0.003344   0.178712   0.091304
     8  O   -0.000217   0.000519   0.196900   0.000110   0.000777   0.058180
     9  O    0.000316   0.000120  -0.032232   0.000004   0.004194   0.177814
              7          8          9
     1  O   -0.010018  -0.000217   0.000316
     2  P   -0.006554   0.000519   0.000120
     3  Ca   0.061106   0.196900  -0.032232
     4  O    0.003344   0.000110   0.000004
     5  Ca   0.178712   0.000777   0.004194
     6  Ca   0.091304   0.058180   0.177814
     7  O    9.062962  -0.011949   0.009734
     8  O   -0.011949   8.433038  -0.066269
     9  O    0.009734  -0.066269   8.530922
 Mulliken atomic charges:
              1
     1  O   -0.682461
     2  P    0.679726
     3  Ca   1.399984
     4  O   -0.719614
     5  Ca   1.542379
     6  Ca   1.394317
     7  O   -1.378640
     8  O   -0.611089
     9  O   -0.624603
 Sum of Mulliken charges=   1.00000
 Atomic charges with hydrogens summed into heavy atoms:
              1
     1  O   -0.682461
     2  P    0.679726
     3  Ca   1.399984
     4  O   -0.719614
     5  Ca   1.542379
     6  Ca   1.394317
     7  O   -1.378640
     8  O   -0.611089
     9  O   -0.624603
 Sum of Mulliken charges=   1.00000
 Electronic spatial extent (au):  <R**2>=  3203.8386
 Charge=     1.0000 electrons
 Dipole moment (field-independent basis, Debye):
    X=    -6.1420    Y=    12.5501    Z=     0.1515  Tot=    13.9733
 Quadrupole moment (field-independent basis, Debye-Ang):
   XX=   -89.9349   YY=   -43.3906   ZZ=   -73.1777
   XY=    16.8776   XZ=     0.1229   YZ=    -0.4210
 Traceless Quadrupole moment (field-independent basis, Debye-Ang):
   XX=   -21.1005   YY=    25.4438   ZZ=    -4.3433
   XY=    16.8776   XZ=     0.1229   YZ=    -0.4210
 Octapole moment (field-independent basis, Debye-Ang**2):
  XXX=   -68.9330  YYY=    87.0100  ZZZ=     0.3844  XYY=   -24.1389
  XXY=   136.9792  XXZ=     1.1773  XZZ=    -1.4497  YZZ=     8.9850
  YYZ=     0.5648  XYZ=    -0.9216
 Hexadecapole moment (field-independent basis, Debye-Ang**3):
 XXXX= -3471.5823 YYYY=  -625.4888 ZZZZ=   -81.0877 XXXY=   432.2815
 XXXZ=     2.3514 YYYX=   -79.5004 YYYZ=    -1.3754 ZZZX=     0.0212
 ZZZY=    -0.9347 XXYY=  -548.8783 XXZZ=  -485.1108 YYZZ=  -135.3985
 XXYZ=    -1.1547 YYXZ=    -0.3665 ZZXY=     3.7984
 N-N= 9.258512179280D+02 E-N=-8.352413983202D+03  KE= 2.742132771163D+03
 Merz-Kollman atomic radii used.
 Read replacement radii for each type of atom:
 Rad(20) =   1.188000000000D+00
 Atom Element Radius
    1     8    1.40
    2    15    1.80
    3    20    1.19
    4     8    1.40
    5    20    1.19
    6    20    1.19
    7     8    1.40
    8     8    1.40
    9     8    1.40

 **********************************************************************

            Electrostatic Properties Using The SCF Density

 **********************************************************************

       Atomic Center    1 is at  -1.867382 -1.570238 -0.001620
       Atomic Center    2 is at  -3.306622 -1.023056 -0.018390
       Atomic Center    3 is at   0.436018 -1.347490  0.026270
       Atomic Center    4 is at  -3.260450  0.528664 -0.012050
       Atomic Center    5 is at  -1.483658  1.930262  0.006270
       Atomic Center    6 is at   2.766041  1.004897 -0.008080
       Atomic Center    7 is at   0.472321  1.016850  0.018310
       Atomic Center    8 is at   2.554138 -1.215153 -0.007560
       Atomic Center    9 is at   4.005289 -0.811064 -0.023750
     883 points will be used for fitting atomic charges
 Fitting point charges to eletrostatic potential
 Charges from ESP fit, RMS=   0.00595 RRMS=   0.03909:
 Charge=   1.00000 Dipole=    -6.1201    12.8219     0.1493 Tot=    14.2084
              1
     1  O   -0.635172
     2  P    0.556315
     3  Ca   1.617789
     4  O   -0.705673
     5  Ca   1.706409
     6  Ca   1.627872
     7  O   -1.663936
     8  O   -0.834030
     9  O   -0.669574
 -----------------------------------------------------------------

              Electrostatic Properties (Atomic Units)

 -----------------------------------------------------------------
    Center     Electric         -------- Electric Field --------
               Potential          X             Y             Z
 -----------------------------------------------------------------
    1 Atom    -22.177847
    2 Atom    -53.907875
    3 Atom    -80.062409
    4 Atom    -22.176877
    5 Atom    -79.993698
    6 Atom    -80.070121
    7 Atom    -22.268351
    8 Atom    -22.272661
    9 Atom    -22.300365
 -----------------------------------------------------------------
 1\1\GINC-N033\SP\RB3LYP\6-31+G(d,p)\Ca3O5P1(1+)\TIMN\12-Jun-2015\0\\# 
 b3lyp/6-31+G(d,p) int=ultrafine pop=(ReadRadii,MK)\\mol_17.23.50.pdbcc
 c_plusQ.z58251.zip.xyz\\1,1\O,0,-1.86738,-1.57024,-0.00162\P,0,-3.3066
 2,-1.02306,-0.01839\Ca,0,0.43602,-1.34749,0.02627\O,0,-3.26045,0.52866
 ,-0.01205\Ca,0,-1.48366,1.93026,0.00627\Ca,0,2.76604,1.0049,-0.00808\O
 ,0,0.47232,1.01685,0.01831\O,0,2.55414,-1.21515,-0.00756\O,0,4.00529,-
 0.81106,-0.02375\\Version=EM64T-G03RevE.01\State=1-A\HF=-2750.1698025\
 RMSD=6.152e-05\Thermal=0.\Dipole=-2.4164556,4.9375965,0.0596215\PG=C01
  [X(Ca3O5P1)]\\@


 FROM WHENCE IT HAPPENS, THAT THEY WHICH TRUST TO BOOKS, DO AS THEY THAT CAST UP MANY LITTLE SUMMS INTO GREATER,
 WITHOUT CONSIDERING WETHER THOSE LITTLE SUMMES WERE RIGHTLY CAST UP OR NOT...
 AND AT LAST FINDING THE ERROUR VISIBLE, AND NOT MISTRUSTING THEIR FIRST GROUNDS,
 KNOW NOT WHICH WAY TO CLEERE THEMSELVES...
 BUT SPEND TIME IN FLUTTERING OVER THEIR BOOKES....
 AS BIRDS THAT ENTERING BY THE CHIMNEY, AND FINDING THEMSELVES INCLOSED IN A CHAMBER,
 FLUTTER AT THE FALSE LIGHT OF A GLASSE WINDOW,
 FOR WANT OF WIT TO CONSIDER WHICH WAY THEY CAME IN....
           LEVIATHAN
 Job cpu time:  0 days  0 hours  1 minutes 46.8 seconds.
 File lengths (MBytes):  RWF=     36 Int=      0 D2E=      0 Chk=     11 Scr=      1
 Normal termination of Gaussian 03 at Fri Jun 12 17:53:48 2015.
