 Entering Gaussian System, Link 0=/home/timn/tmp/g03.e01/g03
 Input=mol_16.5.18.pdbc_plusQc.out.z51623.zip.xyz.gjf
 Output=mol_16.5.18.pdbc_plusQc.out.z51623.zip.xyz.out
 Initial command:
 /home/timn/tmp/g03.e01/l1.exe /home/timn/tmp/g03.e01/Gau-14522.inp -scrdir=/home/timn/tmp/g03.e01/
 Default is to use a total of   2 processors:
                                2 via shared-memory
                                1 via Linda
 Entering Link 1 = /home/timn/tmp/g03.e01/l1.exe PID=     14523.
  
 Copyright (c) 1988,1990,1992,1993,1995,1998,2003,2004,2007, Gaussian, Inc.
                  All Rights Reserved.
  
 This is the Gaussian(R) 03 program.  It is based on the
 the Gaussian(R) 98 system (copyright 1998, Gaussian, Inc.),
 the Gaussian(R) 94 system (copyright 1995, Gaussian, Inc.),
 the Gaussian 92(TM) system (copyright 1992, Gaussian, Inc.),
 the Gaussian 90(TM) system (copyright 1990, Gaussian, Inc.),
 the Gaussian 88(TM) system (copyright 1988, Gaussian, Inc.),
 the Gaussian 86(TM) system (copyright 1986, Carnegie Mellon
 University), and the Gaussian 82(TM) system (copyright 1983,
 Carnegie Mellon University). Gaussian is a federally registered
 trademark of Gaussian, Inc.
  
 This software contains proprietary and confidential information,
 including trade secrets, belonging to Gaussian, Inc.
  
 This software is provided under written license and may be
 used, copied, transmitted, or stored only in accord with that
 written license.
  
 The following legend is applicable only to US Government
 contracts under FAR:
  
                    RESTRICTED RIGHTS LEGEND
  
 Use, reproduction and disclosure by the US Government is
 subject to restrictions as set forth in subparagraphs (a)
 and (c) of the Commercial Computer Software - Restricted
 Rights clause in FAR 52.227-19.
  
 Gaussian, Inc.
 340 Quinnipiac St., Bldg. 40, Wallingford CT 06492
  
  
 ---------------------------------------------------------------
 Warning -- This program may not be used in any manner that
 competes with the business of Gaussian, Inc. or will provide
 assistance to any competitor of Gaussian, Inc.  The licensee
 of this program is prohibited from giving any competitor of
 Gaussian, Inc. access to this program.  By using this program,
 the user acknowledges that Gaussian, Inc. is engaged in the
 business of creating and licensing software in the field of
 computational chemistry and represents and warrants to the
 licensee that it is not a competitor of Gaussian, Inc. and that
 it will not use this program in any manner prohibited above.
 ---------------------------------------------------------------
  

 Cite this work as:
 Gaussian 03, Revision E.01,
 M. J. Frisch, G. W. Trucks, H. B. Schlegel, G. E. Scuseria, 
 M. A. Robb, J. R. Cheeseman, J. A. Montgomery, Jr., T. Vreven, 
 K. N. Kudin, J. C. Burant, J. M. Millam, S. S. Iyengar, J. Tomasi, 
 V. Barone, B. Mennucci, M. Cossi, G. Scalmani, N. Rega, 
 G. A. Petersson, H. Nakatsuji, M. Hada, M. Ehara, K. Toyota, 
 R. Fukuda, J. Hasegawa, M. Ishida, T. Nakajima, Y. Honda, O. Kitao, 
 H. Nakai, M. Klene, X. Li, J. E. Knox, H. P. Hratchian, J. B. Cross, 
 V. Bakken, C. Adamo, J. Jaramillo, R. Gomperts, R. E. Stratmann, 
 O. Yazyev, A. J. Austin, R. Cammi, C. Pomelli, J. W. Ochterski, 
 P. Y. Ayala, K. Morokuma, G. A. Voth, P. Salvador, J. J. Dannenberg, 
 V. G. Zakrzewski, S. Dapprich, A. D. Daniels, M. C. Strain, 
 O. Farkas, D. K. Malick, A. D. Rabuck, K. Raghavachari, 
 J. B. Foresman, J. V. Ortiz, Q. Cui, A. G. Baboul, S. Clifford, 
 J. Cioslowski, B. B. Stefanov, G. Liu, A. Liashenko, P. Piskorz, 
 I. Komaromi, R. L. Martin, D. J. Fox, T. Keith, M. A. Al-Laham, 
 C. Y. Peng, A. Nanayakkara, M. Challacombe, P. M. W. Gill, 
 B. Johnson, W. Chen, M. W. Wong, C. Gonzalez, and J. A. Pople, 
 Gaussian, Inc., Wallingford CT, 2004.
 
 ******************************************
 Gaussian 03:  EM64T-G03RevE.01 11-Sep-2007
                12-Jun-2015 
 ******************************************
 %nproc=2
 Will use up to    2 processors via shared memory.
 Default route:  MP2=Direct MaxDisk=2000MB
 ----------------------------------------------------
 # b3lyp/6-31+G(d,p) int=ultrafine pop=(ReadRadii,MK)
 ----------------------------------------------------

 Warning!  SCF SP cutoffs with diffuse functions may be unreliable.
 Consider SCF=Tight

 1/38=1/1;
 2/17=6,18=5,40=1/2;
 3/5=1,6=6,7=111,11=2,16=1,25=1,30=1,74=-5,75=5/1,2,3;
 4//1;
 5/5=2,32=1,38=5/2;
 6/7=2,8=2,9=2,10=2,15=8,20=101,28=1/1,2;
 99/5=1,9=1/99;
 ------------------------------------------
 mol_16.5.18.pdbc_plusQc.out.z51623.zip.xyz
 ------------------------------------------
 Symbolic Z-matrix:
 Charge =  1 Multiplicity = 1
 O                    -3.24688  -0.00014   0.00017 
 P                    -1.77648  -0.00006  -0.00002 
 O                    -0.94907  -1.27823  -0.00031 
 O                    -0.94921   1.2782    0.00006 
 Ca                    1.25654   1.89404  -0.00005 
 Ca                    1.25673  -1.89396   0.00006 
 O                     2.19289   0.00008   0.0001 
 
                          Input orientation:                          
 ---------------------------------------------------------------------
 Center     Atomic     Atomic              Coordinates (Angstroms)
 Number     Number      Type              X           Y           Z
 ---------------------------------------------------------------------
    1          8             0       -3.246880   -0.000140    0.000170
    2         15             0       -1.776480   -0.000060   -0.000020
    3          8             0       -0.949070   -1.278230   -0.000310
    4          8             0       -0.949210    1.278200    0.000060
    5         20             0        1.256540    1.894040   -0.000050
    6         20             0        1.256730   -1.893960    0.000060
    7          8             0        2.192890    0.000080    0.000100
 ---------------------------------------------------------------------
                    Distance matrix (angstroms):
                    1          2          3          4          5
     1  O    0.000000
     2  P    1.470400   0.000000
     3  O    2.629343   1.522605   0.000000
     4  O    2.629342   1.522604   2.556430   0.000000
     5  Ca   4.885561   3.575867   3.863679   2.290107   0.000000
     6  Ca   4.885597   3.575922   2.290126   3.863777   3.788000
     7  O    5.439770   3.969370   3.392048   3.392106   2.112779
                    6          7
     6  Ca   0.000000
     7  O    2.112767   0.000000
 Stoichiometry    Ca2O4P(1+)
 Framework group  C1[X(Ca2O4P)]
 Deg. of freedom    15
 Full point group                 C1
 Largest Abelian subgroup         C1      NOp   1
 Largest concise Abelian subgroup C1      NOp   1
                         Standard orientation:                         
 ---------------------------------------------------------------------
 Center     Atomic     Atomic              Coordinates (Angstroms)
 Number     Number      Type              X           Y           Z
 ---------------------------------------------------------------------
    1          8             0       -3.246880   -0.000129    0.000169
    2         15             0       -1.776480   -0.000054   -0.000021
    3          8             0       -0.949075   -1.278227   -0.000311
    4          8             0       -0.949206    1.278203    0.000059
    5         20             0        1.256546    1.894036   -0.000051
    6         20             0        1.256724   -1.893964    0.000059
    7          8             0        2.192890    0.000073    0.000099
 ---------------------------------------------------------------------
 Rotational constants (GHZ):      1.4908967      1.0142071      0.6035989
 Standard basis: 6-31+G(d,p) (6D, 7F)
 There are   153 symmetry adapted basis functions of A   symmetry.
 Integral buffers will be    131072 words long.
 Raffenetti 2 integral format.
 Two-electron integral symmetry is turned on.
   153 basis functions,   344 primitive gaussians,   153 cartesian basis functions
    43 alpha electrons       43 beta electrons
       nuclear repulsion energy       585.0482122003 Hartrees.
 NAtoms=    7 NActive=    7 NUniq=    7 SFac= 7.50D-01 NAtFMM=   80 NAOKFM=F Big=F
 One-electron integrals computed using PRISM.
 NBasis=   153 RedAO= T  NBF=   153
 NBsUse=   153 1.00D-06 NBFU=   153
 Harris functional with IExCor=  402 diagonalized for initial guess.
 ExpMin= 7.10D-03 ExpMax= 3.53D+04 ExpMxC= 5.30D+03 IAcc=3 IRadAn=         5 AccDes= 0.00D+00
 HarFok:  IExCor= 402 AccDes= 0.00D+00 IRadAn=         5 IDoV=1
 ScaDFX=  1.000000  1.000000  1.000000  1.000000
 Initial guess orbital symmetries:
       Occupied  (A) (A) (A) (A) (A) (A) (A) (A) (A) (A) (A) (A)
                 (A) (A) (A) (A) (A) (A) (A) (A) (A) (A) (A) (A)
                 (A) (A) (A) (A) (A) (A) (A) (A) (A) (A) (A) (A)
                 (A) (A) (A) (A) (A) (A) (A)
       Virtual   (A) (A) (A) (A) (A) (A) (A) (A) (A) (A) (A) (A)
                 (A) (A) (A) (A) (A) (A) (A) (A) (A) (A) (A) (A)
                 (A) (A) (A) (A) (A) (A) (A) (A) (A) (A) (A) (A)
                 (A) (A) (A) (A) (A) (A) (A) (A) (A) (A) (A) (A)
                 (A) (A) (A) (A) (A) (A) (A) (A) (A) (A) (A) (A)
                 (A) (A) (A) (A) (A) (A) (A) (A) (A) (A) (A) (A)
                 (A) (A) (A) (A) (A) (A) (A) (A) (A) (A) (A) (A)
                 (A) (A) (A) (A) (A) (A) (A) (A) (A) (A) (A) (A)
                 (A) (A) (A) (A) (A) (A) (A) (A) (A) (A) (A) (A)
                 (A) (A)
 The electronic state of the initial guess is 1-A.
 Requested convergence on RMS density matrix=1.00D-04 within 128 cycles.
 Requested convergence on MAX density matrix=1.00D-02.
 Requested convergence on             energy=1.00D-02.
 No special actions if energy rises.
 EnCoef did     1 forward-backward iterations
 EnCoef did     3 forward-backward iterations
 SCF Done:  E(RB+HF-LYP) =  -1997.36495558     A.U. after    9 cycles
             Convg  =    0.4847D-04             -V/T =  2.0032
             S**2   =   0.0000

 **********************************************************************

            Population analysis using the SCF density.

 **********************************************************************

 Orbital symmetries:
       Occupied  (A) (A) (A) (A) (A) (A) (A) (A) (A) (A) (A) (A)
                 (A) (A) (A) (A) (A) (A) (A) (A) (A) (A) (A) (A)
                 (A) (A) (A) (A) (A) (A) (A) (A) (A) (A) (A) (A)
                 (A) (A) (A) (A) (A) (A) (A)
       Virtual   (A) (A) (A) (A) (A) (A) (A) (A) (A) (A) (A) (A)
                 (A) (A) (A) (A) (A) (A) (A) (A) (A) (A) (A) (A)
                 (A) (A) (A) (A) (A) (A) (A) (A) (A) (A) (A) (A)
                 (A) (A) (A) (A) (A) (A) (A) (A) (A) (A) (A) (A)
                 (A) (A) (A) (A) (A) (A) (A) (A) (A) (A) (A) (A)
                 (A) (A) (A) (A) (A) (A) (A) (A) (A) (A) (A) (A)
                 (A) (A) (A) (A) (A) (A) (A) (A) (A) (A) (A) (A)
                 (A) (A) (A) (A) (A) (A) (A) (A) (A) (A) (A) (A)
                 (A) (A) (A) (A) (A) (A) (A) (A) (A) (A) (A) (A)
                 (A) (A)
 The electronic state is 1-A.
 Alpha  occ. eigenvalues -- -145.53594-145.53594 -77.35860 -19.29931 -19.29930
 Alpha  occ. eigenvalues --  -19.27563 -19.15852 -15.60449 -15.60449 -12.73700
 Alpha  occ. eigenvalues --  -12.73700 -12.73625 -12.73625 -12.73535 -12.73533
 Alpha  occ. eigenvalues --   -6.81069  -4.97686  -4.97215  -4.97119  -1.97567
 Alpha  occ. eigenvalues --   -1.97550  -1.25348  -1.25329  -1.25296  -1.25084
 Alpha  occ. eigenvalues --   -1.24706  -1.24174  -1.18400  -1.11387  -1.10401
 Alpha  occ. eigenvalues --   -0.90349  -0.67784  -0.60015  -0.56615  -0.55840
 Alpha  occ. eigenvalues --   -0.50172  -0.48058  -0.47798  -0.45415  -0.42510
 Alpha  occ. eigenvalues --   -0.36652  -0.34566  -0.34388
 Alpha virt. eigenvalues --   -0.22299  -0.20459  -0.16813  -0.14887  -0.13474
 Alpha virt. eigenvalues --   -0.12518  -0.11816  -0.10787  -0.09941  -0.08257
 Alpha virt. eigenvalues --   -0.07257  -0.06248  -0.05558  -0.05269  -0.04859
 Alpha virt. eigenvalues --   -0.04660  -0.04645  -0.04368  -0.03658  -0.01084
 Alpha virt. eigenvalues --   -0.01048  -0.00625   0.00368   0.01677   0.02308
 Alpha virt. eigenvalues --    0.02658   0.02898   0.03366   0.04419   0.04543
 Alpha virt. eigenvalues --    0.05199   0.06554   0.06575   0.06663   0.07208
 Alpha virt. eigenvalues --    0.07470   0.09175   0.09175   0.12103   0.12983
 Alpha virt. eigenvalues --    0.14115   0.14860   0.15422   0.17803   0.20130
 Alpha virt. eigenvalues --    0.20679   0.20802   0.21209   0.21897   0.23115
 Alpha virt. eigenvalues --    0.23955   0.26592   0.28728   0.29013   0.33787
 Alpha virt. eigenvalues --    0.35459   0.37212   0.45322   0.50549   0.53415
 Alpha virt. eigenvalues --    0.54088   0.54931   0.56954   0.64024   0.66956
 Alpha virt. eigenvalues --    0.80792   0.91858   0.92858   0.95138   1.03882
 Alpha virt. eigenvalues --    1.05574   1.05838   1.11443   1.12678   1.13828
 Alpha virt. eigenvalues --    1.15127   1.16985   1.20452   1.21573   1.22153
 Alpha virt. eigenvalues --    1.26598   1.38469   1.38799   1.41336   1.48650
 Alpha virt. eigenvalues --    1.63805   1.64476   1.65457   1.66588   1.69078
 Alpha virt. eigenvalues --    1.73600   1.74072   1.80206   1.80401   1.81521
 Alpha virt. eigenvalues --    1.84680   1.90572   1.93267   1.96186   1.98514
 Alpha virt. eigenvalues --    2.17056   2.18396   2.56331   2.69395   2.77901
 Alpha virt. eigenvalues --    3.35221   3.81861   3.93310   3.93327   3.96390
          Condensed to atoms (all electrons):
              1          2          3          4          5          6
     1  O    8.434081   0.472303  -0.147168  -0.147161   0.000123   0.000121
     2  P    0.472303  12.523218   0.252371   0.252379  -0.017959  -0.017958
     3  O   -0.147168   0.252371   9.049316  -0.371964  -0.024966   0.091034
     4  O   -0.147161   0.252379  -0.371964   9.049286   0.091036  -0.024963
     5  Ca   0.000123  -0.017959  -0.024966   0.091036  18.255837  -0.017314
     6  Ca   0.000121  -0.017958   0.091034  -0.024963  -0.017314  18.255835
     7  O   -0.000502  -0.023481   0.011533   0.011534   0.227989   0.227990
              7
     1  O   -0.000502
     2  P   -0.023481
     3  O    0.011533
     4  O    0.011534
     5  Ca   0.227989
     6  Ca   0.227990
     7  O    8.742477
 Mulliken atomic charges:
              1
     1  O   -0.611796
     2  P    1.559128
     3  O   -0.860156
     4  O   -0.860147
     5  Ca   1.485254
     6  Ca   1.485255
     7  O   -1.197539
 Sum of Mulliken charges=   1.00000
 Atomic charges with hydrogens summed into heavy atoms:
              1
     1  O   -0.611796
     2  P    1.559128
     3  O   -0.860156
     4  O   -0.860147
     5  Ca   1.485254
     6  Ca   1.485255
     7  O   -1.197539
 Sum of Mulliken charges=   1.00000
 Electronic spatial extent (au):  <R**2>=  1591.5594
 Charge=     1.0000 electrons
 Dipole moment (field-independent basis, Debye):
    X=     8.6782    Y=     0.0002    Z=    -0.0003  Tot=     8.6782
 Quadrupole moment (field-independent basis, Debye-Ang):
   XX=   -74.7305   YY=    -7.7819   ZZ=   -53.5429
   XY=    -0.0030   XZ=    -0.0003   YZ=    -0.0034
 Traceless Quadrupole moment (field-independent basis, Debye-Ang):
   XX=   -29.3787   YY=    37.5698   ZZ=    -8.1911
   XY=    -0.0030   XZ=    -0.0003   YZ=    -0.0034
 Octapole moment (field-independent basis, Debye-Ang**2):
  XXX=    30.0032  YYY=     0.0079  ZZZ=    -0.0008  XYY=    94.5677
  XXY=    -0.0075  XXZ=    -0.0076  XZZ=     3.8017  YZZ=     0.0001
  YYZ=     0.0016  XYZ=    -0.0003
 Hexadecapole moment (field-independent basis, Debye-Ang**3):
 XXXX= -1410.5756 YYYY=  -350.5159 ZZZZ=   -55.9815 XXXY=    -0.0299
 XXXZ=     0.0062 YYYX=    -0.0063 YYYZ=    -0.0120 ZZZX=    -0.0016
 ZZZY=    -0.0045 XXYY=  -187.3940 XXZZ=  -191.1448 YYZZ=   -97.4701
 XXYZ=    -0.0057 YYXZ=    -0.0016 ZZXY=    -0.0019
 N-N= 5.850482122003D+02 E-N=-5.888509873052D+03  KE= 1.991044669937D+03
 Merz-Kollman atomic radii used.
 Read replacement radii for each type of atom:
 Rad(20) =   1.188000000000D+00
 Atom Element Radius
    1     8    1.40
    2    15    1.80
    3     8    1.40
    4     8    1.40
    5    20    1.19
    6    20    1.19
    7     8    1.40

 **********************************************************************

            Electrostatic Properties Using The SCF Density

 **********************************************************************

       Atomic Center    1 is at  -3.246880 -0.000129  0.000169
       Atomic Center    2 is at  -1.776480 -0.000054 -0.000021
       Atomic Center    3 is at  -0.949075 -1.278227 -0.000311
       Atomic Center    4 is at  -0.949206  1.278203  0.000059
       Atomic Center    5 is at   1.256546  1.894036 -0.000051
       Atomic Center    6 is at   1.256724 -1.893964  0.000059
       Atomic Center    7 is at   2.192890  0.000073  0.000099
     681 points will be used for fitting atomic charges
 Fitting point charges to eletrostatic potential
 Charges from ESP fit, RMS=   0.00384 RRMS=   0.02404:
 Charge=   1.00000 Dipole=     8.8660     0.0002    -0.0001 Tot=     8.8660
              1
     1  O   -0.543986
     2  P    1.495704
     3  O   -0.937205
     4  O   -0.937195
     5  Ca   1.740241
     6  Ca   1.740244
     7  O   -1.557803
 -----------------------------------------------------------------

              Electrostatic Properties (Atomic Units)

 -----------------------------------------------------------------
    Center     Electric         -------- Electric Field --------
               Potential          X             Y             Z
 -----------------------------------------------------------------
    1 Atom    -22.195914
    2 Atom    -53.847814
    3 Atom    -22.162007
    4 Atom    -22.162007
    5 Atom    -80.004836
    6 Atom    -80.004835
    7 Atom    -22.292919
 -----------------------------------------------------------------
 1\1\GINC-N035\SP\RB3LYP\6-31+G(d,p)\Ca2O4P1(1+)\TIMN\12-Jun-2015\0\\# 
 b3lyp/6-31+G(d,p) int=ultrafine pop=(ReadRadii,MK)\\mol_16.5.18.pdbc_p
 lusQc.out.z51623.zip.xyz\\1,1\O,0,-3.24688,-0.00014,0.00017\P,0,-1.776
 48,-0.00006,-0.00002\O,0,-0.94907,-1.27823,-0.00031\O,0,-0.94921,1.278
 2,0.00006\Ca,0,1.25654,1.89404,-0.00005\Ca,0,1.25673,-1.89396,0.00006\
 O,0,2.19289,0.00008,0.0001\\Version=EM64T-G03RevE.01\State=1-A\HF=-199
 7.3649556\RMSD=4.847e-05\Thermal=0.\Dipole=3.4142498,0.0000748,-0.0001
 342\PG=C01 [X(Ca2O4P1)]\\@


 NATURE GIVES TO EVERY TIME AND SEASON SOME BEAUTY OF ITS OWN.

                                                    --DICKENS
 Job cpu time:  0 days  0 hours  1 minutes  1.4 seconds.
 File lengths (MBytes):  RWF=     28 Int=      0 D2E=      0 Chk=     10 Scr=      1
 Normal termination of Gaussian 03 at Fri Jun 12 17:49:38 2015.
