 Entering Gaussian System, Link 0=/home/timn/tmp/g03.e01/g03
 Input=mol_17.26.52.pdbc_plusQ.z58464.zip.xyz.gjf
 Output=mol_17.26.52.pdbc_plusQ.z58464.zip.xyz.out
 Initial command:
 /home/timn/tmp/g03.e01/l1.exe /home/timn/tmp/g03.e01/Gau-14841.inp -scrdir=/home/timn/tmp/g03.e01/
 Default is to use a total of   2 processors:
                                2 via shared-memory
                                1 via Linda
 Entering Link 1 = /home/timn/tmp/g03.e01/l1.exe PID=     14842.
  
 Copyright (c) 1988,1990,1992,1993,1995,1998,2003,2004,2007, Gaussian, Inc.
                  All Rights Reserved.
  
 This is the Gaussian(R) 03 program.  It is based on the
 the Gaussian(R) 98 system (copyright 1998, Gaussian, Inc.),
 the Gaussian(R) 94 system (copyright 1995, Gaussian, Inc.),
 the Gaussian 92(TM) system (copyright 1992, Gaussian, Inc.),
 the Gaussian 90(TM) system (copyright 1990, Gaussian, Inc.),
 the Gaussian 88(TM) system (copyright 1988, Gaussian, Inc.),
 the Gaussian 86(TM) system (copyright 1986, Carnegie Mellon
 University), and the Gaussian 82(TM) system (copyright 1983,
 Carnegie Mellon University). Gaussian is a federally registered
 trademark of Gaussian, Inc.
  
 This software contains proprietary and confidential information,
 including trade secrets, belonging to Gaussian, Inc.
  
 This software is provided under written license and may be
 used, copied, transmitted, or stored only in accord with that
 written license.
  
 The following legend is applicable only to US Government
 contracts under FAR:
  
                    RESTRICTED RIGHTS LEGEND
  
 Use, reproduction and disclosure by the US Government is
 subject to restrictions as set forth in subparagraphs (a)
 and (c) of the Commercial Computer Software - Restricted
 Rights clause in FAR 52.227-19.
  
 Gaussian, Inc.
 340 Quinnipiac St., Bldg. 40, Wallingford CT 06492
  
  
 ---------------------------------------------------------------
 Warning -- This program may not be used in any manner that
 competes with the business of Gaussian, Inc. or will provide
 assistance to any competitor of Gaussian, Inc.  The licensee
 of this program is prohibited from giving any competitor of
 Gaussian, Inc. access to this program.  By using this program,
 the user acknowledges that Gaussian, Inc. is engaged in the
 business of creating and licensing software in the field of
 computational chemistry and represents and warrants to the
 licensee that it is not a competitor of Gaussian, Inc. and that
 it will not use this program in any manner prohibited above.
 ---------------------------------------------------------------
  

 Cite this work as:
 Gaussian 03, Revision E.01,
 M. J. Frisch, G. W. Trucks, H. B. Schlegel, G. E. Scuseria, 
 M. A. Robb, J. R. Cheeseman, J. A. Montgomery, Jr., T. Vreven, 
 K. N. Kudin, J. C. Burant, J. M. Millam, S. S. Iyengar, J. Tomasi, 
 V. Barone, B. Mennucci, M. Cossi, G. Scalmani, N. Rega, 
 G. A. Petersson, H. Nakatsuji, M. Hada, M. Ehara, K. Toyota, 
 R. Fukuda, J. Hasegawa, M. Ishida, T. Nakajima, Y. Honda, O. Kitao, 
 H. Nakai, M. Klene, X. Li, J. E. Knox, H. P. Hratchian, J. B. Cross, 
 V. Bakken, C. Adamo, J. Jaramillo, R. Gomperts, R. E. Stratmann, 
 O. Yazyev, A. J. Austin, R. Cammi, C. Pomelli, J. W. Ochterski, 
 P. Y. Ayala, K. Morokuma, G. A. Voth, P. Salvador, J. J. Dannenberg, 
 V. G. Zakrzewski, S. Dapprich, A. D. Daniels, M. C. Strain, 
 O. Farkas, D. K. Malick, A. D. Rabuck, K. Raghavachari, 
 J. B. Foresman, J. V. Ortiz, Q. Cui, A. G. Baboul, S. Clifford, 
 J. Cioslowski, B. B. Stefanov, G. Liu, A. Liashenko, P. Piskorz, 
 I. Komaromi, R. L. Martin, D. J. Fox, T. Keith, M. A. Al-Laham, 
 C. Y. Peng, A. Nanayakkara, M. Challacombe, P. M. W. Gill, 
 B. Johnson, W. Chen, M. W. Wong, C. Gonzalez, and J. A. Pople, 
 Gaussian, Inc., Wallingford CT, 2004.
 
 ******************************************
 Gaussian 03:  EM64T-G03RevE.01 11-Sep-2007
                12-Jun-2015 
 ******************************************
 %nproc=2
 Will use up to    2 processors via shared memory.
 Default route:  MP2=Direct MaxDisk=2000MB
 ----------------------------------------------------
 # b3lyp/6-31+G(d,p) int=ultrafine pop=(ReadRadii,MK)
 ----------------------------------------------------

 Warning!  SCF SP cutoffs with diffuse functions may be unreliable.
 Consider SCF=Tight

 1/38=1/1;
 2/17=6,18=5,40=1/2;
 3/5=1,6=6,7=111,11=2,16=1,25=1,30=1,74=-5,75=5/1,2,3;
 4//1;
 5/5=2,32=1,38=5/2;
 6/7=2,8=2,9=2,10=2,15=8,20=101,28=1/1,2;
 99/5=1,9=1/99;
 --------------------------------------
 mol_17.26.52.pdbc_plusQ.z58464.zip.xyz
 --------------------------------------
 Symbolic Z-matrix:
 Charge =  1 Multiplicity = 1
 O                    -1.15921   0.8807    1.11592 
 O                     1.26085   0.7582    0.70054 
 O                     2.56122   0.08289   0.38987 
 Ca                    1.28397  -1.23099  -0.92127 
 P                     0.04624  -0.05243   1.76346 
 O                    -0.49845  -0.01661  -1.70122 
 Ca                   -0.08267   1.94545  -0.70342 
 Ca                   -2.03448  -0.77838  -0.27108 
 O                    -0.16818  -1.44709   0.92784 
 
                          Input orientation:                          
 ---------------------------------------------------------------------
 Center     Atomic     Atomic              Coordinates (Angstroms)
 Number     Number      Type              X           Y           Z
 ---------------------------------------------------------------------
    1          8             0       -1.159210    0.880700    1.115920
    2          8             0        1.260850    0.758200    0.700540
    3          8             0        2.561220    0.082890    0.389870
    4         20             0        1.283970   -1.230990   -0.921270
    5         15             0        0.046240   -0.052430    1.763460
    6          8             0       -0.498450   -0.016610   -1.701220
    7         20             0       -0.082670    1.945450   -0.703420
    8         20             0       -2.034480   -0.778380   -0.271080
    9          8             0       -0.168180   -1.447090    0.927840
 ---------------------------------------------------------------------
                    Distance matrix (angstroms):
                    1          2          3          4          5
     1  O    0.000000
     2  O    2.458503   0.000000
     3  O    3.873661   1.497839   0.000000
     4  Ca   3.818181   2.566647   2.253161   0.000000
     5  P    1.656246   1.806155   2.868830   3.182570   0.000000
     6  O    3.029529   3.076348   3.707309   2.293482   3.507418
     7  Ca   2.366987   2.277216   3.413879   3.464814   3.177049
     8  Ca   2.332898   3.763552   4.722192   3.411702   2.999292
     9  O    2.536951   2.637631   3.174882   2.361069   1.639913
                    6          7          8          9
     6  O    0.000000
     7  Ca   2.240124   0.000000
     8  Ca   2.232707   3.378717   0.000000
     9  O    3.011197   3.765322   2.316821   0.000000
 Stoichiometry    Ca3O5P(1+)
 Framework group  C1[X(Ca3O5P)]
 Deg. of freedom    21
 Full point group                 C1
 Largest Abelian subgroup         C1      NOp   1
 Largest concise Abelian subgroup C1      NOp   1
                         Standard orientation:                         
 ---------------------------------------------------------------------
 Center     Atomic     Atomic              Coordinates (Angstroms)
 Number     Number      Type              X           Y           Z
 ---------------------------------------------------------------------
    1          8             0       -1.159209    0.880701    1.115919
    2          8             0        1.260851    0.758201    0.700539
    3          8             0        2.561221    0.082891    0.389869
    4         20             0        1.283971   -1.230989   -0.921271
    5         15             0        0.046241   -0.052429    1.763459
    6          8             0       -0.498449   -0.016609   -1.701221
    7         20             0       -0.082669    1.945451   -0.703421
    8         20             0       -2.034479   -0.778379   -0.271081
    9          8             0       -0.168179   -1.447089    0.927839
 ---------------------------------------------------------------------
 Rotational constants (GHZ):      0.9454996      0.8007926      0.7440623
 Standard basis: 6-31+G(d,p) (6D, 7F)
 There are   199 symmetry adapted basis functions of A   symmetry.
 Integral buffers will be    131072 words long.
 Raffenetti 2 integral format.
 Two-electron integral symmetry is turned on.
   199 basis functions,   456 primitive gaussians,   199 cartesian basis functions
    57 alpha electrons       57 beta electrons
       nuclear repulsion energy      1090.3206824978 Hartrees.
 NAtoms=    9 NActive=    9 NUniq=    9 SFac= 7.50D-01 NAtFMM=   80 NAOKFM=F Big=F
 One-electron integrals computed using PRISM.
 NBasis=   199 RedAO= T  NBF=   199
 NBsUse=   199 1.00D-06 NBFU=   199
 Harris functional with IExCor=  402 diagonalized for initial guess.
 ExpMin= 7.10D-03 ExpMax= 3.53D+04 ExpMxC= 5.30D+03 IAcc=3 IRadAn=         5 AccDes= 0.00D+00
 HarFok:  IExCor= 402 AccDes= 0.00D+00 IRadAn=         5 IDoV=1
 ScaDFX=  1.000000  1.000000  1.000000  1.000000
 Initial guess orbital symmetries:
       Occupied  (A) (A) (A) (A) (A) (A) (A) (A) (A) (A) (A) (A)
                 (A) (A) (A) (A) (A) (A) (A) (A) (A) (A) (A) (A)
                 (A) (A) (A) (A) (A) (A) (A) (A) (A) (A) (A) (A)
                 (A) (A) (A) (A) (A) (A) (A) (A) (A) (A) (A) (A)
                 (A) (A) (A) (A) (A) (A) (A) (A) (A)
       Virtual   (A) (A) (A) (A) (A) (A) (A) (A) (A) (A) (A) (A)
                 (A) (A) (A) (A) (A) (A) (A) (A) (A) (A) (A) (A)
                 (A) (A) (A) (A) (A) (A) (A) (A) (A) (A) (A) (A)
                 (A) (A) (A) (A) (A) (A) (A) (A) (A) (A) (A) (A)
                 (A) (A) (A) (A) (A) (A) (A) (A) (A) (A) (A) (A)
                 (A) (A) (A) (A) (A) (A) (A) (A) (A) (A) (A) (A)
                 (A) (A) (A) (A) (A) (A) (A) (A) (A) (A) (A) (A)
                 (A) (A) (A) (A) (A) (A) (A) (A) (A) (A) (A) (A)
                 (A) (A) (A) (A) (A) (A) (A) (A) (A) (A) (A) (A)
                 (A) (A) (A) (A) (A) (A) (A) (A) (A) (A) (A) (A)
                 (A) (A) (A) (A) (A) (A) (A) (A) (A) (A) (A) (A)
                 (A) (A) (A) (A) (A) (A) (A) (A) (A) (A)
 The electronic state of the initial guess is 1-A.
 Requested convergence on RMS density matrix=1.00D-04 within 128 cycles.
 Requested convergence on MAX density matrix=1.00D-02.
 Requested convergence on             energy=1.00D-02.
 No special actions if energy rises.
 EnCoef did     3 forward-backward iterations
 SCF Done:  E(RB+HF-LYP) =  -2750.19417677     A.U. after    9 cycles
             Convg  =    0.4249D-04             -V/T =  2.0029
             S**2   =   0.0000

 **********************************************************************

            Population analysis using the SCF density.

 **********************************************************************

 Orbital symmetries:
       Occupied  (A) (A) (A) (A) (A) (A) (A) (A) (A) (A) (A) (A)
                 (A) (A) (A) (A) (A) (A) (A) (A) (A) (A) (A) (A)
                 (A) (A) (A) (A) (A) (A) (A) (A) (A) (A) (A) (A)
                 (A) (A) (A) (A) (A) (A) (A) (A) (A) (A) (A) (A)
                 (A) (A) (A) (A) (A) (A) (A) (A) (A)
       Virtual   (A) (A) (A) (A) (A) (A) (A) (A) (A) (A) (A) (A)
                 (A) (A) (A) (A) (A) (A) (A) (A) (A) (A) (A) (A)
                 (A) (A) (A) (A) (A) (A) (A) (A) (A) (A) (A) (A)
                 (A) (A) (A) (A) (A) (A) (A) (A) (A) (A) (A) (A)
                 (A) (A) (A) (A) (A) (A) (A) (A) (A) (A) (A) (A)
                 (A) (A) (A) (A) (A) (A) (A) (A) (A) (A) (A) (A)
                 (A) (A) (A) (A) (A) (A) (A) (A) (A) (A) (A) (A)
                 (A) (A) (A) (A) (A) (A) (A) (A) (A) (A) (A) (A)
                 (A) (A) (A) (A) (A) (A) (A) (A) (A) (A) (A) (A)
                 (A) (A) (A) (A) (A) (A) (A) (A) (A) (A) (A) (A)
                 (A) (A) (A) (A) (A) (A) (A) (A) (A) (A) (A) (A)
                 (A) (A) (A) (A) (A) (A) (A) (A) (A) (A)
 The electronic state is 1-A.
 Alpha  occ. eigenvalues -- -145.51667-145.51600-145.48703 -77.27302 -19.29091
 Alpha  occ. eigenvalues --  -19.23572 -19.23491 -19.23300 -19.17355 -15.58479
 Alpha  occ. eigenvalues --  -15.58426 -15.55551 -12.71692 -12.71655 -12.71633
 Alpha  occ. eigenvalues --  -12.71606 -12.71598 -12.71553 -12.68779 -12.68745
 Alpha  occ. eigenvalues --  -12.68645  -6.72399  -4.88804  -4.88690  -4.88157
 Alpha  occ. eigenvalues --   -1.95725  -1.95670  -1.92862  -1.23977  -1.23551
 Alpha  occ. eigenvalues --   -1.23416  -1.23064  -1.23029  -1.22529  -1.21064
 Alpha  occ. eigenvalues --   -1.20537  -1.19966  -1.13357  -1.07574  -1.03116
 Alpha  occ. eigenvalues --   -0.92326  -0.90586  -0.65535  -0.55298  -0.53388
 Alpha  occ. eigenvalues --   -0.51709  -0.49582  -0.46917  -0.44128  -0.42334
 Alpha  occ. eigenvalues --   -0.40302  -0.37804  -0.37638  -0.36831  -0.35227
 Alpha  occ. eigenvalues --   -0.33499  -0.32025
 Alpha virt. eigenvalues --   -0.20905  -0.19066  -0.17415  -0.13459  -0.12276
 Alpha virt. eigenvalues --   -0.11629  -0.10498  -0.10036  -0.08919  -0.08220
 Alpha virt. eigenvalues --   -0.07986  -0.06859  -0.06591  -0.06167  -0.05828
 Alpha virt. eigenvalues --   -0.05026  -0.04875  -0.04697  -0.04538  -0.04329
 Alpha virt. eigenvalues --   -0.04009  -0.03630  -0.03309  -0.03184  -0.02970
 Alpha virt. eigenvalues --   -0.02965  -0.02002  -0.00870   0.00732   0.01603
 Alpha virt. eigenvalues --    0.01799   0.02564   0.03296   0.04143   0.04756
 Alpha virt. eigenvalues --    0.04940   0.05315   0.05711   0.05830   0.06039
 Alpha virt. eigenvalues --    0.06392   0.06752   0.07239   0.07599   0.08122
 Alpha virt. eigenvalues --    0.08943   0.09519   0.09868   0.10453   0.11386
 Alpha virt. eigenvalues --    0.13095   0.14203   0.14819   0.17087   0.17799
 Alpha virt. eigenvalues --    0.18451   0.19740   0.20385   0.21059   0.22364
 Alpha virt. eigenvalues --    0.22977   0.24027   0.24366   0.26028   0.26748
 Alpha virt. eigenvalues --    0.28255   0.29330   0.31424   0.33101   0.33387
 Alpha virt. eigenvalues --    0.34385   0.35328   0.35630   0.37003   0.38652
 Alpha virt. eigenvalues --    0.40216   0.42022   0.43849   0.49198   0.51865
 Alpha virt. eigenvalues --    0.52349   0.57979   0.61340   0.64215   0.65858
 Alpha virt. eigenvalues --    0.78178   0.83728   0.86155   0.90803   0.94383
 Alpha virt. eigenvalues --    1.09174   1.11334   1.13657   1.15705   1.15901
 Alpha virt. eigenvalues --    1.17805   1.19013   1.19235   1.21816   1.21928
 Alpha virt. eigenvalues --    1.23174   1.24325   1.28696   1.31218   1.33707
 Alpha virt. eigenvalues --    1.36874   1.51244   1.53379   1.54907   1.57602
 Alpha virt. eigenvalues --    1.60299   1.63685   1.67896   1.70939   1.73718
 Alpha virt. eigenvalues --    1.75139   1.80598   1.82490   1.84098   1.84829
 Alpha virt. eigenvalues --    1.85768   1.86560   1.88283   1.90435   1.91830
 Alpha virt. eigenvalues --    1.92715   1.97221   1.98872   2.01429   2.10367
 Alpha virt. eigenvalues --    2.15531   2.24699   2.32307   2.48565   2.57918
 Alpha virt. eigenvalues --    3.09313   3.50951   3.99654   4.07022   4.15186
 Alpha virt. eigenvalues --    4.23972   4.36704
          Condensed to atoms (all electrons):
              1          2          3          4          5          6
     1  O    8.848484   0.085847   0.009956   0.013784  -0.144410   0.028188
     2  O    0.085847   8.596947  -0.112437  -0.022241  -0.060877   0.019136
     3  O    0.009956  -0.112437   8.558486   0.174278  -0.066130  -0.010442
     4  Ca   0.013784  -0.022241   0.174278  18.368901  -0.051084   0.108705
     5  P   -0.144410  -0.060877  -0.066130  -0.051084  14.407908  -0.042553
     6  O    0.028188   0.019136  -0.010442   0.108705  -0.042553   8.860731
     7  Ca   0.053953   0.064245  -0.022536  -0.010333  -0.011112   0.134270
     8  Ca   0.067696   0.012728   0.006776  -0.054267   0.019864   0.133753
     9  O    0.037792   0.007022   0.031069   0.054878  -0.152982   0.029806
              7          8          9
     1  O    0.053953   0.067696   0.037792
     2  O    0.064245   0.012728   0.007022
     3  O   -0.022536   0.006776   0.031069
     4  Ca  -0.010333  -0.054267   0.054878
     5  P   -0.011112   0.019864  -0.152982
     6  O    0.134270   0.133753   0.029806
     7  Ca  18.353315  -0.071263   0.016062
     8  Ca  -0.071263  18.391243   0.064439
     9  O    0.016062   0.064439   8.930826
 Mulliken atomic charges:
              1
     1  O   -1.001291
     2  O   -0.590370
     3  O   -0.569020
     4  Ca   1.417379
     5  P    1.101376
     6  O   -1.261594
     7  Ca   1.493399
     8  Ca   1.429032
     9  O   -1.018912
 Sum of Mulliken charges=   1.00000
 Atomic charges with hydrogens summed into heavy atoms:
              1
     1  O   -1.001291
     2  O   -0.590370
     3  O   -0.569020
     4  Ca   1.417379
     5  P    1.101376
     6  O   -1.261594
     7  Ca   1.493399
     8  Ca   1.429032
     9  O   -1.018912
 Sum of Mulliken charges=   1.00000
 Electronic spatial extent (au):  <R**2>=  1782.1142
 Charge=     1.0000 electrons
 Dipole moment (field-independent basis, Debye):
    X=    -6.9447    Y=    -0.1184    Z=    -8.5342  Tot=    11.0034
 Quadrupole moment (field-independent basis, Debye-Ang):
   XX=   -58.4094   YY=   -40.8401   ZZ=   -88.3298
   XY=    -0.3207   XZ=    -9.1278   YZ=    -0.2749
 Traceless Quadrupole moment (field-independent basis, Debye-Ang):
   XX=     4.1171   YY=    21.6863   ZZ=   -25.8034
   XY=    -0.3207   XZ=    -9.1278   YZ=    -0.2749
 Octapole moment (field-independent basis, Debye-Ang**2):
  XXX=  -106.9601  YYY=    51.2968  ZZZ=    -6.0907  XYY=     4.2720
  XXY=   -53.6022  XXZ=   -40.7957  XZZ=    18.1756  YZZ=    -1.4554
  YYZ=   -56.5468  XYZ=    12.5691
 Hexadecapole moment (field-independent basis, Debye-Ang**3):
 XXXX=  -740.8889 YYYY=  -407.4593 ZZZZ=  -730.3707 XXXY=    30.6458
 XXXZ=   -27.4425 YYYX=   -19.1609 YYYZ=   -19.5967 ZZZX=   -44.1720
 ZZZY=     2.2082 XXYY=  -182.5608 XXZZ=  -239.9529 YYZZ=  -179.9122
 XXYZ=    16.7038 YYXZ=   -12.9593 ZZXY=    -7.6330
 N-N= 1.090320682498D+03 E-N=-8.681153738485D+03  KE= 2.742202758699D+03
 Merz-Kollman atomic radii used.
 Read replacement radii for each type of atom:
 Rad(20) =   1.188000000000D+00
 Atom Element Radius
    1     8    1.40
    2     8    1.40
    3     8    1.40
    4    20    1.19
    5    15    1.80
    6     8    1.40
    7    20    1.19
    8    20    1.19
    9     8    1.40

 **********************************************************************

            Electrostatic Properties Using The SCF Density

 **********************************************************************

       Atomic Center    1 is at  -1.159209  0.880701  1.115919
       Atomic Center    2 is at   1.260851  0.758201  0.700539
       Atomic Center    3 is at   2.561221  0.082891  0.389869
       Atomic Center    4 is at   1.283971 -1.230989 -0.921271
       Atomic Center    5 is at   0.046241 -0.052429  1.763459
       Atomic Center    6 is at  -0.498449 -0.016609 -1.701221
       Atomic Center    7 is at  -0.082669  1.945451 -0.703421
       Atomic Center    8 is at  -2.034479 -0.778379 -0.271081
       Atomic Center    9 is at  -0.168179 -1.447089  0.927839
     741 points will be used for fitting atomic charges
 Fitting point charges to eletrostatic potential
 Charges from ESP fit, RMS=   0.00539 RRMS=   0.03341:
 Charge=   1.00000 Dipole=    -7.1120    -0.0532    -8.7001 Tot=    11.2372
              1
     1  O   -0.931813
     2  O   -0.405845
     3  O   -0.637312
     4  Ca   1.648321
     5  P    0.548693
     6  O   -1.618755
     7  Ca   1.638206
     8  Ca   1.662364
     9  O   -0.903859
 -----------------------------------------------------------------

              Electrostatic Properties (Atomic Units)

 -----------------------------------------------------------------
    Center     Electric         -------- Electric Field --------
               Potential          X             Y             Z
 -----------------------------------------------------------------
    1 Atom    -22.225705
    2 Atom    -22.175753
    3 Atom    -22.239622
    4 Atom    -80.054047
    5 Atom    -53.943300
    6 Atom    -22.289731
    7 Atom    -80.024255
    8 Atom    -80.024976
    9 Atom    -22.231354
 -----------------------------------------------------------------
 1\1\GINC-N029\SP\RB3LYP\6-31+G(d,p)\Ca3O5P1(1+)\TIMN\12-Jun-2015\0\\# 
 b3lyp/6-31+G(d,p) int=ultrafine pop=(ReadRadii,MK)\\mol_17.26.52.pdbc_
 plusQ.z58464.zip.xyz\\1,1\O,0,-1.15921,0.8807,1.11592\O,0,1.26085,0.75
 82,0.70054\O,0,2.56122,0.08289,0.38987\Ca,0,1.28397,-1.23099,-0.92127\
 P,0,0.04624,-0.05243,1.76346\O,0,-0.49845,-0.01661,-1.70122\Ca,0,-0.08
 267,1.94545,-0.70342\Ca,0,-2.03448,-0.77838,-0.27108\O,0,-0.16818,-1.4
 4709,0.92784\\Version=EM64T-G03RevE.01\State=1-A\HF=-2750.1941768\RMSD
 =4.249e-05\Thermal=0.\Dipole=-2.7322615,-0.0465999,-3.357601\PG=C01 [X
 (Ca3O5P1)]\\@


 WHEN A MATHEMATICIAN ENGAGED IN INVESTIGATING
 PHYSICAL ACTIONS AND RESULTS HAS ARRIVED AT HIS
 CONCLUSIONS, MAY THEY NOT BE EXPRESSED IN COMMON
 LANGUAGE AS FULLY, CLEARLY, AND DEFINITELY AS IN
 MATHEMATICAL FORMULAE?
           - LETTER FROM M. FARADAY TO J.C. MAXWELL, 1857.
 Job cpu time:  0 days  0 hours  2 minutes 27.1 seconds.
 File lengths (MBytes):  RWF=     36 Int=      0 D2E=      0 Chk=     11 Scr=      1
 Normal termination of Gaussian 03 at Fri Jun 12 18:02:15 2015.
