 Entering Gaussian System, Link 0=/home/timn/tmp/g03.e01/g03
 Input=mol_17.26.6.pdbcc_plusQ.z58472.zip.xyz.gjf
 Output=mol_17.26.6.pdbcc_plusQ.z58472.zip.xyz.out
 Initial command:
 /home/timn/tmp/g03.e01/l1.exe /home/timn/tmp/g03.e01/Gau-13395.inp -scrdir=/home/timn/tmp/g03.e01/
 Default is to use a total of   2 processors:
                                2 via shared-memory
                                1 via Linda
 Entering Link 1 = /home/timn/tmp/g03.e01/l1.exe PID=     13396.
  
 Copyright (c) 1988,1990,1992,1993,1995,1998,2003,2004,2007, Gaussian, Inc.
                  All Rights Reserved.
  
 This is the Gaussian(R) 03 program.  It is based on the
 the Gaussian(R) 98 system (copyright 1998, Gaussian, Inc.),
 the Gaussian(R) 94 system (copyright 1995, Gaussian, Inc.),
 the Gaussian 92(TM) system (copyright 1992, Gaussian, Inc.),
 the Gaussian 90(TM) system (copyright 1990, Gaussian, Inc.),
 the Gaussian 88(TM) system (copyright 1988, Gaussian, Inc.),
 the Gaussian 86(TM) system (copyright 1986, Carnegie Mellon
 University), and the Gaussian 82(TM) system (copyright 1983,
 Carnegie Mellon University). Gaussian is a federally registered
 trademark of Gaussian, Inc.
  
 This software contains proprietary and confidential information,
 including trade secrets, belonging to Gaussian, Inc.
  
 This software is provided under written license and may be
 used, copied, transmitted, or stored only in accord with that
 written license.
  
 The following legend is applicable only to US Government
 contracts under FAR:
  
                    RESTRICTED RIGHTS LEGEND
  
 Use, reproduction and disclosure by the US Government is
 subject to restrictions as set forth in subparagraphs (a)
 and (c) of the Commercial Computer Software - Restricted
 Rights clause in FAR 52.227-19.
  
 Gaussian, Inc.
 340 Quinnipiac St., Bldg. 40, Wallingford CT 06492
  
  
 ---------------------------------------------------------------
 Warning -- This program may not be used in any manner that
 competes with the business of Gaussian, Inc. or will provide
 assistance to any competitor of Gaussian, Inc.  The licensee
 of this program is prohibited from giving any competitor of
 Gaussian, Inc. access to this program.  By using this program,
 the user acknowledges that Gaussian, Inc. is engaged in the
 business of creating and licensing software in the field of
 computational chemistry and represents and warrants to the
 licensee that it is not a competitor of Gaussian, Inc. and that
 it will not use this program in any manner prohibited above.
 ---------------------------------------------------------------
  

 Cite this work as:
 Gaussian 03, Revision E.01,
 M. J. Frisch, G. W. Trucks, H. B. Schlegel, G. E. Scuseria, 
 M. A. Robb, J. R. Cheeseman, J. A. Montgomery, Jr., T. Vreven, 
 K. N. Kudin, J. C. Burant, J. M. Millam, S. S. Iyengar, J. Tomasi, 
 V. Barone, B. Mennucci, M. Cossi, G. Scalmani, N. Rega, 
 G. A. Petersson, H. Nakatsuji, M. Hada, M. Ehara, K. Toyota, 
 R. Fukuda, J. Hasegawa, M. Ishida, T. Nakajima, Y. Honda, O. Kitao, 
 H. Nakai, M. Klene, X. Li, J. E. Knox, H. P. Hratchian, J. B. Cross, 
 V. Bakken, C. Adamo, J. Jaramillo, R. Gomperts, R. E. Stratmann, 
 O. Yazyev, A. J. Austin, R. Cammi, C. Pomelli, J. W. Ochterski, 
 P. Y. Ayala, K. Morokuma, G. A. Voth, P. Salvador, J. J. Dannenberg, 
 V. G. Zakrzewski, S. Dapprich, A. D. Daniels, M. C. Strain, 
 O. Farkas, D. K. Malick, A. D. Rabuck, K. Raghavachari, 
 J. B. Foresman, J. V. Ortiz, Q. Cui, A. G. Baboul, S. Clifford, 
 J. Cioslowski, B. B. Stefanov, G. Liu, A. Liashenko, P. Piskorz, 
 I. Komaromi, R. L. Martin, D. J. Fox, T. Keith, M. A. Al-Laham, 
 C. Y. Peng, A. Nanayakkara, M. Challacombe, P. M. W. Gill, 
 B. Johnson, W. Chen, M. W. Wong, C. Gonzalez, and J. A. Pople, 
 Gaussian, Inc., Wallingford CT, 2004.
 
 ******************************************
 Gaussian 03:  EM64T-G03RevE.01 11-Sep-2007
                12-Jun-2015 
 ******************************************
 %nproc=2
 Will use up to    2 processors via shared memory.
 Default route:  MP2=Direct MaxDisk=2000MB
 ----------------------------------------------------
 # b3lyp/6-31+G(d,p) int=ultrafine pop=(ReadRadii,MK)
 ----------------------------------------------------

 Warning!  SCF SP cutoffs with diffuse functions may be unreliable.
 Consider SCF=Tight

 1/38=1/1;
 2/17=6,18=5,40=1/2;
 3/5=1,6=6,7=111,11=2,16=1,25=1,30=1,74=-5,75=5/1,2,3;
 4//1;
 5/5=2,32=1,38=5/2;
 6/7=2,8=2,9=2,10=2,15=8,20=101,28=1/1,2;
 99/5=1,9=1/99;
 --------------------------------------
 mol_17.26.6.pdbcc_plusQ.z58472.zip.xyz
 --------------------------------------
 Symbolic Z-matrix:
 Charge =  1 Multiplicity = 1
 O                     1.14364  -0.84366  -0.00158 
 O                     2.66462   0.71127  -1.24778 
 P                     1.71992   0.73558   0.00044 
 O                     2.66244   0.70889   1.25028 
 Ca                    3.54215  -1.04552   0.00054 
 O                     0.46346   1.62684   0.00027 
 Ca                   -1.03792  -0.10191  -0.00246 
 O                    -3.22587  -0.34985  -0.00005 
 Ca                   -5.27749  -0.14565   0.00114 
 
                          Input orientation:                          
 ---------------------------------------------------------------------
 Center     Atomic     Atomic              Coordinates (Angstroms)
 Number     Number      Type              X           Y           Z
 ---------------------------------------------------------------------
    1          8             0        1.143640   -0.843660   -0.001580
    2          8             0        2.664620    0.711270   -1.247780
    3         15             0        1.719920    0.735580    0.000440
    4          8             0        2.662440    0.708890    1.250280
    5         20             0        3.542150   -1.045520    0.000540
    6          8             0        0.463460    1.626840    0.000270
    7         20             0       -1.037920   -0.101910   -0.002460
    8          8             0       -3.225870   -0.349850   -0.000050
    9         20             0       -5.277490   -0.145650    0.001140
 ---------------------------------------------------------------------
                    Distance matrix (angstroms):
                    1          2          3          4          5
     1  O    0.000000
     2  O    2.506831   0.000000
     3  P    1.681101   1.565600   0.000000
     4  O    2.506854   2.498062   1.565617   0.000000
     5  Ca   2.406990   2.326945   2.548105   2.326735   0.000000
     6  O    2.562424   2.690911   1.540466   2.690849   4.076744
     7  Ca   2.304213   3.990099   2.882200   3.989915   4.676265
     8  O    4.397325   6.113974   5.063497   6.111992   6.803679
     9  Ca   6.458958   8.085247   7.052681   8.082888   8.865428
                    6          7          8          9
     6  O    0.000000
     7  Ca   2.289700   0.000000
     8  O    4.185506   2.201955   0.000000
     9  Ca   6.008347   4.239797   2.061757   0.000000
 Stoichiometry    Ca3O5P(1+)
 Framework group  C1[X(Ca3O5P)]
 Deg. of freedom    21
 Full point group                 C1
 Largest Abelian subgroup         C1      NOp   1
 Largest concise Abelian subgroup C1      NOp   1
                         Standard orientation:                         
 ---------------------------------------------------------------------
 Center     Atomic     Atomic              Coordinates (Angstroms)
 Number     Number      Type              X           Y           Z
 ---------------------------------------------------------------------
    1          8             0        1.143640   -0.843661   -0.001581
    2          8             0        2.664621    0.711268   -1.247781
    3         15             0        1.719921    0.735578    0.000439
    4          8             0        2.662441    0.708888    1.250279
    5         20             0        3.542150   -1.045523    0.000539
    6          8             0        0.463462    1.626839    0.000269
    7         20             0       -1.037919   -0.101909   -0.002461
    8          8             0       -3.225870   -0.349847   -0.000051
    9         20             0       -5.277489   -0.145646    0.001139
 ---------------------------------------------------------------------
 Rotational constants (GHZ):      2.7554070      0.2279811      0.2196958
 Standard basis: 6-31+G(d,p) (6D, 7F)
 There are   199 symmetry adapted basis functions of A   symmetry.
 Integral buffers will be    131072 words long.
 Raffenetti 2 integral format.
 Two-electron integral symmetry is turned on.
   199 basis functions,   456 primitive gaussians,   199 cartesian basis functions
    57 alpha electrons       57 beta electrons
       nuclear repulsion energy       922.4480132291 Hartrees.
 NAtoms=    9 NActive=    9 NUniq=    9 SFac= 7.50D-01 NAtFMM=   80 NAOKFM=F Big=F
 One-electron integrals computed using PRISM.
 NBasis=   199 RedAO= T  NBF=   199
 NBsUse=   199 1.00D-06 NBFU=   199
 Harris functional with IExCor=  402 diagonalized for initial guess.
 ExpMin= 7.10D-03 ExpMax= 3.53D+04 ExpMxC= 5.30D+03 IAcc=3 IRadAn=         5 AccDes= 0.00D+00
 HarFok:  IExCor= 402 AccDes= 0.00D+00 IRadAn=         5 IDoV=1
 ScaDFX=  1.000000  1.000000  1.000000  1.000000
 Initial guess orbital symmetries:
       Occupied  (A) (A) (A) (A) (A) (A) (A) (A) (A) (A) (A) (A)
                 (A) (A) (A) (A) (A) (A) (A) (A) (A) (A) (A) (A)
                 (A) (A) (A) (A) (A) (A) (A) (A) (A) (A) (A) (A)
                 (A) (A) (A) (A) (A) (A) (A) (A) (A) (A) (A) (A)
                 (A) (A) (A) (A) (A) (A) (A) (A) (A)
       Virtual   (A) (A) (A) (A) (A) (A) (A) (A) (A) (A) (A) (A)
                 (A) (A) (A) (A) (A) (A) (A) (A) (A) (A) (A) (A)
                 (A) (A) (A) (A) (A) (A) (A) (A) (A) (A) (A) (A)
                 (A) (A) (A) (A) (A) (A) (A) (A) (A) (A) (A) (A)
                 (A) (A) (A) (A) (A) (A) (A) (A) (A) (A) (A) (A)
                 (A) (A) (A) (A) (A) (A) (A) (A) (A) (A) (A) (A)
                 (A) (A) (A) (A) (A) (A) (A) (A) (A) (A) (A) (A)
                 (A) (A) (A) (A) (A) (A) (A) (A) (A) (A) (A) (A)
                 (A) (A) (A) (A) (A) (A) (A) (A) (A) (A) (A) (A)
                 (A) (A) (A) (A) (A) (A) (A) (A) (A) (A) (A) (A)
                 (A) (A) (A) (A) (A) (A) (A) (A) (A) (A) (A) (A)
                 (A) (A) (A) (A) (A) (A) (A) (A) (A) (A)
 The electronic state of the initial guess is 1-A.
 Requested convergence on RMS density matrix=1.00D-04 within 128 cycles.
 Requested convergence on MAX density matrix=1.00D-02.
 Requested convergence on             energy=1.00D-02.
 No special actions if energy rises.
 EnCoef did     3 forward-backward iterations
 EnCoef did     2 forward-backward iterations
 EnCoef did     1 forward-backward iterations
 SCF Done:  E(RB+HF-LYP) =  -2750.24151895     A.U. after   11 cycles
             Convg  =    0.5325D-04             -V/T =  2.0030
             S**2   =   0.0000

 **********************************************************************

            Population analysis using the SCF density.

 **********************************************************************

 Orbital symmetries:
       Occupied  (A) (A) (A) (A) (A) (A) (A) (A) (A) (A) (A) (A)
                 (A) (A) (A) (A) (A) (A) (A) (A) (A) (A) (A) (A)
                 (A) (A) (A) (A) (A) (A) (A) (A) (A) (A) (A) (A)
                 (A) (A) (A) (A) (A) (A) (A) (A) (A) (A) (A) (A)
                 (A) (A) (A) (A) (A) (A) (A) (A) (A)
       Virtual   (A) (A) (A) (A) (A) (A) (A) (A) (A) (A) (A) (A)
                 (A) (A) (A) (A) (A) (A) (A) (A) (A) (A) (A) (A)
                 (A) (A) (A) (A) (A) (A) (A) (A) (A) (A) (A) (A)
                 (A) (A) (A) (A) (A) (A) (A) (A) (A) (A) (A) (A)
                 (A) (A) (A) (A) (A) (A) (A) (A) (A) (A) (A) (A)
                 (A) (A) (A) (A) (A) (A) (A) (A) (A) (A) (A) (A)
                 (A) (A) (A) (A) (A) (A) (A) (A) (A) (A) (A) (A)
                 (A) (A) (A) (A) (A) (A) (A) (A) (A) (A) (A) (A)
                 (A) (A) (A) (A) (A) (A) (A) (A) (A) (A) (A) (A)
                 (A) (A) (A) (A) (A) (A) (A) (A) (A) (A) (A) (A)
                 (A) (A) (A) (A) (A) (A) (A) (A) (A) (A) (A) (A)
                 (A) (A) (A) (A) (A) (A) (A) (A) (A) (A)
 The electronic state is 1-A.
 Alpha  occ. eigenvalues -- -145.57730-145.50621-145.42416 -77.24160 -19.16325
 Alpha  occ. eigenvalues --  -19.16164 -19.16139 -19.14090 -19.14089 -15.64493
 Alpha  occ. eigenvalues --  -15.57316 -15.49351 -12.77712 -12.77711 -12.77578
 Alpha  occ. eigenvalues --  -12.70511 -12.70500 -12.70497 -12.62635 -12.62553
 Alpha  occ. eigenvalues --  -12.62372  -6.68706  -4.85149  -4.85014  -4.84952
 Alpha  occ. eigenvalues --   -2.01364  -1.94257  -1.86808  -1.28876  -1.28873
 Alpha  occ. eigenvalues --   -1.27980  -1.22220  -1.21458  -1.21421  -1.14927
 Alpha  occ. eigenvalues --   -1.14648  -1.14360  -1.05313  -0.98026  -0.95339
 Alpha  occ. eigenvalues --   -0.95328  -0.90121  -0.55281  -0.46957  -0.45645
 Alpha  occ. eigenvalues --   -0.44819  -0.39810  -0.37092  -0.36905  -0.36428
 Alpha  occ. eigenvalues --   -0.35361  -0.34416  -0.34248  -0.34134  -0.32116
 Alpha  occ. eigenvalues --   -0.30569  -0.28477
 Alpha virt. eigenvalues --   -0.25051  -0.18042  -0.15115  -0.15104  -0.13864
 Alpha virt. eigenvalues --   -0.10441  -0.08779  -0.08753  -0.07727  -0.06511
 Alpha virt. eigenvalues --   -0.06148  -0.05566  -0.05311  -0.05254  -0.04868
 Alpha virt. eigenvalues --   -0.04591  -0.03342  -0.03186  -0.02878  -0.02546
 Alpha virt. eigenvalues --   -0.02342  -0.01801  -0.01136  -0.00975   0.00747
 Alpha virt. eigenvalues --    0.01702   0.02088   0.02320   0.02329   0.02710
 Alpha virt. eigenvalues --    0.03179   0.03568   0.04097   0.05276   0.05618
 Alpha virt. eigenvalues --    0.06070   0.06344   0.06578   0.07050   0.07393
 Alpha virt. eigenvalues --    0.07731   0.08600   0.09763   0.10714   0.10798
 Alpha virt. eigenvalues --    0.11116   0.11127   0.12858   0.13645   0.15541
 Alpha virt. eigenvalues --    0.15942   0.16629   0.18279   0.18672   0.19065
 Alpha virt. eigenvalues --    0.20861   0.21148   0.21925   0.21958   0.24853
 Alpha virt. eigenvalues --    0.25570   0.25767   0.27157   0.27305   0.29198
 Alpha virt. eigenvalues --    0.30166   0.30844   0.31670   0.32604   0.33230
 Alpha virt. eigenvalues --    0.34096   0.35600   0.38618   0.39610   0.41623
 Alpha virt. eigenvalues --    0.43078   0.45242   0.49709   0.54687   0.57935
 Alpha virt. eigenvalues --    0.61326   0.63524   0.63578   0.69587   0.74001
 Alpha virt. eigenvalues --    0.80441   0.98124   1.00371   1.03783   1.08886
 Alpha virt. eigenvalues --    1.12259   1.14543   1.15416   1.17968   1.21817
 Alpha virt. eigenvalues --    1.22191   1.23231   1.24440   1.25025   1.29153
 Alpha virt. eigenvalues --    1.29937   1.32706   1.33287   1.34471   1.36676
 Alpha virt. eigenvalues --    1.44253   1.50624   1.53353   1.53729   1.65918
 Alpha virt. eigenvalues --    1.75602   1.75900   1.77592   1.77949   1.77998
 Alpha virt. eigenvalues --    1.78339   1.81413   1.83292   1.83301   1.84213
 Alpha virt. eigenvalues --    1.85586   1.86954   1.88300   1.94069   1.95919
 Alpha virt. eigenvalues --    2.02709   2.06912   2.07898   2.15015   2.20714
 Alpha virt. eigenvalues --    2.25440   2.30838   2.56986   2.73334   2.81336
 Alpha virt. eigenvalues --    2.85702   3.55113   3.93178   4.08520   4.09895
 Alpha virt. eigenvalues --    4.16123   4.38495
          Condensed to atoms (all electrons):
              1          2          3          4          5          6
     1  O    9.014673   0.024700   0.090656   0.024706   0.068118  -0.163048
     2  O    0.024700   8.870582   0.099907  -0.057261   0.095960  -0.105053
     3  P    0.090656   0.099907  12.600911   0.099861   0.040540   0.286021
     4  O    0.024706  -0.057261   0.099861   8.870623   0.096035  -0.105034
     5  Ca   0.068118   0.095960   0.040540   0.096035  18.298257   0.024181
     6  O   -0.163048  -0.105053   0.286021  -0.105034   0.024181   8.823488
     7  Ca   0.068236  -0.015813   0.023989  -0.015786  -0.016892   0.102533
     8  O   -0.000135  -0.000083   0.000889  -0.000084  -0.002789   0.002519
     9  Ca  -0.000867  -0.001661   0.003822  -0.001704  -0.032376   0.004147
              7          8          9
     1  O    0.068236  -0.000135  -0.000867
     2  O   -0.015813  -0.000083  -0.001661
     3  P    0.023989   0.000889   0.003822
     4  O   -0.015786  -0.000084  -0.001704
     5  Ca  -0.016892  -0.002789  -0.032376
     6  O    0.102533   0.002519   0.004147
     7  Ca  18.364621   0.163200  -0.027665
     8  O    0.163200   8.733180   0.268397
     9  Ca  -0.027665   0.268397  18.339338
 Mulliken atomic charges:
              1
     1  O   -1.127039
     2  O   -0.911277
     3  P    1.753404
     4  O   -0.911355
     5  Ca   1.428966
     6  O   -0.869753
     7  Ca   1.353578
     8  O   -1.165093
     9  Ca   1.448569
 Sum of Mulliken charges=   1.00000
 Atomic charges with hydrogens summed into heavy atoms:
              1
     1  O   -1.127039
     2  O   -0.911277
     3  P    1.753404
     4  O   -0.911355
     5  Ca   1.428966
     6  O   -0.869753
     7  Ca   1.353578
     8  O   -1.165093
     9  Ca   1.448569
 Sum of Mulliken charges=   1.00000
 Electronic spatial extent (au):  <R**2>=  4221.9543
 Charge=     1.0000 electrons
 Dipole moment (field-independent basis, Debye):
    X=   -17.8537    Y=   -10.6600    Z=    -0.0052  Tot=    20.7940
 Quadrupole moment (field-independent basis, Debye-Ang):
   XX=   125.6997   YY=   -78.0185   ZZ=   -85.8590
   XY=   -35.6431   XZ=    -0.0192   YZ=    -0.0049
 Traceless Quadrupole moment (field-independent basis, Debye-Ang):
   XX=   138.4256   YY=   -65.2926   ZZ=   -73.1330
   XY=   -35.6431   XZ=    -0.0192   YZ=    -0.0049
 Octapole moment (field-independent basis, Debye-Ang**2):
  XXX=  -710.6177  YYY=   -40.4445  ZZZ=    -0.0569  XYY=    13.5435
  XXY=  -145.5945  XXZ=     0.2981  XZZ=   -43.6935  YZZ=   -14.7439
  YYZ=     0.0203  XYZ=     0.0062
 Hexadecapole moment (field-independent basis, Debye-Ang**3):
 XXXX=  2411.3461 YYYY=  -366.0802 ZZZZ=  -230.5752 XXXY=  -448.1252
 XXXZ=    -1.1208 YYYX=  -105.0842 YYYZ=    -0.0061 ZZZX=    -0.1440
 ZZZY=    -0.0253 XXYY=  -576.6807 XXZZ=  -734.7765 YYZZ=   -99.7883
 XXYZ=    -0.0376 YYXZ=     0.0492 ZZXY=   -44.6639
 N-N= 9.224480132291D+02 E-N=-8.349055911976D+03  KE= 2.742136885915D+03
 Merz-Kollman atomic radii used.
 Read replacement radii for each type of atom:
 Rad(20) =   1.188000000000D+00
 Atom Element Radius
    1     8    1.40
    2     8    1.40
    3    15    1.80
    4     8    1.40
    5    20    1.19
    6     8    1.40
    7    20    1.19
    8     8    1.40
    9    20    1.19

 **********************************************************************

            Electrostatic Properties Using The SCF Density

 **********************************************************************

       Atomic Center    1 is at   1.143640 -0.843661 -0.001581
       Atomic Center    2 is at   2.664621  0.711268 -1.247781
       Atomic Center    3 is at   1.719921  0.735578  0.000439
       Atomic Center    4 is at   2.662441  0.708888  1.250279
       Atomic Center    5 is at   3.542150 -1.045523  0.000539
       Atomic Center    6 is at   0.463462  1.626839  0.000269
       Atomic Center    7 is at  -1.037919 -0.101909 -0.002461
       Atomic Center    8 is at  -3.225870 -0.349847 -0.000051
       Atomic Center    9 is at  -5.277489 -0.145646  0.001139
     824 points will be used for fitting atomic charges
 Fitting point charges to eletrostatic potential
 Charges from ESP fit, RMS=   0.00531 RRMS=   0.03484:
 Charge=   1.00000 Dipole=   -18.4335   -10.7815    -0.0071 Tot=    21.3550
              1
     1  O   -1.307097
     2  O   -1.015413
     3  P    1.753894
     4  O   -1.015367
     5  Ca   1.680758
     6  O   -0.963594
     7  Ca   1.800911
     8  O   -1.579385
     9  Ca   1.645293
 -----------------------------------------------------------------

              Electrostatic Properties (Atomic Units)

 -----------------------------------------------------------------
    Center     Electric         -------- Electric Field --------
               Potential          X             Y             Z
 -----------------------------------------------------------------
    1 Atom    -22.301148
    2 Atom    -22.324384
    3 Atom    -53.963615
    4 Atom    -22.324381
    5 Atom    -80.034271
    6 Atom    -22.298987
    7 Atom    -80.115786
    8 Atom    -22.301606
    9 Atom    -79.965020
 -----------------------------------------------------------------
 1\1\GINC-N034\SP\RB3LYP\6-31+G(d,p)\Ca3O5P1(1+)\TIMN\12-Jun-2015\0\\# 
 b3lyp/6-31+G(d,p) int=ultrafine pop=(ReadRadii,MK)\\mol_17.26.6.pdbcc_
 plusQ.z58472.zip.xyz\\1,1\O,0,1.14364,-0.84366,-0.00158\O,0,2.66462,0.
 71127,-1.24778\P,0,1.71992,0.73558,0.00044\O,0,2.66244,0.70889,1.25028
 \Ca,0,3.54215,-1.04552,0.00054\O,0,0.46346,1.62684,0.00027\Ca,0,-1.037
 92,-0.10191,-0.00246\O,0,-3.22587,-0.34985,-0.00005\Ca,0,-5.27749,-0.1
 4565,0.00114\\Version=EM64T-G03RevE.01\State=1-A\HF=-2750.2415189\RMSD
 =5.325e-05\Thermal=0.\Dipole=-7.0242001,-4.1939761,-0.0020623\PG=C01 [
 X(Ca3O5P1)]\\@


 THE MORE ACCURATE THE CALCULATIONS BECOME, THE MORE THE CONCEPTS
 TEND TO VANISH INTO THIN AIR.
     -- R.S. MULLIKEN, J.C.P. 43,S2(1965)
 Job cpu time:  0 days  0 hours  2 minutes 27.7 seconds.
 File lengths (MBytes):  RWF=     36 Int=      0 D2E=      0 Chk=     11 Scr=      1
 Normal termination of Gaussian 03 at Fri Jun 12 18:02:54 2015.
