 Entering Gaussian System, Link 0=/home/timn/tmp/g03.e01/g03
 Input=mol_16.4.13.pdbcc_plusQ.out.z51564.zip.xyz.gjf
 Output=mol_16.4.13.pdbcc_plusQ.out.z51564.zip.xyz.out
 Initial command:
 /home/timn/tmp/g03.e01/l1.exe /home/timn/tmp/g03.e01/Gau-12312.inp -scrdir=/home/timn/tmp/g03.e01/
 Default is to use a total of   2 processors:
                                2 via shared-memory
                                1 via Linda
 Entering Link 1 = /home/timn/tmp/g03.e01/l1.exe PID=     12313.
  
 Copyright (c) 1988,1990,1992,1993,1995,1998,2003,2004,2007, Gaussian, Inc.
                  All Rights Reserved.
  
 This is the Gaussian(R) 03 program.  It is based on the
 the Gaussian(R) 98 system (copyright 1998, Gaussian, Inc.),
 the Gaussian(R) 94 system (copyright 1995, Gaussian, Inc.),
 the Gaussian 92(TM) system (copyright 1992, Gaussian, Inc.),
 the Gaussian 90(TM) system (copyright 1990, Gaussian, Inc.),
 the Gaussian 88(TM) system (copyright 1988, Gaussian, Inc.),
 the Gaussian 86(TM) system (copyright 1986, Carnegie Mellon
 University), and the Gaussian 82(TM) system (copyright 1983,
 Carnegie Mellon University). Gaussian is a federally registered
 trademark of Gaussian, Inc.
  
 This software contains proprietary and confidential information,
 including trade secrets, belonging to Gaussian, Inc.
  
 This software is provided under written license and may be
 used, copied, transmitted, or stored only in accord with that
 written license.
  
 The following legend is applicable only to US Government
 contracts under FAR:
  
                    RESTRICTED RIGHTS LEGEND
  
 Use, reproduction and disclosure by the US Government is
 subject to restrictions as set forth in subparagraphs (a)
 and (c) of the Commercial Computer Software - Restricted
 Rights clause in FAR 52.227-19.
  
 Gaussian, Inc.
 340 Quinnipiac St., Bldg. 40, Wallingford CT 06492
  
  
 ---------------------------------------------------------------
 Warning -- This program may not be used in any manner that
 competes with the business of Gaussian, Inc. or will provide
 assistance to any competitor of Gaussian, Inc.  The licensee
 of this program is prohibited from giving any competitor of
 Gaussian, Inc. access to this program.  By using this program,
 the user acknowledges that Gaussian, Inc. is engaged in the
 business of creating and licensing software in the field of
 computational chemistry and represents and warrants to the
 licensee that it is not a competitor of Gaussian, Inc. and that
 it will not use this program in any manner prohibited above.
 ---------------------------------------------------------------
  

 Cite this work as:
 Gaussian 03, Revision E.01,
 M. J. Frisch, G. W. Trucks, H. B. Schlegel, G. E. Scuseria, 
 M. A. Robb, J. R. Cheeseman, J. A. Montgomery, Jr., T. Vreven, 
 K. N. Kudin, J. C. Burant, J. M. Millam, S. S. Iyengar, J. Tomasi, 
 V. Barone, B. Mennucci, M. Cossi, G. Scalmani, N. Rega, 
 G. A. Petersson, H. Nakatsuji, M. Hada, M. Ehara, K. Toyota, 
 R. Fukuda, J. Hasegawa, M. Ishida, T. Nakajima, Y. Honda, O. Kitao, 
 H. Nakai, M. Klene, X. Li, J. E. Knox, H. P. Hratchian, J. B. Cross, 
 V. Bakken, C. Adamo, J. Jaramillo, R. Gomperts, R. E. Stratmann, 
 O. Yazyev, A. J. Austin, R. Cammi, C. Pomelli, J. W. Ochterski, 
 P. Y. Ayala, K. Morokuma, G. A. Voth, P. Salvador, J. J. Dannenberg, 
 V. G. Zakrzewski, S. Dapprich, A. D. Daniels, M. C. Strain, 
 O. Farkas, D. K. Malick, A. D. Rabuck, K. Raghavachari, 
 J. B. Foresman, J. V. Ortiz, Q. Cui, A. G. Baboul, S. Clifford, 
 J. Cioslowski, B. B. Stefanov, G. Liu, A. Liashenko, P. Piskorz, 
 I. Komaromi, R. L. Martin, D. J. Fox, T. Keith, M. A. Al-Laham, 
 C. Y. Peng, A. Nanayakkara, M. Challacombe, P. M. W. Gill, 
 B. Johnson, W. Chen, M. W. Wong, C. Gonzalez, and J. A. Pople, 
 Gaussian, Inc., Wallingford CT, 2004.
 
 ******************************************
 Gaussian 03:  EM64T-G03RevE.01 11-Sep-2007
                12-Jun-2015 
 ******************************************
 %nproc=2
 Will use up to    2 processors via shared memory.
 Default route:  MP2=Direct MaxDisk=2000MB
 ----------------------------------------------------
 # b3lyp/6-31+G(d,p) int=ultrafine pop=(ReadRadii,MK)
 ----------------------------------------------------

 Warning!  SCF SP cutoffs with diffuse functions may be unreliable.
 Consider SCF=Tight

 1/38=1/1;
 2/17=6,18=5,40=1/2;
 3/5=1,6=6,7=111,11=2,16=1,25=1,30=1,74=-5,75=5/1,2,3;
 4//1;
 5/5=2,32=1,38=5/2;
 6/7=2,8=2,9=2,10=2,15=8,20=101,28=1/1,2;
 99/5=1,9=1/99;
 ------------------------------------------
 mol_16.4.13.pdbcc_plusQ.out.z51564.zip.xyz
 ------------------------------------------
 Symbolic Z-matrix:
 Charge =  1 Multiplicity = 1
 O                     2.16068  -1.04898   0.76534 
 O                     2.16224  -1.04889  -0.76453 
 P                     3.07469   0.27197   0.00133 
 O                     2.04712   1.41789   0.00046 
 Ca                    0.11021   0.06743  -0.00152 
 O                    -2.07004   0.02488  -0.00422 
 Ca                   -4.13623  -0.00937   0.00169 
 
                          Input orientation:                          
 ---------------------------------------------------------------------
 Center     Atomic     Atomic              Coordinates (Angstroms)
 Number     Number      Type              X           Y           Z
 ---------------------------------------------------------------------
    1          8             0        2.160680   -1.048980    0.765340
    2          8             0        2.162240   -1.048890   -0.764530
    3         15             0        3.074690    0.271970    0.001330
    4          8             0        2.047120    1.417890    0.000460
    5         20             0        0.110210    0.067430   -0.001520
    6          8             0       -2.070040    0.024880   -0.004220
    7         20             0       -4.136230   -0.009370    0.001690
 ---------------------------------------------------------------------
                    Distance matrix (angstroms):
                    1          2          3          4          5
     1  O    0.000000
     2  O    1.529871   0.000000
     3  P    1.778773   1.778701   0.000000
     4  O    2.585224   2.585240   1.539166   0.000000
     5  Ca   2.457412   2.457475   2.971529   2.361221   0.000000
     6  O    4.432199   4.432070   5.150663   4.346436   2.180667
     7  Ca   6.427677   6.429496   7.216406   6.345935   4.247136
                    6          7
     6  O    0.000000
     7  Ca   2.066482   0.000000
 Stoichiometry    Ca2O4P(1+)
 Framework group  C1[X(Ca2O4P)]
 Deg. of freedom    15
 Full point group                 C1
 Largest Abelian subgroup         C1      NOp   1
 Largest concise Abelian subgroup C1      NOp   1
                         Standard orientation:                         
 ---------------------------------------------------------------------
 Center     Atomic     Atomic              Coordinates (Angstroms)
 Number     Number      Type              X           Y           Z
 ---------------------------------------------------------------------
    1          8             0        2.160680   -1.048980    0.765343
    2          8             0        2.162240   -1.048890   -0.764527
    3         15             0        3.074691    0.271970    0.001333
    4          8             0        2.047121    1.417890    0.000463
    5         20             0        0.110211    0.067431   -0.001517
    6          8             0       -2.070039    0.024881   -0.004217
    7         20             0       -4.136229   -0.009369    0.001693
 ---------------------------------------------------------------------
 Rotational constants (GHZ):      5.7067911      0.3946162      0.3794692
 Standard basis: 6-31+G(d,p) (6D, 7F)
 There are   153 symmetry adapted basis functions of A   symmetry.
 Integral buffers will be    131072 words long.
 Raffenetti 2 integral format.
 Two-electron integral symmetry is turned on.
   153 basis functions,   344 primitive gaussians,   153 cartesian basis functions
    43 alpha electrons       43 beta electrons
       nuclear repulsion energy       545.9087554815 Hartrees.
 NAtoms=    7 NActive=    7 NUniq=    7 SFac= 7.50D-01 NAtFMM=   80 NAOKFM=F Big=F
 One-electron integrals computed using PRISM.
 NBasis=   153 RedAO= T  NBF=   153
 NBsUse=   153 1.00D-06 NBFU=   153
 Harris functional with IExCor=  402 diagonalized for initial guess.
 ExpMin= 7.10D-03 ExpMax= 3.53D+04 ExpMxC= 5.30D+03 IAcc=3 IRadAn=         5 AccDes= 0.00D+00
 HarFok:  IExCor= 402 AccDes= 0.00D+00 IRadAn=         5 IDoV=1
 ScaDFX=  1.000000  1.000000  1.000000  1.000000
 Initial guess orbital symmetries:
       Occupied  (A) (A) (A) (A) (A) (A) (A) (A) (A) (A) (A) (A)
                 (A) (A) (A) (A) (A) (A) (A) (A) (A) (A) (A) (A)
                 (A) (A) (A) (A) (A) (A) (A) (A) (A) (A) (A) (A)
                 (A) (A) (A) (A) (A) (A) (A)
       Virtual   (A) (A) (A) (A) (A) (A) (A) (A) (A) (A) (A) (A)
                 (A) (A) (A) (A) (A) (A) (A) (A) (A) (A) (A) (A)
                 (A) (A) (A) (A) (A) (A) (A) (A) (A) (A) (A) (A)
                 (A) (A) (A) (A) (A) (A) (A) (A) (A) (A) (A) (A)
                 (A) (A) (A) (A) (A) (A) (A) (A) (A) (A) (A) (A)
                 (A) (A) (A) (A) (A) (A) (A) (A) (A) (A) (A) (A)
                 (A) (A) (A) (A) (A) (A) (A) (A) (A) (A) (A) (A)
                 (A) (A) (A) (A) (A) (A) (A) (A) (A) (A) (A) (A)
                 (A) (A) (A) (A) (A) (A) (A) (A) (A) (A) (A) (A)
                 (A) (A)
 The electronic state of the initial guess is 1-A.
 Requested convergence on RMS density matrix=1.00D-04 within 128 cycles.
 Requested convergence on MAX density matrix=1.00D-02.
 Requested convergence on             energy=1.00D-02.
 No special actions if energy rises.
 SCF Done:  E(RB+HF-LYP) =  -1997.23311527     A.U. after    8 cycles
             Convg  =    0.4121D-04             -V/T =  2.0031
             S**2   =   0.0000

 **********************************************************************

            Population analysis using the SCF density.

 **********************************************************************

 Orbital symmetries:
       Occupied  (A) (A) (A) (A) (A) (A) (A) (A) (A) (A) (A) (A)
                 (A) (A) (A) (A) (A) (A) (A) (A) (A) (A) (A) (A)
                 (A) (A) (A) (A) (A) (A) (A) (A) (A) (A) (A) (A)
                 (A) (A) (A) (A) (A) (A) (A)
       Virtual   (A) (A) (A) (A) (A) (A) (A) (A) (A) (A) (A) (A)
                 (A) (A) (A) (A) (A) (A) (A) (A) (A) (A) (A) (A)
                 (A) (A) (A) (A) (A) (A) (A) (A) (A) (A) (A) (A)
                 (A) (A) (A) (A) (A) (A) (A) (A) (A) (A) (A) (A)
                 (A) (A) (A) (A) (A) (A) (A) (A) (A) (A) (A) (A)
                 (A) (A) (A) (A) (A) (A) (A) (A) (A) (A) (A) (A)
                 (A) (A) (A) (A) (A) (A) (A) (A) (A) (A) (A) (A)
                 (A) (A) (A) (A) (A) (A) (A) (A) (A) (A) (A) (A)
                 (A) (A) (A) (A) (A) (A) (A) (A) (A) (A) (A) (A)
                 (A) (A)
 The electronic state is 1-A.
 Alpha  occ. eigenvalues -- -145.59693-145.47158 -77.28032 -19.31644 -19.31619
 Alpha  occ. eigenvalues --  -19.23411 -19.17989 -15.66447 -15.54054 -12.79669
 Alpha  occ. eigenvalues --  -12.79669 -12.79530 -12.67315 -12.67283 -12.67090
 Alpha  occ. eigenvalues --   -6.73462  -4.89831  -4.89743  -4.89208  -2.03293
 Alpha  occ. eigenvalues --   -1.91377  -1.30802  -1.30800  -1.29886  -1.23032
 Alpha  occ. eigenvalues --   -1.19314  -1.19114  -1.17487  -1.07231  -0.95538
 Alpha  occ. eigenvalues --   -0.92165  -0.67739  -0.55430  -0.54732  -0.53186
 Alpha  occ. eigenvalues --   -0.48932  -0.43244  -0.41494  -0.39200  -0.38021
 Alpha  occ. eigenvalues --   -0.37921  -0.36264  -0.36233
 Alpha virt. eigenvalues --   -0.26533  -0.16464  -0.16435  -0.15550  -0.15149
 Alpha virt. eigenvalues --   -0.12333  -0.12130  -0.08636  -0.08575  -0.08079
 Alpha virt. eigenvalues --   -0.06180  -0.05975  -0.05790  -0.05294  -0.04757
 Alpha virt. eigenvalues --   -0.03798  -0.03796  -0.03591  -0.02641  -0.01417
 Alpha virt. eigenvalues --   -0.00349   0.00153   0.00580   0.00582   0.00975
 Alpha virt. eigenvalues --    0.01471   0.02824   0.03647   0.04078   0.04118
 Alpha virt. eigenvalues --    0.04180   0.04596   0.05346   0.05951   0.07911
 Alpha virt. eigenvalues --    0.08319   0.09112   0.09846   0.11840   0.13154
 Alpha virt. eigenvalues --    0.13773   0.14772   0.16407   0.17883   0.19908
 Alpha virt. eigenvalues --    0.20994   0.21500   0.21966   0.23275   0.26100
 Alpha virt. eigenvalues --    0.27762   0.29786   0.30391   0.31328   0.33293
 Alpha virt. eigenvalues --    0.33830   0.36868   0.40390   0.41948   0.44163
 Alpha virt. eigenvalues --    0.48458   0.51461   0.59098   0.61920   0.74258
 Alpha virt. eigenvalues --    0.74327   0.82655   0.93759   1.06082   1.09492
 Alpha virt. eigenvalues --    1.10467   1.10816   1.13294   1.14779   1.14859
 Alpha virt. eigenvalues --    1.17086   1.18229   1.19921   1.26970   1.29778
 Alpha virt. eigenvalues --    1.38142   1.43869   1.48313   1.50398   1.55770
 Alpha virt. eigenvalues --    1.59965   1.67018   1.69955   1.72152   1.72402
 Alpha virt. eigenvalues --    1.74438   1.75673   1.75780   1.82170   1.84304
 Alpha virt. eigenvalues --    1.89871   1.91975   1.97396   2.05092   2.15335
 Alpha virt. eigenvalues --    2.17732   2.28230   2.34247   2.70534   3.04190
 Alpha virt. eigenvalues --    3.47327   3.86824   3.99700   4.09052   4.13411
          Condensed to atoms (all electrons):
              1          2          3          4          5          6
     1  O    8.294538   0.019656   0.048070  -0.016699   0.039849   0.000206
     2  O    0.019656   8.294946   0.048219  -0.016700   0.039646   0.000194
     3  P    0.048070   0.048219  14.152306   0.129106  -0.067115   0.005126
     4  O   -0.016699  -0.016700   0.129106   8.554016   0.047735   0.001070
     5  Ca   0.039849   0.039646  -0.067115   0.047735  18.286904   0.178883
     6  O    0.000206   0.000194   0.005126   0.001070   0.178883   8.732314
     7  Ca   0.002276   0.002268  -0.007110   0.004618  -0.012096   0.261594
              7
     1  O    0.002276
     2  O    0.002268
     3  P   -0.007110
     4  O    0.004618
     5  Ca  -0.012096
     6  O    0.261594
     7  Ca  18.267383
 Mulliken atomic charges:
              1
     1  O   -0.387895
     2  O   -0.388230
     3  P    0.691398
     4  O   -0.703147
     5  Ca   1.486194
     6  O   -1.179387
     7  Ca   1.481067
 Sum of Mulliken charges=   1.00000
 Atomic charges with hydrogens summed into heavy atoms:
              1
     1  O   -0.387895
     2  O   -0.388230
     3  P    0.691398
     4  O   -0.703147
     5  Ca   1.486194
     6  O   -1.179387
     7  Ca   1.481067
 Sum of Mulliken charges=   1.00000
 Electronic spatial extent (au):  <R**2>=  2454.0485
 Charge=     1.0000 electrons
 Dipole moment (field-independent basis, Debye):
    X=   -21.7870    Y=     0.0846    Z=     0.0288  Tot=    21.7872
 Quadrupole moment (field-independent basis, Debye-Ang):
   XX=    44.8503   YY=   -65.8640   ZZ=   -56.6695
   XY=     1.5629   XZ=    -0.0992   YZ=    -0.0016
 Traceless Quadrupole moment (field-independent basis, Debye-Ang):
   XX=    70.7447   YY=   -39.9696   ZZ=   -30.7751
   XY=     1.5629   XZ=    -0.0992   YZ=    -0.0016
 Octapole moment (field-independent basis, Debye-Ang**2):
  XXX=  -542.6236  YYY=    -6.6393  ZZZ=     0.0409  XYY=   -37.5937
  XXY=     2.3812  XXZ=     0.3580  XZZ=   -18.7597  YZZ=     2.0435
  YYZ=     0.0103  XYZ=    -0.0053
 Hexadecapole moment (field-independent basis, Debye-Ang**3):
 XXXX=  -114.9713 YYYY=  -238.2617 ZZZZ=   -96.6201 XXXY=    21.1822
 XXXZ=    -1.2141 YYYX=   -11.8597 YYYZ=    -0.0037 ZZZX=    -0.2099
 ZZZY=    -0.0006 XXYY=  -455.2636 XXZZ=  -397.5121 YYZZ=   -56.5851
 XXYZ=    -0.0109 YYXZ=    -0.0714 ZZXY=     4.5693
 N-N= 5.459087554815D+02 E-N=-5.811745026378D+03  KE= 1.991041948441D+03
 Merz-Kollman atomic radii used.
 Read replacement radii for each type of atom:
 Rad(20) =   1.188000000000D+00
 Atom Element Radius
    1     8    1.40
    2     8    1.40
    3    15    1.80
    4     8    1.40
    5    20    1.19
    6     8    1.40
    7    20    1.19

 **********************************************************************

            Electrostatic Properties Using The SCF Density

 **********************************************************************

       Atomic Center    1 is at   2.160680 -1.048980  0.765343
       Atomic Center    2 is at   2.162240 -1.048890 -0.764527
       Atomic Center    3 is at   3.074691  0.271970  0.001333
       Atomic Center    4 is at   2.047121  1.417890  0.000463
       Atomic Center    5 is at   0.110211  0.067431 -0.001517
       Atomic Center    6 is at  -2.070039  0.024881 -0.004217
       Atomic Center    7 is at  -4.136229 -0.009369  0.001693
     779 points will be used for fitting atomic charges
 Fitting point charges to eletrostatic potential
 Charges from ESP fit, RMS=   0.00541 RRMS=   0.03592:
 Charge=   1.00000 Dipole=   -22.1831     0.0240     0.0327 Tot=    22.1831
              1
     1  O   -0.366531
     2  O   -0.366114
     3  P    0.598991
     4  O   -0.697416
     5  Ca   1.751975
     6  O   -1.604286
     7  Ca   1.683380
 -----------------------------------------------------------------

              Electrostatic Properties (Atomic Units)

 -----------------------------------------------------------------
    Center     Electric         -------- Electric Field --------
               Potential          X             Y             Z
 -----------------------------------------------------------------
    1 Atom    -22.158010
    2 Atom    -22.158719
    3 Atom    -53.936545
    4 Atom    -22.230408
    5 Atom    -80.068154
    6 Atom    -22.280231
    7 Atom    -79.944864
 -----------------------------------------------------------------
 1\1\GINC-N034\SP\RB3LYP\6-31+G(d,p)\Ca2O4P1(1+)\TIMN\12-Jun-2015\0\\# 
 b3lyp/6-31+G(d,p) int=ultrafine pop=(ReadRadii,MK)\\mol_16.4.13.pdbcc_
 plusQ.out.z51564.zip.xyz\\1,1\O,0,2.16068,-1.04898,0.76534\O,0,2.16224
 ,-1.04889,-0.76453\P,0,3.07469,0.27197,0.00133\O,0,2.04712,1.41789,0.0
 0046\Ca,0,0.11021,0.06743,-0.00152\O,0,-2.07004,0.02488,-0.00422\Ca,0,
 -4.13623,-0.00937,0.00169\\Version=EM64T-G03RevE.01\State=1-A\HF=-1997
 .2331153\RMSD=4.121e-05\Thermal=0.\Dipole=-8.5716628,0.0333005,0.01133
 09\PG=C01 [X(Ca2O4P1)]\\@


 I WOULD TAKE COUNSEL OF MYSELF.
 I WOULD STOP AND LOOK WITHIN
 AND LOOKING WITHIN, LOOK BACK, ALSO
 THAT I MAY LOOK AHEAD WITH CLEARER UNDERSTANDING
 OF THE WAY I HAVE BEEN MOVING, AND IN WHAT DIRECTION.
 I NEED TO KNOW IF I AM GOING FORWARD OR RETREATING,
 WHETHER I HAVE BEEN WASTING, OR ENJOYING
 THE PRECIOUS MOMENTS OF LIFE.  THERE HAVE BEEN FRICTIONS,
 ANNOYANCES AND SOMETIMES WRATH,
 BUT WERE THEY BECAUSE I WAS RIGHT AND OTHERS WRONG.....
 HAVE I HAD MY THOUGHTS TOO SHARPLY FOCUSED
 ON THAT WHICH PLEASED ME, SERVED MY SELF-ESTEEM,
 UNDERGIRDED MY SECURITY,
 OF WHICH I DID NOT INQUIRE WHETHER IT SERVED OR HAMPERED OTHERS.....
 HAVE I BEEN TRYING TO STOP THE CLOCK
 TO HOLD THE WORLD
 IN PERPETUATION OF WHAT WAS AN IS ALREADY SLIPPING AWAY.....
 HAVE I BEEN CRITICAL OF OTHERS FOR WHAT REALLY NEEDED CHANGING IN ME...
 LET ME INDEED TAKE COUNSEL OF MYSELF
 AND SET MY DIRECTIONS STRAIGHT.

                          R.T. WESTON AS ADAPTED BY D. OSBORN 1967
 Job cpu time:  0 days  0 hours  0 minutes 50.1 seconds.
 File lengths (MBytes):  RWF=     28 Int=      0 D2E=      0 Chk=     10 Scr=      1
 Normal termination of Gaussian 03 at Fri Jun 12 17:46:27 2015.
