 Entering Gaussian System, Link 0=/home/timn/tmp/g03.e01/g03
 Input=mol_17.25.58.pdbccc_plusQ.z58362.zip.xyz.gjf
 Output=mol_17.25.58.pdbccc_plusQ.z58362.zip.xyz.out
 Initial command:
 /home/timn/tmp/g03.e01/l1.exe /home/timn/tmp/g03.e01/Gau-14665.inp -scrdir=/home/timn/tmp/g03.e01/
 Default is to use a total of   2 processors:
                                2 via shared-memory
                                1 via Linda
 Entering Link 1 = /home/timn/tmp/g03.e01/l1.exe PID=     14666.
  
 Copyright (c) 1988,1990,1992,1993,1995,1998,2003,2004,2007, Gaussian, Inc.
                  All Rights Reserved.
  
 This is the Gaussian(R) 03 program.  It is based on the
 the Gaussian(R) 98 system (copyright 1998, Gaussian, Inc.),
 the Gaussian(R) 94 system (copyright 1995, Gaussian, Inc.),
 the Gaussian 92(TM) system (copyright 1992, Gaussian, Inc.),
 the Gaussian 90(TM) system (copyright 1990, Gaussian, Inc.),
 the Gaussian 88(TM) system (copyright 1988, Gaussian, Inc.),
 the Gaussian 86(TM) system (copyright 1986, Carnegie Mellon
 University), and the Gaussian 82(TM) system (copyright 1983,
 Carnegie Mellon University). Gaussian is a federally registered
 trademark of Gaussian, Inc.
  
 This software contains proprietary and confidential information,
 including trade secrets, belonging to Gaussian, Inc.
  
 This software is provided under written license and may be
 used, copied, transmitted, or stored only in accord with that
 written license.
  
 The following legend is applicable only to US Government
 contracts under FAR:
  
                    RESTRICTED RIGHTS LEGEND
  
 Use, reproduction and disclosure by the US Government is
 subject to restrictions as set forth in subparagraphs (a)
 and (c) of the Commercial Computer Software - Restricted
 Rights clause in FAR 52.227-19.
  
 Gaussian, Inc.
 340 Quinnipiac St., Bldg. 40, Wallingford CT 06492
  
  
 ---------------------------------------------------------------
 Warning -- This program may not be used in any manner that
 competes with the business of Gaussian, Inc. or will provide
 assistance to any competitor of Gaussian, Inc.  The licensee
 of this program is prohibited from giving any competitor of
 Gaussian, Inc. access to this program.  By using this program,
 the user acknowledges that Gaussian, Inc. is engaged in the
 business of creating and licensing software in the field of
 computational chemistry and represents and warrants to the
 licensee that it is not a competitor of Gaussian, Inc. and that
 it will not use this program in any manner prohibited above.
 ---------------------------------------------------------------
  

 Cite this work as:
 Gaussian 03, Revision E.01,
 M. J. Frisch, G. W. Trucks, H. B. Schlegel, G. E. Scuseria, 
 M. A. Robb, J. R. Cheeseman, J. A. Montgomery, Jr., T. Vreven, 
 K. N. Kudin, J. C. Burant, J. M. Millam, S. S. Iyengar, J. Tomasi, 
 V. Barone, B. Mennucci, M. Cossi, G. Scalmani, N. Rega, 
 G. A. Petersson, H. Nakatsuji, M. Hada, M. Ehara, K. Toyota, 
 R. Fukuda, J. Hasegawa, M. Ishida, T. Nakajima, Y. Honda, O. Kitao, 
 H. Nakai, M. Klene, X. Li, J. E. Knox, H. P. Hratchian, J. B. Cross, 
 V. Bakken, C. Adamo, J. Jaramillo, R. Gomperts, R. E. Stratmann, 
 O. Yazyev, A. J. Austin, R. Cammi, C. Pomelli, J. W. Ochterski, 
 P. Y. Ayala, K. Morokuma, G. A. Voth, P. Salvador, J. J. Dannenberg, 
 V. G. Zakrzewski, S. Dapprich, A. D. Daniels, M. C. Strain, 
 O. Farkas, D. K. Malick, A. D. Rabuck, K. Raghavachari, 
 J. B. Foresman, J. V. Ortiz, Q. Cui, A. G. Baboul, S. Clifford, 
 J. Cioslowski, B. B. Stefanov, G. Liu, A. Liashenko, P. Piskorz, 
 I. Komaromi, R. L. Martin, D. J. Fox, T. Keith, M. A. Al-Laham, 
 C. Y. Peng, A. Nanayakkara, M. Challacombe, P. M. W. Gill, 
 B. Johnson, W. Chen, M. W. Wong, C. Gonzalez, and J. A. Pople, 
 Gaussian, Inc., Wallingford CT, 2004.
 
 ******************************************
 Gaussian 03:  EM64T-G03RevE.01 11-Sep-2007
                12-Jun-2015 
 ******************************************
 %nproc=2
 Will use up to    2 processors via shared memory.
 Default route:  MP2=Direct MaxDisk=2000MB
 ----------------------------------------------------
 # b3lyp/6-31+G(d,p) int=ultrafine pop=(ReadRadii,MK)
 ----------------------------------------------------

 Warning!  SCF SP cutoffs with diffuse functions may be unreliable.
 Consider SCF=Tight

 1/38=1/1;
 2/17=6,18=5,40=1/2;
 3/5=1,6=6,7=111,11=2,16=1,25=1,30=1,74=-5,75=5/1,2,3;
 4//1;
 5/5=2,32=1,38=5/2;
 6/7=2,8=2,9=2,10=2,15=8,20=101,28=1/1,2;
 99/5=1,9=1/99;
 ----------------------------------------
 mol_17.25.58.pdbccc_plusQ.z58362.zip.xyz
 ----------------------------------------
 Symbolic Z-matrix:
 Charge =  1 Multiplicity = 1
 O                     3.1389   -0.53619  -0.76123 
 O                     3.13134  -0.53493   0.77167 
 P                     2.84975   1.02018   0.00243 
 Ca                   -3.34908  -0.85124   0.00278 
 O                     1.29685   1.09346  -0.00547 
 O                    -3.23358   1.27591   0.00236 
 Ca                   -1.0808    1.4275   -0.00248 
 O                    -1.09389  -0.94759  -0.0019 
 Ca                    0.99672  -1.48165  -0.0043 
 
                          Input orientation:                          
 ---------------------------------------------------------------------
 Center     Atomic     Atomic              Coordinates (Angstroms)
 Number     Number      Type              X           Y           Z
 ---------------------------------------------------------------------
    1          8             0        3.138900   -0.536190   -0.761230
    2          8             0        3.131340   -0.534930    0.771670
    3         15             0        2.849750    1.020180    0.002430
    4         20             0       -3.349080   -0.851240    0.002780
    5          8             0        1.296850    1.093460   -0.005470
    6          8             0       -3.233580    1.275910    0.002360
    7         20             0       -1.080800    1.427500   -0.002480
    8          8             0       -1.093890   -0.947590   -0.001900
    9         20             0        0.996720   -1.481650   -0.004300
 ---------------------------------------------------------------------
                    Distance matrix (angstroms):
                    1          2          3          4          5
     1  O    0.000000
     2  O    1.532919   0.000000
     3  P    1.757576   1.757666   0.000000
     4  Ca   6.540402   6.533536   6.475161   0.000000
     5  O    2.572952   2.573121   1.554648   5.036526   0.000000
     6  O    6.668979   6.662071   6.088703   2.130283   4.534109
     7  Ca   4.715681   4.710898   3.951602   3.215241   2.401002
     8  O    4.319993   4.315237   4.407316   2.257252   3.143491
     9  Ca   2.460848   2.460693   3.113345   4.391292   2.592541
                    6          7          8          9
     6  O    0.000000
     7  Ca   2.158116   0.000000
     8  O    3.085813   2.375126   0.000000
     9  Ca   5.049715   3.574807   2.157748   0.000000
 Stoichiometry    Ca3O5P(1+)
 Framework group  C1[X(Ca3O5P)]
 Deg. of freedom    21
 Full point group                 C1
 Largest Abelian subgroup         C1      NOp   1
 Largest concise Abelian subgroup C1      NOp   1
                         Standard orientation:                         
 ---------------------------------------------------------------------
 Center     Atomic     Atomic              Coordinates (Angstroms)
 Number     Number      Type              X           Y           Z
 ---------------------------------------------------------------------
    1          8             0        3.138900   -0.536190   -0.761229
    2          8             0        3.131340   -0.534930    0.771671
    3         15             0        2.849749    1.020180    0.002431
    4         20             0       -3.349080   -0.851243    0.002781
    5          8             0        1.296849    1.093459   -0.005469
    6          8             0       -3.233581    1.275907    0.002361
    7         20             0       -1.080801    1.427498   -0.002479
    8          8             0       -1.093890   -0.947592   -0.001899
    9         20             0        0.996721   -1.481651   -0.004299
 ---------------------------------------------------------------------
 Rotational constants (GHZ):      1.5900381      0.3792329      0.3133385
 Standard basis: 6-31+G(d,p) (6D, 7F)
 There are   199 symmetry adapted basis functions of A   symmetry.
 Integral buffers will be    131072 words long.
 Raffenetti 2 integral format.
 Two-electron integral symmetry is turned on.
   199 basis functions,   456 primitive gaussians,   199 cartesian basis functions
    57 alpha electrons       57 beta electrons
       nuclear repulsion energy       953.8797708540 Hartrees.
 NAtoms=    9 NActive=    9 NUniq=    9 SFac= 7.50D-01 NAtFMM=   80 NAOKFM=F Big=F
 One-electron integrals computed using PRISM.
 NBasis=   199 RedAO= T  NBF=   199
 NBsUse=   199 1.00D-06 NBFU=   199
 Harris functional with IExCor=  402 diagonalized for initial guess.
 ExpMin= 7.10D-03 ExpMax= 3.53D+04 ExpMxC= 5.30D+03 IAcc=3 IRadAn=         5 AccDes= 0.00D+00
 HarFok:  IExCor= 402 AccDes= 0.00D+00 IRadAn=         5 IDoV=1
 ScaDFX=  1.000000  1.000000  1.000000  1.000000
 Initial guess orbital symmetries:
       Occupied  (A) (A) (A) (A) (A) (A) (A) (A) (A) (A) (A) (A)
                 (A) (A) (A) (A) (A) (A) (A) (A) (A) (A) (A) (A)
                 (A) (A) (A) (A) (A) (A) (A) (A) (A) (A) (A) (A)
                 (A) (A) (A) (A) (A) (A) (A) (A) (A) (A) (A) (A)
                 (A) (A) (A) (A) (A) (A) (A) (A) (A)
       Virtual   (A) (A) (A) (A) (A) (A) (A) (A) (A) (A) (A) (A)
                 (A) (A) (A) (A) (A) (A) (A) (A) (A) (A) (A) (A)
                 (A) (A) (A) (A) (A) (A) (A) (A) (A) (A) (A) (A)
                 (A) (A) (A) (A) (A) (A) (A) (A) (A) (A) (A) (A)
                 (A) (A) (A) (A) (A) (A) (A) (A) (A) (A) (A) (A)
                 (A) (A) (A) (A) (A) (A) (A) (A) (A) (A) (A) (A)
                 (A) (A) (A) (A) (A) (A) (A) (A) (A) (A) (A) (A)
                 (A) (A) (A) (A) (A) (A) (A) (A) (A) (A) (A) (A)
                 (A) (A) (A) (A) (A) (A) (A) (A) (A) (A) (A) (A)
                 (A) (A) (A) (A) (A) (A) (A) (A) (A) (A) (A) (A)
                 (A) (A) (A) (A) (A) (A) (A) (A) (A) (A) (A) (A)
                 (A) (A) (A) (A) (A) (A) (A) (A) (A) (A)
 The electronic state of the initial guess is 1-A.
 Requested convergence on RMS density matrix=1.00D-04 within 128 cycles.
 Requested convergence on MAX density matrix=1.00D-02.
 Requested convergence on             energy=1.00D-02.
 No special actions if energy rises.
 EnCoef did     5 forward-backward iterations
 EnCoef did   100 forward-backward iterations
 EnCoef did     2 forward-backward iterations
 EnCoef did     2 forward-backward iterations
 SCF Done:  E(RB+HF-LYP) =  -2750.13248262     A.U. after    9 cycles
             Convg  =    0.7267D-04             -V/T =  2.0029
             S**2   =   0.0000

 **********************************************************************

            Population analysis using the SCF density.

 **********************************************************************

 Orbital symmetries:
       Occupied  (A) (A) (A) (A) (A) (A) (A) (A) (A) (A) (A) (A)
                 (A) (A) (A) (A) (A) (A) (A) (A) (A) (A) (A) (A)
                 (A) (A) (A) (A) (A) (A) (A) (A) (A) (A) (A) (A)
                 (A) (A) (A) (A) (A) (A) (A) (A) (A) (A) (A) (A)
                 (A) (A) (A) (A) (A) (A) (A) (A) (A)
       Virtual   (A) (A) (A) (A) (A) (A) (A) (A) (A) (A) (A) (A)
                 (A) (A) (A) (A) (A) (A) (A) (A) (A) (A) (A) (A)
                 (A) (A) (A) (A) (A) (A) (A) (A) (A) (A) (A) (A)
                 (A) (A) (A) (A) (A) (A) (A) (A) (A) (A) (A) (A)
                 (A) (A) (A) (A) (A) (A) (A) (A) (A) (A) (A) (A)
                 (A) (A) (A) (A) (A) (A) (A) (A) (A) (A) (A) (A)
                 (A) (A) (A) (A) (A) (A) (A) (A) (A) (A) (A) (A)
                 (A) (A) (A) (A) (A) (A) (A) (A) (A) (A) (A) (A)
                 (A) (A) (A) (A) (A) (A) (A) (A) (A) (A) (A) (A)
                 (A) (A) (A) (A) (A) (A) (A) (A) (A) (A) (A) (A)
                 (A) (A) (A) (A) (A) (A) (A) (A) (A) (A) (A) (A)
                 (A) (A) (A) (A) (A) (A) (A) (A) (A) (A)
 The electronic state is 1-A.
 Alpha  occ. eigenvalues -- -145.52146-145.47055-145.45745 -77.33858 -19.37000
 Alpha  occ. eigenvalues --  -19.36987 -19.29670 -19.17038 -19.10771 -15.59007
 Alpha  occ. eigenvalues --  -15.53954 -15.52659 -12.72252 -12.72238 -12.72052
 Alpha  occ. eigenvalues --  -12.67196 -12.67111 -12.67033 -12.65928 -12.65838
 Alpha  occ. eigenvalues --  -12.65707  -6.79172  -4.95531  -4.95447  -4.94936
 Alpha  occ. eigenvalues --   -1.96221  -1.91249  -1.90054  -1.28429  -1.24006
 Alpha  occ. eigenvalues --   -1.23838  -1.22359  -1.19122  -1.18896  -1.18221
 Alpha  occ. eigenvalues --   -1.18090  -1.17447  -1.17177  -1.12878  -1.01036
 Alpha  occ. eigenvalues --   -0.91708  -0.84708  -0.73767  -0.61686  -0.60230
 Alpha  occ. eigenvalues --   -0.58888  -0.54724  -0.49820  -0.47609  -0.44041
 Alpha  occ. eigenvalues --   -0.43353  -0.37879  -0.36790  -0.35762  -0.30232
 Alpha  occ. eigenvalues --   -0.28788  -0.28457
 Alpha virt. eigenvalues --   -0.20340  -0.19645  -0.17747  -0.17264  -0.15283
 Alpha virt. eigenvalues --   -0.12027  -0.11234  -0.10210  -0.09967  -0.09649
 Alpha virt. eigenvalues --   -0.09350  -0.08174  -0.07379  -0.07021  -0.06561
 Alpha virt. eigenvalues --   -0.05367  -0.05142  -0.04854  -0.04322  -0.04289
 Alpha virt. eigenvalues --   -0.04130  -0.03953  -0.03856  -0.03526  -0.03207
 Alpha virt. eigenvalues --   -0.03025  -0.02754  -0.02107  -0.02102  -0.00545
 Alpha virt. eigenvalues --    0.01326   0.02301   0.02379   0.03219   0.03779
 Alpha virt. eigenvalues --    0.03787   0.05149   0.05363   0.06083   0.06155
 Alpha virt. eigenvalues --    0.06409   0.06695   0.07183   0.07205   0.08913
 Alpha virt. eigenvalues --    0.09150   0.10083   0.10459   0.10603   0.11328
 Alpha virt. eigenvalues --    0.11424   0.12069   0.13196   0.15252   0.16078
 Alpha virt. eigenvalues --    0.16142   0.17248   0.17820   0.18676   0.19282
 Alpha virt. eigenvalues --    0.19795   0.21480   0.21989   0.24161   0.24419
 Alpha virt. eigenvalues --    0.26517   0.26987   0.28214   0.28847   0.29681
 Alpha virt. eigenvalues --    0.30230   0.32096   0.35873   0.36166   0.37842
 Alpha virt. eigenvalues --    0.39412   0.39931   0.41018   0.45009   0.47962
 Alpha virt. eigenvalues --    0.50992   0.54710   0.54999   0.60247   0.65749
 Alpha virt. eigenvalues --    0.70154   0.77216   0.85290   0.89394   1.03049
 Alpha virt. eigenvalues --    1.05894   1.06543   1.08651   1.10166   1.10410
 Alpha virt. eigenvalues --    1.12670   1.12959   1.16622   1.17683   1.18311
 Alpha virt. eigenvalues --    1.21355   1.23870   1.25970   1.29091   1.34534
 Alpha virt. eigenvalues --    1.35372   1.39331   1.44371   1.50651   1.50711
 Alpha virt. eigenvalues --    1.56278   1.60795   1.62606   1.64939   1.66463
 Alpha virt. eigenvalues --    1.67344   1.68342   1.75747   1.77924   1.80887
 Alpha virt. eigenvalues --    1.83279   1.84661   1.86772   1.88156   1.88704
 Alpha virt. eigenvalues --    1.91610   1.94500   1.95480   1.99664   2.03780
 Alpha virt. eigenvalues --    2.12294   2.17764   2.24698   2.30540   2.61796
 Alpha virt. eigenvalues --    2.98959   3.44013   3.90099   3.94261   4.02822
 Alpha virt. eigenvalues --    4.07735   4.08004
          Condensed to atoms (all electrons):
              1          2          3          4          5          6
     1  O    8.250324   0.014521   0.068005   0.001390  -0.006775  -0.000029
     2  O    0.014521   8.250203   0.069115   0.001654  -0.007903  -0.000028
     3  P    0.068005   0.069115  14.177778  -0.002357  -0.104089  -0.000573
     4  Ca   0.001390   0.001654  -0.002357  18.366651   0.005824   0.224019
     5  O   -0.006775  -0.007903  -0.104089   0.005824   8.876820  -0.003965
     6  O   -0.000029  -0.000028  -0.000573   0.224019  -0.003965   8.713304
     7  Ca  -0.000918  -0.001281  -0.016903  -0.025918   0.037003   0.234965
     8  O   -0.000098  -0.000040  -0.006289   0.096245  -0.013938  -0.023709
     9  Ca   0.048389   0.048619  -0.026034  -0.013855   0.011580  -0.004087
              7          8          9
     1  O   -0.000918  -0.000098   0.048389
     2  O   -0.001281  -0.000040   0.048619
     3  P   -0.016903  -0.006289  -0.026034
     4  Ca  -0.025918   0.096245  -0.013855
     5  O    0.037003  -0.013938   0.011580
     6  O    0.234965  -0.023709  -0.004087
     7  Ca  18.397451   0.043490  -0.004933
     8  O    0.043490   9.026676   0.196955
     9  Ca  -0.004933   0.196955  18.264684
 Mulliken atomic charges:
              1
     1  O   -0.374810
     2  O   -0.374861
     3  P    0.841347
     4  Ca   1.346347
     5  O   -0.794558
     6  O   -1.139898
     7  Ca   1.337043
     8  O   -1.319293
     9  Ca   1.478683
 Sum of Mulliken charges=   1.00000
 Atomic charges with hydrogens summed into heavy atoms:
              1
     1  O   -0.374810
     2  O   -0.374861
     3  P    0.841347
     4  Ca   1.346347
     5  O   -0.794558
     6  O   -1.139898
     7  Ca   1.337043
     8  O   -1.319293
     9  Ca   1.478683
 Sum of Mulliken charges=   1.00000
 Electronic spatial extent (au):  <R**2>=  3045.5802
 Charge=     1.0000 electrons
 Dipole moment (field-independent basis, Debye):
    X=    -0.4583    Y=    -7.5348    Z=    -0.0234  Tot=     7.5488
 Quadrupole moment (field-independent basis, Debye-Ang):
   XX=   -65.3571   YY=   -56.0194   ZZ=   -75.5970
   XY=    26.3181   XZ=    -0.0555   YZ=     0.0038
 Traceless Quadrupole moment (field-independent basis, Debye-Ang):
   XX=     0.3007   YY=     9.6385   ZZ=    -9.9392
   XY=    26.3181   XZ=    -0.0555   YZ=     0.0038
 Octapole moment (field-independent basis, Debye-Ang**2):
  XXX=   -97.6484  YYY=   -35.8123  ZZZ=    -0.0870  XYY=    17.0308
  XXY=  -129.6533  XXZ=    -0.0308  XZZ=    -4.4331  YZZ=    -4.7219
  YYZ=    -0.1187  XYZ=     0.2660
 Hexadecapole moment (field-independent basis, Debye-Ang**3):
 XXXX= -2624.8711 YYYY=  -570.1894 ZZZZ=  -123.4673 XXXY=   608.5536
 XXXZ=    -0.6682 YYYX=     4.4851 YYYZ=    -0.0077 ZZZX=    -0.2233
 ZZZY=    -0.0040 XXYY=  -590.6655 XXZZ=  -487.7180 YYZZ=  -124.2062
 XXYZ=    -0.3709 YYXZ=    -0.0684 ZZXY=    15.1509
 N-N= 9.538797708540D+02 E-N=-8.407691413419D+03  KE= 2.742196293592D+03
 Merz-Kollman atomic radii used.
 Read replacement radii for each type of atom:
 Rad(20) =   1.188000000000D+00
 Atom Element Radius
    1     8    1.40
    2     8    1.40
    3    15    1.80
    4    20    1.19
    5     8    1.40
    6     8    1.40
    7    20    1.19
    8     8    1.40
    9    20    1.19

 **********************************************************************

            Electrostatic Properties Using The SCF Density

 **********************************************************************

       Atomic Center    1 is at   3.138900 -0.536190 -0.761229
       Atomic Center    2 is at   3.131340 -0.534930  0.771671
       Atomic Center    3 is at   2.849749  1.020180  0.002431
       Atomic Center    4 is at  -3.349080 -0.851243  0.002781
       Atomic Center    5 is at   1.296849  1.093459 -0.005469
       Atomic Center    6 is at  -3.233581  1.275907  0.002361
       Atomic Center    7 is at  -1.080801  1.427498 -0.002479
       Atomic Center    8 is at  -1.093890 -0.947592 -0.001899
       Atomic Center    9 is at   0.996721 -1.481651 -0.004299
     844 points will be used for fitting atomic charges
 Fitting point charges to eletrostatic potential
 Charges from ESP fit, RMS=   0.00564 RRMS=   0.03806:
 Charge=   1.00000 Dipole=    -0.8463    -7.7856    -0.0154 Tot=     7.8315
              1
     1  O   -0.325967
     2  O   -0.323678
     3  P    0.607374
     4  Ca   1.632814
     5  O   -0.747183
     6  O   -1.490437
     7  Ca   1.676555
     8  O   -1.716735
     9  Ca   1.687256
 -----------------------------------------------------------------

              Electrostatic Properties (Atomic Units)

 -----------------------------------------------------------------
    Center     Electric         -------- Electric Field --------
               Potential          X             Y             Z
 -----------------------------------------------------------------
    1 Atom    -22.100403
    2 Atom    -22.100118
    3 Atom    -53.872696
    4 Atom    -80.074697
    5 Atom    -22.162814
    6 Atom    -22.376326
    7 Atom    -80.086504
    8 Atom    -22.294744
    9 Atom    -80.017106
 -----------------------------------------------------------------
 1\1\GINC-N029\SP\RB3LYP\6-31+G(d,p)\Ca3O5P1(1+)\TIMN\12-Jun-2015\0\\# 
 b3lyp/6-31+G(d,p) int=ultrafine pop=(ReadRadii,MK)\\mol_17.25.58.pdbcc
 c_plusQ.z58362.zip.xyz\\1,1\O,0,3.1389,-0.53619,-0.76123\O,0,3.13134,-
 0.53493,0.77167\P,0,2.84975,1.02018,0.00243\Ca,0,-3.34908,-0.85124,0.0
 0278\O,0,1.29685,1.09346,-0.00547\O,0,-3.23358,1.27591,0.00236\Ca,0,-1
 .0808,1.4275,-0.00248\O,0,-1.09389,-0.94759,-0.0019\Ca,0,0.99672,-1.48
 165,-0.0043\\Version=EM64T-G03RevE.01\State=1-A\HF=-2750.1324826\RMSD=
 7.267e-05\Thermal=0.\Dipole=-0.1802997,-2.9644192,-0.0091983\PG=C01 [X
 (Ca3O5P1)]\\@


 EXPERIENCE IS A WONDERFUL THING.  IT ENABLES
 YOU TO RECOGNIZE A MISTAKE WHEN YOU MAKE IT AGAIN.
           - BACK OF A SUGAR PACKET
 Job cpu time:  0 days  0 hours  2 minutes  6.0 seconds.
 File lengths (MBytes):  RWF=     36 Int=      0 D2E=      0 Chk=     11 Scr=      1
 Normal termination of Gaussian 03 at Fri Jun 12 17:58:53 2015.
