 Entering Gaussian System, Link 0=/home/timn/tmp/g03.e01/g03
 Input=mol_17.25.23.pdbcccc_plusQ_plusQ.z58328.zip.xyz.gjf
 Output=mol_17.25.23.pdbcccc_plusQ_plusQ.z58328.zip.xyz.out
 Initial command:
 /home/timn/tmp/g03.e01/l1.exe /home/timn/tmp/g03.e01/Gau-14579.inp -scrdir=/home/timn/tmp/g03.e01/
 Default is to use a total of   2 processors:
                                2 via shared-memory
                                1 via Linda
 Entering Link 1 = /home/timn/tmp/g03.e01/l1.exe PID=     14580.
  
 Copyright (c) 1988,1990,1992,1993,1995,1998,2003,2004,2007, Gaussian, Inc.
                  All Rights Reserved.
  
 This is the Gaussian(R) 03 program.  It is based on the
 the Gaussian(R) 98 system (copyright 1998, Gaussian, Inc.),
 the Gaussian(R) 94 system (copyright 1995, Gaussian, Inc.),
 the Gaussian 92(TM) system (copyright 1992, Gaussian, Inc.),
 the Gaussian 90(TM) system (copyright 1990, Gaussian, Inc.),
 the Gaussian 88(TM) system (copyright 1988, Gaussian, Inc.),
 the Gaussian 86(TM) system (copyright 1986, Carnegie Mellon
 University), and the Gaussian 82(TM) system (copyright 1983,
 Carnegie Mellon University). Gaussian is a federally registered
 trademark of Gaussian, Inc.
  
 This software contains proprietary and confidential information,
 including trade secrets, belonging to Gaussian, Inc.
  
 This software is provided under written license and may be
 used, copied, transmitted, or stored only in accord with that
 written license.
  
 The following legend is applicable only to US Government
 contracts under FAR:
  
                    RESTRICTED RIGHTS LEGEND
  
 Use, reproduction and disclosure by the US Government is
 subject to restrictions as set forth in subparagraphs (a)
 and (c) of the Commercial Computer Software - Restricted
 Rights clause in FAR 52.227-19.
  
 Gaussian, Inc.
 340 Quinnipiac St., Bldg. 40, Wallingford CT 06492
  
  
 ---------------------------------------------------------------
 Warning -- This program may not be used in any manner that
 competes with the business of Gaussian, Inc. or will provide
 assistance to any competitor of Gaussian, Inc.  The licensee
 of this program is prohibited from giving any competitor of
 Gaussian, Inc. access to this program.  By using this program,
 the user acknowledges that Gaussian, Inc. is engaged in the
 business of creating and licensing software in the field of
 computational chemistry and represents and warrants to the
 licensee that it is not a competitor of Gaussian, Inc. and that
 it will not use this program in any manner prohibited above.
 ---------------------------------------------------------------
  

 Cite this work as:
 Gaussian 03, Revision E.01,
 M. J. Frisch, G. W. Trucks, H. B. Schlegel, G. E. Scuseria, 
 M. A. Robb, J. R. Cheeseman, J. A. Montgomery, Jr., T. Vreven, 
 K. N. Kudin, J. C. Burant, J. M. Millam, S. S. Iyengar, J. Tomasi, 
 V. Barone, B. Mennucci, M. Cossi, G. Scalmani, N. Rega, 
 G. A. Petersson, H. Nakatsuji, M. Hada, M. Ehara, K. Toyota, 
 R. Fukuda, J. Hasegawa, M. Ishida, T. Nakajima, Y. Honda, O. Kitao, 
 H. Nakai, M. Klene, X. Li, J. E. Knox, H. P. Hratchian, J. B. Cross, 
 V. Bakken, C. Adamo, J. Jaramillo, R. Gomperts, R. E. Stratmann, 
 O. Yazyev, A. J. Austin, R. Cammi, C. Pomelli, J. W. Ochterski, 
 P. Y. Ayala, K. Morokuma, G. A. Voth, P. Salvador, J. J. Dannenberg, 
 V. G. Zakrzewski, S. Dapprich, A. D. Daniels, M. C. Strain, 
 O. Farkas, D. K. Malick, A. D. Rabuck, K. Raghavachari, 
 J. B. Foresman, J. V. Ortiz, Q. Cui, A. G. Baboul, S. Clifford, 
 J. Cioslowski, B. B. Stefanov, G. Liu, A. Liashenko, P. Piskorz, 
 I. Komaromi, R. L. Martin, D. J. Fox, T. Keith, M. A. Al-Laham, 
 C. Y. Peng, A. Nanayakkara, M. Challacombe, P. M. W. Gill, 
 B. Johnson, W. Chen, M. W. Wong, C. Gonzalez, and J. A. Pople, 
 Gaussian, Inc., Wallingford CT, 2004.
 
 ******************************************
 Gaussian 03:  EM64T-G03RevE.01 11-Sep-2007
                12-Jun-2015 
 ******************************************
 %nproc=2
 Will use up to    2 processors via shared memory.
 Default route:  MP2=Direct MaxDisk=2000MB
 ----------------------------------------------------
 # b3lyp/6-31+G(d,p) int=ultrafine pop=(ReadRadii,MK)
 ----------------------------------------------------

 Warning!  SCF SP cutoffs with diffuse functions may be unreliable.
 Consider SCF=Tight

 1/38=1/1;
 2/17=6,18=5,40=1/2;
 3/5=1,6=6,7=111,11=2,16=1,25=1,30=1,74=-5,75=5/1,2,3;
 4//1;
 5/5=2,32=1,38=5/2;
 6/7=2,8=2,9=2,10=2,15=8,20=101,28=1/1,2;
 99/5=1,9=1/99;
 -----------------------------------------------
 mol_17.25.23.pdbcccc_plusQ_plusQ.z58328.zip.xyz
 -----------------------------------------------
 Symbolic Z-matrix:
 Charge =  1 Multiplicity = 1
 O                     0.        0.99642   0. 
 O                     0.79682   2.18577   0. 
 O                    -0.09695   3.39428   0. 
 O                    -1.47348   3.03607   0. 
 P                    -1.76658   1.32493   0. 
 Ca                   -3.19751  -1.03812   0. 
 O                    -1.29     -1.91644   0. 
 Ca                    0.74326  -1.26285   0. 
 Ca                    4.60463  -1.77117   0. 
 
                          Input orientation:                          
 ---------------------------------------------------------------------
 Center     Atomic     Atomic              Coordinates (Angstroms)
 Number     Number      Type              X           Y           Z
 ---------------------------------------------------------------------
    1          8             0        0.000000    0.996420    0.000000
    2          8             0        0.796820    2.185770    0.000000
    3          8             0       -0.096950    3.394280    0.000000
    4          8             0       -1.473480    3.036070    0.000000
    5         15             0       -1.766580    1.324930    0.000000
    6         20             0       -3.197510   -1.038120    0.000000
    7          8             0       -1.290000   -1.916440    0.000000
    8         20             0        0.743260   -1.262850    0.000000
    9         20             0        4.604630   -1.771170    0.000000
 ---------------------------------------------------------------------
                    Distance matrix (angstroms):
                    1          2          3          4          5
     1  O    0.000000
     2  O    1.431599   0.000000
     3  O    2.399819   1.503104   0.000000
     4  O    2.516211   2.424309   1.422375   0.000000
     5  P    1.796865   2.704083   2.658923   1.736061   0.000000
     6  Ca   3.789911   5.133044   5.409218   4.423947   2.762529
     7  O    3.185727   4.602493   5.443080   4.955908   3.276219
     8  Ca   2.378389   3.449036   4.732316   4.836802   3.604983
     9  Ca   5.372353   5.491520   6.984750   7.749386   7.083654
                    6          7          8          9
     6  Ca   0.000000
     7  O    2.100010   0.000000
     8  Ca   3.947173   2.135726   0.000000
     9  Ca   7.836501   5.896420   3.894685   0.000000
 Stoichiometry    Ca3O5P(1+)
 Framework group  CS[SG(Ca3O5P)]
 Deg. of freedom    15
 Full point group                 CS
 Largest Abelian subgroup         CS      NOp   2
 Largest concise Abelian subgroup C1      NOp   1
                         Standard orientation:                         
 ---------------------------------------------------------------------
 Center     Atomic     Atomic              Coordinates (Angstroms)
 Number     Number      Type              X           Y           Z
 ---------------------------------------------------------------------
    1          8             0        0.000000    0.996420    0.000000
    2          8             0        0.796820    2.185770    0.000000
    3          8             0       -0.096950    3.394280    0.000000
    4          8             0       -1.473480    3.036071    0.000000
    5         15             0       -1.766580    1.324931    0.000000
    6         20             0       -3.197510   -1.038119    0.000000
    7          8             0       -1.290001   -1.916439    0.000000
    8         20             0        0.743260   -1.262850    0.000000
    9         20             0        4.604630   -1.771170    0.000000
 ---------------------------------------------------------------------
 Rotational constants (GHZ):      0.7811490      0.3221876      0.2281049
 Standard basis: 6-31+G(d,p) (6D, 7F)
 There are   147 symmetry adapted basis functions of A'  symmetry.
 There are    52 symmetry adapted basis functions of A"  symmetry.
 Integral buffers will be    131072 words long.
 Raffenetti 2 integral format.
 Two-electron integral symmetry is turned on.
   199 basis functions,   456 primitive gaussians,   199 cartesian basis functions
    57 alpha electrons       57 beta electrons
       nuclear repulsion energy       857.8702573938 Hartrees.
 NAtoms=    9 NActive=    9 NUniq=    9 SFac= 7.50D-01 NAtFMM=   80 NAOKFM=F Big=F
 One-electron integrals computed using PRISM.
 NBasis=   199 RedAO= T  NBF=   147    52
 NBsUse=   199 1.00D-06 NBFU=   147    52
 Harris functional with IExCor=  402 diagonalized for initial guess.
 ExpMin= 7.10D-03 ExpMax= 3.53D+04 ExpMxC= 5.30D+03 IAcc=3 IRadAn=         5 AccDes= 0.00D+00
 HarFok:  IExCor= 402 AccDes= 0.00D+00 IRadAn=         5 IDoV=1
 ScaDFX=  1.000000  1.000000  1.000000  1.000000
 Initial guess orbital symmetries:
       Occupied  (A') (A') (A') (A') (A') (A') (A') (A') (A') (A')
                 (A') (A') (A') (A') (A") (A') (A') (A") (A') (A')
                 (A") (A') (A') (A') (A") (A') (A') (A') (A') (A')
                 (A') (A') (A') (A") (A") (A') (A') (A") (A') (A')
                 (A') (A') (A') (A') (A") (A') (A') (A') (A') (A")
                 (A') (A") (A') (A") (A") (A") (A')
       Virtual   (A') (A') (A') (A') (A') (A") (A') (A') (A") (A')
                 (A') (A") (A') (A') (A') (A') (A') (A") (A') (A')
                 (A") (A') (A') (A") (A') (A') (A') (A") (A') (A')
                 (A') (A') (A") (A') (A') (A') (A") (A") (A') (A')
                 (A") (A') (A") (A') (A') (A") (A') (A') (A") (A')
                 (A") (A') (A') (A') (A") (A") (A') (A') (A') (A")
                 (A') (A") (A') (A') (A') (A') (A") (A') (A") (A')
                 (A') (A') (A') (A') (A') (A') (A") (A') (A') (A')
                 (A') (A') (A") (A') (A") (A') (A') (A') (A') (A')
                 (A') (A") (A") (A") (A') (A') (A') (A") (A') (A')
                 (A') (A") (A') (A') (A') (A') (A") (A') (A') (A")
                 (A") (A') (A') (A") (A') (A") (A") (A') (A') (A')
                 (A') (A") (A') (A') (A') (A') (A') (A') (A") (A")
                 (A') (A") (A') (A') (A') (A') (A') (A') (A') (A')
                 (A') (A')
 The electronic state of the initial guess is 1-A'.
 Requested convergence on RMS density matrix=1.00D-04 within 128 cycles.
 Requested convergence on MAX density matrix=1.00D-02.
 Requested convergence on             energy=1.00D-02.
 No special actions if energy rises.
 EnCoef did    11 forward-backward iterations
 EnCoef did   100 forward-backward iterations
 SCF Done:  E(RB+HF-LYP) =  -2749.71103219     A.U. after    9 cycles
             Convg  =    0.7154D-04             -V/T =  2.0028
             S**2   =   0.0000

 **********************************************************************

            Population analysis using the SCF density.

 **********************************************************************

 Orbital symmetries:
       Occupied  (A') (A') (A') (A') (A') (A') (A') (A') (A') (A')
                 (A') (A') (A') (A") (A') (A") (A') (A') (A") (A')
                 (A') (A') (A') (A') (A") (A') (A') (A') (A') (A")
                 (A') (A') (A') (A") (A') (A") (A') (A') (A') (A')
                 (A') (A') (A') (A') (A") (A') (A') (A') (A") (A')
                 (A") (A') (A") (A') (A") (A') (A")
       Virtual   (A') (A') (A') (A") (A') (A') (A') (A') (A") (A")
                 (A') (A') (A') (A') (A') (A') (A') (A") (A') (A")
                 (A') (A') (A") (A') (A') (A') (A") (A') (A') (A')
                 (A') (A') (A') (A") (A') (A') (A") (A') (A") (A')
                 (A") (A') (A') (A") (A') (A") (A") (A') (A') (A')
                 (A") (A') (A') (A') (A") (A") (A') (A') (A') (A")
                 (A') (A') (A") (A') (A') (A") (A') (A') (A") (A')
                 (A') (A') (A') (A') (A') (A') (A') (A") (A') (A')
                 (A') (A') (A') (A') (A") (A") (A') (A') (A') (A')
                 (A') (A") (A') (A") (A') (A') (A") (A') (A") (A")
                 (A') (A') (A') (A') (A') (A') (A") (A') (A") (A')
                 (A") (A') (A') (A') (A') (A") (A') (A') (A") (A")
                 (A") (A') (A') (A') (A') (A') (A') (A') (A") (A")
                 (A') (A") (A') (A') (A') (A') (A') (A') (A') (A')
                 (A') (A')
 The electronic state is 1-A'.
 Alpha  occ. eigenvalues -- -145.54622-145.52251-145.49113 -77.22351 -19.37855
 Alpha  occ. eigenvalues --  -19.36715 -19.33985 -19.31278 -19.14502 -15.61677
 Alpha  occ. eigenvalues --  -15.59085 -15.56025 -12.74815 -12.74815 -12.74800
 Alpha  occ. eigenvalues --  -12.72300 -12.72287 -12.72186 -12.69279 -12.69208
 Alpha  occ. eigenvalues --  -12.69090  -6.68523  -4.85281  -4.84796  -4.83812
 Alpha  occ. eigenvalues --   -1.98736  -1.96147  -1.93258  -1.28670  -1.25995
 Alpha  occ. eigenvalues --   -1.25994  -1.25830  -1.23688  -1.23662  -1.23053
 Alpha  occ. eigenvalues --   -1.21084  -1.21050  -1.20189  -1.17900  -1.04566
 Alpha  occ. eigenvalues --   -0.89784  -0.88674  -0.73525  -0.60808  -0.57301
 Alpha  occ. eigenvalues --   -0.55610  -0.55081  -0.49614  -0.49532  -0.44962
 Alpha  occ. eigenvalues --   -0.42663  -0.35168  -0.33340  -0.32744  -0.32699
 Alpha  occ. eigenvalues --   -0.30356  -0.25483
 Alpha virt. eigenvalues --   -0.20352  -0.19721  -0.16611  -0.16206  -0.16029
 Alpha virt. eigenvalues --   -0.13989  -0.12532  -0.11311  -0.11286  -0.09858
 Alpha virt. eigenvalues --   -0.09809  -0.09272  -0.08951  -0.08158  -0.06938
 Alpha virt. eigenvalues --   -0.05832  -0.05722  -0.05416  -0.05004  -0.04342
 Alpha virt. eigenvalues --   -0.04090  -0.04009  -0.03550  -0.03437  -0.03285
 Alpha virt. eigenvalues --   -0.02763  -0.01595  -0.01466  -0.00947  -0.00196
 Alpha virt. eigenvalues --    0.01187   0.01480   0.02164   0.02698   0.03158
 Alpha virt. eigenvalues --    0.03477   0.03745   0.03903   0.04328   0.04540
 Alpha virt. eigenvalues --    0.04829   0.05195   0.05461   0.05685   0.06280
 Alpha virt. eigenvalues --    0.06629   0.06956   0.07310   0.07996   0.08248
 Alpha virt. eigenvalues --    0.09266   0.09572   0.09791   0.10995   0.11462
 Alpha virt. eigenvalues --    0.12722   0.14491   0.15880   0.16361   0.17076
 Alpha virt. eigenvalues --    0.17513   0.19147   0.20200   0.21173   0.22796
 Alpha virt. eigenvalues --    0.23697   0.23942   0.25498   0.26649   0.27369
 Alpha virt. eigenvalues --    0.29759   0.30610   0.31824   0.32547   0.34278
 Alpha virt. eigenvalues --    0.36338   0.38138   0.39128   0.39151   0.41783
 Alpha virt. eigenvalues --    0.44591   0.50109   0.55918   0.59517   0.59604
 Alpha virt. eigenvalues --    0.61127   0.68669   0.79204   0.81826   0.87230
 Alpha virt. eigenvalues --    0.95900   0.98415   1.03257   1.03973   1.06358
 Alpha virt. eigenvalues --    1.09087   1.10589   1.13581   1.13976   1.16874
 Alpha virt. eigenvalues --    1.19387   1.21115   1.26311   1.27225   1.29934
 Alpha virt. eigenvalues --    1.35464   1.35467   1.38185   1.44288   1.47870
 Alpha virt. eigenvalues --    1.48189   1.50337   1.55500   1.63481   1.67303
 Alpha virt. eigenvalues --    1.68347   1.71847   1.75117   1.80939   1.81113
 Alpha virt. eigenvalues --    1.83630   1.85641   1.87368   1.96609   1.98143
 Alpha virt. eigenvalues --    2.02610   2.16306   2.18282   2.19895   2.20930
 Alpha virt. eigenvalues --    2.31249   2.33709   2.61812   2.98378   3.07305
 Alpha virt. eigenvalues --    3.17528   3.46186   3.74089   3.97747   4.00748
 Alpha virt. eigenvalues --    4.15123   4.50717
          Condensed to atoms (all electrons):
              1          2          3          4          5          6
     1  O    8.477220  -0.075521   0.058130   0.003335   0.003783   0.023189
     2  O   -0.075521   7.991718   0.077868  -0.012997  -0.014267  -0.008356
     3  O    0.058130   0.077868   7.667876   0.165864   0.020648   0.016295
     4  O    0.003335  -0.012997   0.165864   8.258127  -0.076517  -0.008060
     5  P    0.003783  -0.014267   0.020648  -0.076517  14.794065   0.250209
     6  Ca   0.023189  -0.008356   0.016295  -0.008060   0.250209  18.588165
     7  O   -0.002267   0.011933  -0.002014   0.008163  -0.007174   0.205690
     8  Ca   0.011887   0.001249  -0.007935   0.002219  -0.037127  -0.159150
     9  Ca  -0.038982   0.011238  -0.013229   0.002679  -0.005944  -0.219518
              7          8          9
     1  O   -0.002267   0.011887  -0.038982
     2  O    0.011933   0.001249   0.011238
     3  O   -0.002014  -0.007935  -0.013229
     4  O    0.008163   0.002219   0.002679
     5  P   -0.007174  -0.037127  -0.005944
     6  Ca   0.205690  -0.159150  -0.219518
     7  O    8.750117   0.207689  -0.006415
     8  Ca   0.207689  18.669958   0.234994
     9  Ca  -0.006415   0.234994  19.559576
 Mulliken atomic charges:
              1
     1  O   -0.460775
     2  O    0.017135
     3  O    0.016497
     4  O   -0.342812
     5  P    0.072324
     6  Ca   1.311538
     7  O   -1.165723
     8  Ca   1.076216
     9  Ca   0.475601
 Sum of Mulliken charges=   1.00000
 Atomic charges with hydrogens summed into heavy atoms:
              1
     1  O   -0.460775
     2  O    0.017135
     3  O    0.016497
     4  O   -0.342812
     5  P    0.072324
     6  Ca   1.311538
     7  O   -1.165723
     8  Ca   1.076216
     9  Ca   0.475601
 Sum of Mulliken charges=   1.00000
 Electronic spatial extent (au):  <R**2>=  4055.9045
 Charge=     1.0000 electrons
 Dipole moment (field-independent basis, Debye):
    X=     3.4624    Y=   -10.9919    Z=     0.0000  Tot=    11.5243
 Quadrupole moment (field-independent basis, Debye-Ang):
   XX=    39.2564   YY=   -92.7457   ZZ=   -88.4905
   XY=   -10.8042   XZ=     0.0000   YZ=     0.0000
 Traceless Quadrupole moment (field-independent basis, Debye-Ang):
   XX=    86.5830   YY=   -45.4191   ZZ=   -41.1639
   XY=   -10.8042   XZ=     0.0000   YZ=     0.0000
 Octapole moment (field-independent basis, Debye-Ang**2):
  XXX=    70.9435  YYY=    -5.4751  ZZZ=     0.0000  XYY=    35.5669
  XXY=  -191.3032  XXZ=     0.0000  XZZ=    -9.1509  YZZ=    -3.5613
  YYZ=     0.0000  XYZ=     0.0000
 Hexadecapole moment (field-independent basis, Debye-Ang**3):
 XXXX=  -699.3653 YYYY= -1956.1879 ZZZZ=  -155.1397 XXXY=    89.2820
 XXXZ=     0.0000 YYYX=   371.2000 YYYZ=     0.0000 ZZZX=     0.0000
 ZZZY=     0.0000 XXYY=  -598.9439 XXZZ=  -597.1987 YYZZ=  -340.2812
 XXYZ=     0.0000 YYXZ=     0.0000 ZZXY=   160.5394
 N-N= 8.578702573938D+02 E-N=-8.213706993609D+03  KE= 2.742015618822D+03
 Symmetry A'   KE= 2.469420198174D+03
 Symmetry A"   KE= 2.725954206474D+02
 Merz-Kollman atomic radii used.
 Read replacement radii for each type of atom:
 Rad(20) =   1.188000000000D+00
 Atom Element Radius
    1     8    1.40
    2     8    1.40
    3     8    1.40
    4     8    1.40
    5    15    1.80
    6    20    1.19
    7     8    1.40
    8    20    1.19
    9    20    1.19

 **********************************************************************

            Electrostatic Properties Using The SCF Density

 **********************************************************************

       Atomic Center    1 is at   0.000000  0.996420  0.000000
       Atomic Center    2 is at   0.796820  2.185770  0.000000
       Atomic Center    3 is at  -0.096950  3.394280  0.000000
       Atomic Center    4 is at  -1.473480  3.036071  0.000000
       Atomic Center    5 is at  -1.766580  1.324931  0.000000
       Atomic Center    6 is at  -3.197510 -1.038119  0.000000
       Atomic Center    7 is at  -1.290001 -1.916439  0.000000
       Atomic Center    8 is at   0.743260 -1.262850  0.000000
       Atomic Center    9 is at   4.604630 -1.771170  0.000000
     898 points will be used for fitting atomic charges
 Fitting point charges to eletrostatic potential
 Charges from ESP fit, RMS=   0.02088 RRMS=   0.13988:
 Charge=   1.00000 Dipole=     4.7890   -12.7181     0.0000 Tot=    13.5899
              1
     1  O    0.281970
     2  O   -0.399929
     3  O    0.068505
     4  O    0.020361
     5  P   -0.739537
     6  Ca   1.552372
     7  O   -1.252439
     8  Ca   0.872444
     9  Ca   0.596254
 -----------------------------------------------------------------

              Electrostatic Properties (Atomic Units)

 -----------------------------------------------------------------
    Center     Electric         -------- Electric Field --------
               Potential          X             Y             Z
 -----------------------------------------------------------------
    1 Atom    -22.121191
    2 Atom    -22.108850
    3 Atom    -22.107406
    4 Atom    -22.158131
    5 Atom    -53.992471
    6 Atom    -80.019411
    7 Atom    -22.333810
    8 Atom    -80.052454
    9 Atom    -80.000349
 -----------------------------------------------------------------
 1\1\GINC-N029\SP\RB3LYP\6-31+G(d,p)\Ca3O5P1(1+)\TIMN\12-Jun-2015\0\\# 
 b3lyp/6-31+G(d,p) int=ultrafine pop=(ReadRadii,MK)\\mol_17.25.23.pdbcc
 cc_plusQ_plusQ.z58328.zip.xyz\\1,1\O,0,0.,0.99642,0.\O,0,0.79682,2.185
 77,0.\O,0,-0.09695,3.39428,0.\O,0,-1.47348,3.03607,0.\P,0,-1.76658,1.3
 2493,0.\Ca,0,-3.19751,-1.03812,0.\O,0,-1.29,-1.91644,0.\Ca,0,0.74326,-
 1.26285,0.\Ca,0,4.60463,-1.77117,0.\\Version=EM64T-G03RevE.01\State=1-
 A'\HF=-2749.7110322\RMSD=7.154e-05\Thermal=0.\Dipole=1.3622297,-4.3245
 432,0.\PG=CS [SG(Ca3O5P1)]\\@


 THE SCIENTIFIC THEORIST IS NOT TO BE ENVIED. FOR NATURE, OR MORE
 PRECISELY EXPERIMENT, IS AN INEXORABLE AND NOT VERY FRIENDLY JUDGE OF HIS
 WORK.  IT NEVER SAYS "YES" TO A THEORY. IN THE MOST FAVORABLE CASES
 IT SAYS "MAYBE", AND IN THE GREAT MAJORITY OF CASES SIMPLY "NO"...
 PROBABLY EVERY THEORY WILL SOME DAY EXPERIENCE ITS "NO" - MOST
 THEORIES, SOON AFTER CONCEPTION.  -- A.EINSTEIN, NOV 11, 1922.
 Job cpu time:  0 days  0 hours  1 minutes 32.3 seconds.
 File lengths (MBytes):  RWF=     36 Int=      0 D2E=      0 Chk=     11 Scr=      1
 Normal termination of Gaussian 03 at Fri Jun 12 17:57:13 2015.
