 Entering Gaussian System, Link 0=/home/timn/tmp/g03.e01/g03
 Input=mol_16.4.55.pdb_plusQ.out.z51606.zip.xyz.gjf
 Output=mol_16.4.55.pdb_plusQ.out.z51606.zip.xyz.out
 Initial command:
 /home/timn/tmp/g03.e01/l1.exe /home/timn/tmp/g03.e01/Gau-16751.inp -scrdir=/home/timn/tmp/g03.e01/
 Default is to use a total of   2 processors:
                                2 via shared-memory
                                1 via Linda
 Entering Link 1 = /home/timn/tmp/g03.e01/l1.exe PID=     16753.
  
 Copyright (c) 1988,1990,1992,1993,1995,1998,2003,2004,2007, Gaussian, Inc.
                  All Rights Reserved.
  
 This is the Gaussian(R) 03 program.  It is based on the
 the Gaussian(R) 98 system (copyright 1998, Gaussian, Inc.),
 the Gaussian(R) 94 system (copyright 1995, Gaussian, Inc.),
 the Gaussian 92(TM) system (copyright 1992, Gaussian, Inc.),
 the Gaussian 90(TM) system (copyright 1990, Gaussian, Inc.),
 the Gaussian 88(TM) system (copyright 1988, Gaussian, Inc.),
 the Gaussian 86(TM) system (copyright 1986, Carnegie Mellon
 University), and the Gaussian 82(TM) system (copyright 1983,
 Carnegie Mellon University). Gaussian is a federally registered
 trademark of Gaussian, Inc.
  
 This software contains proprietary and confidential information,
 including trade secrets, belonging to Gaussian, Inc.
  
 This software is provided under written license and may be
 used, copied, transmitted, or stored only in accord with that
 written license.
  
 The following legend is applicable only to US Government
 contracts under FAR:
  
                    RESTRICTED RIGHTS LEGEND
  
 Use, reproduction and disclosure by the US Government is
 subject to restrictions as set forth in subparagraphs (a)
 and (c) of the Commercial Computer Software - Restricted
 Rights clause in FAR 52.227-19.
  
 Gaussian, Inc.
 340 Quinnipiac St., Bldg. 40, Wallingford CT 06492
  
  
 ---------------------------------------------------------------
 Warning -- This program may not be used in any manner that
 competes with the business of Gaussian, Inc. or will provide
 assistance to any competitor of Gaussian, Inc.  The licensee
 of this program is prohibited from giving any competitor of
 Gaussian, Inc. access to this program.  By using this program,
 the user acknowledges that Gaussian, Inc. is engaged in the
 business of creating and licensing software in the field of
 computational chemistry and represents and warrants to the
 licensee that it is not a competitor of Gaussian, Inc. and that
 it will not use this program in any manner prohibited above.
 ---------------------------------------------------------------
  

 Cite this work as:
 Gaussian 03, Revision E.01,
 M. J. Frisch, G. W. Trucks, H. B. Schlegel, G. E. Scuseria, 
 M. A. Robb, J. R. Cheeseman, J. A. Montgomery, Jr., T. Vreven, 
 K. N. Kudin, J. C. Burant, J. M. Millam, S. S. Iyengar, J. Tomasi, 
 V. Barone, B. Mennucci, M. Cossi, G. Scalmani, N. Rega, 
 G. A. Petersson, H. Nakatsuji, M. Hada, M. Ehara, K. Toyota, 
 R. Fukuda, J. Hasegawa, M. Ishida, T. Nakajima, Y. Honda, O. Kitao, 
 H. Nakai, M. Klene, X. Li, J. E. Knox, H. P. Hratchian, J. B. Cross, 
 V. Bakken, C. Adamo, J. Jaramillo, R. Gomperts, R. E. Stratmann, 
 O. Yazyev, A. J. Austin, R. Cammi, C. Pomelli, J. W. Ochterski, 
 P. Y. Ayala, K. Morokuma, G. A. Voth, P. Salvador, J. J. Dannenberg, 
 V. G. Zakrzewski, S. Dapprich, A. D. Daniels, M. C. Strain, 
 O. Farkas, D. K. Malick, A. D. Rabuck, K. Raghavachari, 
 J. B. Foresman, J. V. Ortiz, Q. Cui, A. G. Baboul, S. Clifford, 
 J. Cioslowski, B. B. Stefanov, G. Liu, A. Liashenko, P. Piskorz, 
 I. Komaromi, R. L. Martin, D. J. Fox, T. Keith, M. A. Al-Laham, 
 C. Y. Peng, A. Nanayakkara, M. Challacombe, P. M. W. Gill, 
 B. Johnson, W. Chen, M. W. Wong, C. Gonzalez, and J. A. Pople, 
 Gaussian, Inc., Wallingford CT, 2004.
 
 ******************************************
 Gaussian 03:  EM64T-G03RevE.01 11-Sep-2007
                12-Jun-2015 
 ******************************************
 %nproc=2
 Will use up to    2 processors via shared memory.
 Default route:  MP2=Direct MaxDisk=2000MB
 ----------------------------------------------------
 # b3lyp/6-31+G(d,p) int=ultrafine pop=(ReadRadii,MK)
 ----------------------------------------------------

 Warning!  SCF SP cutoffs with diffuse functions may be unreliable.
 Consider SCF=Tight

 1/38=1/1;
 2/17=6,18=5,40=1/2;
 3/5=1,6=6,7=111,11=2,16=1,25=1,30=1,74=-5,75=5/1,2,3;
 4//1;
 5/5=2,32=1,38=5/2;
 6/7=2,8=2,9=2,10=2,15=8,20=101,28=1/1,2;
 99/5=1,9=1/99;
 ----------------------------------------
 mol_16.4.55.pdb_plusQ.out.z51606.zip.xyz
 ----------------------------------------
 Symbolic Z-matrix:
 Charge =  1 Multiplicity = 1
 O                     2.30325  -2.18183   0. 
 O                     0.84162  -1.82939   0. 
 O                    -2.30393  -0.17684   0. 
 P                    -0.82909  -0.7856    0. 
 Ca                   -1.90167   1.97485   0. 
 O                     0.        0.75694   0. 
 Ca                    2.18711  -0.0132    0. 
 
                          Input orientation:                          
 ---------------------------------------------------------------------
 Center     Atomic     Atomic              Coordinates (Angstroms)
 Number     Number      Type              X           Y           Z
 ---------------------------------------------------------------------
    1          8             0        2.303250   -2.181830    0.000000
    2          8             0        0.841620   -1.829390    0.000000
    3          8             0       -2.303930   -0.176840    0.000000
    4         15             0       -0.829090   -0.785600    0.000000
    5         20             0       -1.901670    1.974850    0.000000
    6          8             0        0.000000    0.756940    0.000000
    7         20             0        2.187110   -0.013200    0.000000
 ---------------------------------------------------------------------
                    Distance matrix (angstroms):
                    1          2          3          4          5
     1  O    0.000000
     2  O    1.503521   0.000000
     3  O    5.024549   3.553225   0.000000
     4  P    3.429433   1.969967   1.595538   0.000000
     5  Ca   5.912642   4.690190   2.188968   2.961505   0.000000
     6  O    3.733809   2.719821   2.485968   1.751234   2.258241
     7  Ca   2.171738   2.260285   4.494020   3.113529   4.546478
                    6          7
     6  O    0.000000
     7  Ca   2.318742   0.000000
 Stoichiometry    Ca2O4P(1+)
 Framework group  CS[SG(Ca2O4P)]
 Deg. of freedom    11
 Full point group                 CS
 Largest Abelian subgroup         CS      NOp   2
 Largest concise Abelian subgroup C1      NOp   1
                         Standard orientation:                         
 ---------------------------------------------------------------------
 Center     Atomic     Atomic              Coordinates (Angstroms)
 Number     Number      Type              X           Y           Z
 ---------------------------------------------------------------------
    1          8             0        2.303251   -2.181829    0.000000
    2          8             0        0.841621   -1.829390    0.000000
    3          8             0       -2.303930   -0.176842    0.000000
    4         15             0       -0.829089   -0.785601    0.000000
    5         20             0       -1.901671    1.974849    0.000000
    6          8             0        0.000000    0.756940    0.000000
    7         20             0        2.187110   -0.013199    0.000000
 ---------------------------------------------------------------------
 Rotational constants (GHZ):      2.9585579      0.7415243      0.5929173
 Standard basis: 6-31+G(d,p) (6D, 7F)
 There are   113 symmetry adapted basis functions of A'  symmetry.
 There are    40 symmetry adapted basis functions of A"  symmetry.
 Integral buffers will be    131072 words long.
 Raffenetti 2 integral format.
 Two-electron integral symmetry is turned on.
   153 basis functions,   344 primitive gaussians,   153 cartesian basis functions
    43 alpha electrons       43 beta electrons
       nuclear repulsion energy       592.2506218235 Hartrees.
 NAtoms=    7 NActive=    7 NUniq=    7 SFac= 7.50D-01 NAtFMM=   80 NAOKFM=F Big=F
 One-electron integrals computed using PRISM.
 NBasis=   153 RedAO= T  NBF=   113    40
 NBsUse=   153 1.00D-06 NBFU=   113    40
 Harris functional with IExCor=  402 diagonalized for initial guess.
 ExpMin= 7.10D-03 ExpMax= 3.53D+04 ExpMxC= 5.30D+03 IAcc=3 IRadAn=         5 AccDes= 0.00D+00
 HarFok:  IExCor= 402 AccDes= 0.00D+00 IRadAn=         5 IDoV=1
 ScaDFX=  1.000000  1.000000  1.000000  1.000000
 Initial guess orbital symmetries:
       Occupied  (A') (A') (A') (A') (A') (A') (A') (A') (A') (A')
                 (A') (A') (A') (A") (A") (A') (A') (A') (A") (A')
                 (A') (A') (A') (A') (A') (A") (A") (A') (A') (A')
                 (A') (A') (A') (A') (A') (A") (A') (A") (A") (A')
                 (A') (A") (A')
       Virtual   (A") (A') (A') (A') (A') (A") (A') (A") (A') (A')
                 (A') (A') (A") (A') (A') (A") (A') (A') (A') (A")
                 (A') (A') (A') (A") (A') (A") (A') (A') (A") (A")
                 (A') (A') (A') (A') (A') (A") (A") (A') (A') (A')
                 (A') (A") (A') (A") (A') (A") (A') (A') (A') (A')
                 (A') (A") (A') (A') (A') (A') (A") (A') (A') (A')
                 (A') (A") (A") (A') (A') (A') (A') (A') (A") (A")
                 (A') (A") (A') (A') (A") (A') (A') (A') (A') (A')
                 (A') (A') (A') (A") (A') (A') (A") (A') (A") (A")
                 (A") (A') (A") (A') (A') (A') (A") (A') (A') (A')
                 (A") (A') (A') (A') (A') (A') (A') (A') (A') (A')
 The electronic state of the initial guess is 1-A'.
 Requested convergence on RMS density matrix=1.00D-04 within 128 cycles.
 Requested convergence on MAX density matrix=1.00D-02.
 Requested convergence on             energy=1.00D-02.
 No special actions if energy rises.
 EnCoef did     4 forward-backward iterations
 EnCoef did   100 forward-backward iterations
 SCF Done:  E(RB+HF-LYP) =  -1997.17687048     A.U. after   10 cycles
             Convg  =    0.8552D-04             -V/T =  2.0031
             S**2   =   0.0000

 **********************************************************************

            Population analysis using the SCF density.

 **********************************************************************

 Orbital symmetries:
       Occupied  (A') (A') (A') (A') (A') (A') (A') (A') (A') (A")
                 (A') (A') (A") (A') (A') (A') (A') (A") (A') (A')
                 (A') (A") (A') (A') (A') (A") (A') (A') (A') (A')
                 (A') (A') (A') (A') (A") (A') (A') (A") (A") (A')
                 (A') (A') (A")
       Virtual   (A') (A') (A") (A") (A') (A') (A") (A') (A') (A')
                 (A') (A') (A") (A') (A') (A") (A') (A') (A') (A")
                 (A') (A') (A") (A') (A') (A") (A') (A') (A') (A")
                 (A") (A') (A') (A") (A') (A') (A") (A') (A') (A')
                 (A") (A') (A") (A') (A") (A') (A') (A') (A') (A')
                 (A") (A') (A') (A') (A') (A') (A") (A') (A') (A')
                 (A') (A") (A") (A') (A') (A') (A') (A') (A') (A")
                 (A") (A") (A') (A') (A") (A') (A') (A') (A') (A')
                 (A') (A') (A') (A") (A') (A') (A") (A') (A") (A")
                 (A") (A') (A') (A") (A') (A") (A') (A') (A') (A')
                 (A') (A") (A') (A') (A') (A') (A') (A') (A') (A')
 The electronic state is 1-A'.
 Alpha  occ. eigenvalues -- -145.59131-145.52691 -77.29176 -19.27491 -19.26046
 Alpha  occ. eigenvalues --  -19.25648 -19.21763 -15.65948 -15.59578 -12.79186
 Alpha  occ. eigenvalues --  -12.79095 -12.79077 -12.72837 -12.72753 -12.72650
 Alpha  occ. eigenvalues --   -6.74153  -4.90417  -4.90329  -4.90184  -2.02933
 Alpha  occ. eigenvalues --   -1.96802  -1.30570  -1.30398  -1.30073  -1.24883
 Alpha  occ. eigenvalues --   -1.24599  -1.23923  -1.10315  -1.08071  -1.04930
 Alpha  occ. eigenvalues --   -0.87423  -0.66428  -0.54643  -0.53634  -0.50546
 Alpha  occ. eigenvalues --   -0.48771  -0.44098  -0.44024  -0.43531  -0.42725
 Alpha  occ. eigenvalues --   -0.35434  -0.31427  -0.30081
 Alpha virt. eigenvalues --   -0.25440  -0.21164  -0.18584  -0.16351  -0.16020
 Alpha virt. eigenvalues --   -0.13626  -0.12326  -0.10872  -0.09397  -0.08881
 Alpha virt. eigenvalues --   -0.06890  -0.06689  -0.06064  -0.05640  -0.05329
 Alpha virt. eigenvalues --   -0.04405  -0.04288  -0.03685  -0.03277  -0.03163
 Alpha virt. eigenvalues --   -0.02880  -0.01530  -0.00632   0.00183   0.00959
 Alpha virt. eigenvalues --    0.01286   0.01737   0.02296   0.02610   0.02924
 Alpha virt. eigenvalues --    0.03311   0.03964   0.05054   0.05130   0.06476
 Alpha virt. eigenvalues --    0.06975   0.08424   0.11647   0.13513   0.13853
 Alpha virt. eigenvalues --    0.15438   0.16419   0.17505   0.17824   0.19075
 Alpha virt. eigenvalues --    0.20280   0.22856   0.23760   0.24017   0.25286
 Alpha virt. eigenvalues --    0.25488   0.27407   0.28295   0.31807   0.33105
 Alpha virt. eigenvalues --    0.34776   0.35831   0.39236   0.41219   0.50491
 Alpha virt. eigenvalues --    0.52512   0.55136   0.56284   0.62241   0.65024
 Alpha virt. eigenvalues --    0.65829   0.81838   0.88696   0.99374   1.04362
 Alpha virt. eigenvalues --    1.07788   1.10591   1.12389   1.15207   1.16671
 Alpha virt. eigenvalues --    1.16828   1.20735   1.21451   1.22965   1.25485
 Alpha virt. eigenvalues --    1.42101   1.45988   1.46394   1.51107   1.51345
 Alpha virt. eigenvalues --    1.58215   1.67613   1.67842   1.69871   1.72091
 Alpha virt. eigenvalues --    1.76540   1.77992   1.81783   1.83918   1.83975
 Alpha virt. eigenvalues --    1.86570   1.87813   1.90623   1.94319   1.95917
 Alpha virt. eigenvalues --    2.26459   2.26561   2.28258   2.58798   3.09257
 Alpha virt. eigenvalues --    3.50355   3.85355   3.90451   4.01965   4.16368
          Condensed to atoms (all electrons):
              1          2          3          4          5          6
     1  O    8.502133  -0.069777  -0.011034   0.008209   0.002032  -0.024912
     2  O   -0.069777   8.563590  -0.083872   0.003559   0.009694  -0.008426
     3  O   -0.011034  -0.083872   9.347554  -0.632343   0.099032   0.042288
     4  P    0.008209   0.003559  -0.632343  15.031584   0.044110  -0.260856
     5  Ca   0.002032   0.009694   0.099032   0.044110  18.259955   0.053960
     6  O   -0.024912  -0.008426   0.042288  -0.260856   0.053960   9.134920
     7  Ca   0.174727   0.047979   0.011664  -0.021094   0.001022   0.060043
              7
     1  O    0.174727
     2  O    0.047979
     3  O    0.011664
     4  P   -0.021094
     5  Ca   0.001022
     6  O    0.060043
     7  Ca  18.268259
 Mulliken atomic charges:
              1
     1  O   -0.581377
     2  O   -0.462745
     3  O   -0.773289
     4  P    0.826831
     5  Ca   1.530196
     6  O   -0.997016
     7  Ca   1.457400
 Sum of Mulliken charges=   1.00000
 Atomic charges with hydrogens summed into heavy atoms:
              1
     1  O   -0.581377
     2  O   -0.462745
     3  O   -0.773289
     4  P    0.826831
     5  Ca   1.530196
     6  O   -0.997016
     7  Ca   1.457400
 Sum of Mulliken charges=   1.00000
 Electronic spatial extent (au):  <R**2>=  1615.8874
 Charge=     1.0000 electrons
 Dipole moment (field-independent basis, Debye):
    X=    -1.1639    Y=    19.8750    Z=     0.0000  Tot=    19.9090
 Quadrupole moment (field-independent basis, Debye-Ang):
   XX=   -25.2136   YY=   -47.0992   ZZ=   -55.7636
   XY=   -10.5959   XZ=     0.0000   YZ=     0.0000
 Traceless Quadrupole moment (field-independent basis, Debye-Ang):
   XX=    17.4785   YY=    -4.4070   ZZ=   -13.0715
   XY=   -10.5959   XZ=     0.0000   YZ=     0.0000
 Octapole moment (field-independent basis, Debye-Ang**2):
  XXX=    37.6487  YYY=   134.1522  ZZZ=     0.0000  XYY=   -96.4538
  XXY=   109.2175  XXZ=     0.0000  XZZ=     1.0630  YZZ=    14.3977
  YYZ=     0.0000  XYZ=     0.0000
 Hexadecapole moment (field-independent basis, Debye-Ang**3):
 XXXX=  -907.5686 YYYY=  -605.0267 ZZZZ=   -62.3798 XXXY=   174.7292
 XXXZ=     0.0000 YYYX=   151.8678 YYYZ=     0.0000 ZZZX=     0.0000
 ZZZY=     0.0000 XXYY=  -231.2758 XXZZ=  -176.2400 YYZZ=  -119.6364
 XXYZ=     0.0000 YYXZ=     0.0000 ZZXY=    66.9353
 N-N= 5.922506218235D+02 E-N=-5.903851694364D+03  KE= 1.991054829846D+03
 Symmetry A'   KE= 1.800770740508D+03
 Symmetry A"   KE= 1.902840893383D+02
 Merz-Kollman atomic radii used.
 Read replacement radii for each type of atom:
 Rad(20) =   1.188000000000D+00
 Atom Element Radius
    1     8    1.40
    2     8    1.40
    3     8    1.40
    4    15    1.80
    5    20    1.19
    6     8    1.40
    7    20    1.19

 **********************************************************************

            Electrostatic Properties Using The SCF Density

 **********************************************************************

       Atomic Center    1 is at   2.303251 -2.181829  0.000000
       Atomic Center    2 is at   0.841621 -1.829390  0.000000
       Atomic Center    3 is at  -2.303930 -0.176842  0.000000
       Atomic Center    4 is at  -0.829089 -0.785601  0.000000
       Atomic Center    5 is at  -1.901671  1.974849  0.000000
       Atomic Center    6 is at   0.000000  0.756940  0.000000
       Atomic Center    7 is at   2.187110 -0.013199  0.000000
     657 points will be used for fitting atomic charges
 Fitting point charges to eletrostatic potential
 Charges from ESP fit, RMS=   0.00495 RRMS=   0.02938:
 Charge=   1.00000 Dipole=    -1.1849    20.2820     0.0000 Tot=    20.3166
              1
     1  O   -0.671824
     2  O   -0.418343
     3  O   -0.788048
     4  P    0.709032
     5  Ca   1.672235
     6  O   -1.151375
     7  Ca   1.648323
 -----------------------------------------------------------------

              Electrostatic Properties (Atomic Units)

 -----------------------------------------------------------------
    Center     Electric         -------- Electric Field --------
               Potential          X             Y             Z
 -----------------------------------------------------------------
    1 Atom    -22.273031
    2 Atom    -22.226852
    3 Atom    -22.210025
    4 Atom    -53.926022
    5 Atom    -79.947325
    6 Atom    -22.189415
    7 Atom    -80.015952
 -----------------------------------------------------------------
 1\1\GINC-N028\SP\RB3LYP\6-31+G(d,p)\Ca2O4P1(1+)\TIMN\12-Jun-2015\0\\# 
 b3lyp/6-31+G(d,p) int=ultrafine pop=(ReadRadii,MK)\\mol_16.4.55.pdb_pl
 usQ.out.z51606.zip.xyz\\1,1\O,0,2.30325,-2.18183,0.\O,0,0.84162,-1.829
 39,0.\O,0,-2.30393,-0.17684,0.\P,0,-0.82909,-0.7856,0.\Ca,0,-1.90167,1
 .97485,0.\O,0,0.,0.75694,0.\Ca,0,2.18711,-0.0132,0.\\Version=EM64T-G03
 RevE.01\State=1-A'\HF=-1997.1768705\RMSD=8.552e-05\Thermal=0.\Dipole=-
 0.4578964,7.8194109,0.\PG=CS [SG(Ca2O4P1)]\\@


 ON A TOMBSTONE, "HERE LIES LESTER MOORE,
 FOUR SLUGS FROM A 44, NO LES, NO MORE".
 Job cpu time:  0 days  0 hours  0 minutes 52.3 seconds.
 File lengths (MBytes):  RWF=     28 Int=      0 D2E=      0 Chk=     10 Scr=      1
 Normal termination of Gaussian 03 at Fri Jun 12 17:48:56 2015.
