 Entering Gaussian System, Link 0=/home/timn/tmp/g03.e01/g03
 Input=mol_17.23.58.pdbccc_plusQ.z58258.zip.xyz.gjf
 Output=mol_17.23.58.pdbccc_plusQ.z58258.zip.xyz.out
 Initial command:
 /home/timn/tmp/g03.e01/l1.exe /home/timn/tmp/g03.e01/Gau-18091.inp -scrdir=/home/timn/tmp/g03.e01/
 Default is to use a total of   2 processors:
                                2 via shared-memory
                                1 via Linda
 Entering Link 1 = /home/timn/tmp/g03.e01/l1.exe PID=     18092.
  
 Copyright (c) 1988,1990,1992,1993,1995,1998,2003,2004,2007, Gaussian, Inc.
                  All Rights Reserved.
  
 This is the Gaussian(R) 03 program.  It is based on the
 the Gaussian(R) 98 system (copyright 1998, Gaussian, Inc.),
 the Gaussian(R) 94 system (copyright 1995, Gaussian, Inc.),
 the Gaussian 92(TM) system (copyright 1992, Gaussian, Inc.),
 the Gaussian 90(TM) system (copyright 1990, Gaussian, Inc.),
 the Gaussian 88(TM) system (copyright 1988, Gaussian, Inc.),
 the Gaussian 86(TM) system (copyright 1986, Carnegie Mellon
 University), and the Gaussian 82(TM) system (copyright 1983,
 Carnegie Mellon University). Gaussian is a federally registered
 trademark of Gaussian, Inc.
  
 This software contains proprietary and confidential information,
 including trade secrets, belonging to Gaussian, Inc.
  
 This software is provided under written license and may be
 used, copied, transmitted, or stored only in accord with that
 written license.
  
 The following legend is applicable only to US Government
 contracts under FAR:
  
                    RESTRICTED RIGHTS LEGEND
  
 Use, reproduction and disclosure by the US Government is
 subject to restrictions as set forth in subparagraphs (a)
 and (c) of the Commercial Computer Software - Restricted
 Rights clause in FAR 52.227-19.
  
 Gaussian, Inc.
 340 Quinnipiac St., Bldg. 40, Wallingford CT 06492
  
  
 ---------------------------------------------------------------
 Warning -- This program may not be used in any manner that
 competes with the business of Gaussian, Inc. or will provide
 assistance to any competitor of Gaussian, Inc.  The licensee
 of this program is prohibited from giving any competitor of
 Gaussian, Inc. access to this program.  By using this program,
 the user acknowledges that Gaussian, Inc. is engaged in the
 business of creating and licensing software in the field of
 computational chemistry and represents and warrants to the
 licensee that it is not a competitor of Gaussian, Inc. and that
 it will not use this program in any manner prohibited above.
 ---------------------------------------------------------------
  

 Cite this work as:
 Gaussian 03, Revision E.01,
 M. J. Frisch, G. W. Trucks, H. B. Schlegel, G. E. Scuseria, 
 M. A. Robb, J. R. Cheeseman, J. A. Montgomery, Jr., T. Vreven, 
 K. N. Kudin, J. C. Burant, J. M. Millam, S. S. Iyengar, J. Tomasi, 
 V. Barone, B. Mennucci, M. Cossi, G. Scalmani, N. Rega, 
 G. A. Petersson, H. Nakatsuji, M. Hada, M. Ehara, K. Toyota, 
 R. Fukuda, J. Hasegawa, M. Ishida, T. Nakajima, Y. Honda, O. Kitao, 
 H. Nakai, M. Klene, X. Li, J. E. Knox, H. P. Hratchian, J. B. Cross, 
 V. Bakken, C. Adamo, J. Jaramillo, R. Gomperts, R. E. Stratmann, 
 O. Yazyev, A. J. Austin, R. Cammi, C. Pomelli, J. W. Ochterski, 
 P. Y. Ayala, K. Morokuma, G. A. Voth, P. Salvador, J. J. Dannenberg, 
 V. G. Zakrzewski, S. Dapprich, A. D. Daniels, M. C. Strain, 
 O. Farkas, D. K. Malick, A. D. Rabuck, K. Raghavachari, 
 J. B. Foresman, J. V. Ortiz, Q. Cui, A. G. Baboul, S. Clifford, 
 J. Cioslowski, B. B. Stefanov, G. Liu, A. Liashenko, P. Piskorz, 
 I. Komaromi, R. L. Martin, D. J. Fox, T. Keith, M. A. Al-Laham, 
 C. Y. Peng, A. Nanayakkara, M. Challacombe, P. M. W. Gill, 
 B. Johnson, W. Chen, M. W. Wong, C. Gonzalez, and J. A. Pople, 
 Gaussian, Inc., Wallingford CT, 2004.
 
 ******************************************
 Gaussian 03:  EM64T-G03RevE.01 11-Sep-2007
                12-Jun-2015 
 ******************************************
 %nproc=2
 Will use up to    2 processors via shared memory.
 Default route:  MP2=Direct MaxDisk=2000MB
 ----------------------------------------------------
 # b3lyp/6-31+G(d,p) int=ultrafine pop=(ReadRadii,MK)
 ----------------------------------------------------

 Warning!  SCF SP cutoffs with diffuse functions may be unreliable.
 Consider SCF=Tight

 1/38=1/1;
 2/17=6,18=5,40=1/2;
 3/5=1,6=6,7=111,11=2,16=1,25=1,30=1,74=-5,75=5/1,2,3;
 4//1;
 5/5=2,32=1,38=5/2;
 6/7=2,8=2,9=2,10=2,15=8,20=101,28=1/1,2;
 99/5=1,9=1/99;
 ----------------------------------------
 mol_17.23.58.pdbccc_plusQ.z58258.zip.xyz
 ----------------------------------------
 Symbolic Z-matrix:
 Charge =  1 Multiplicity = 1
 O                    -0.73061  -2.10863  -0.6927 
 O                    -0.67264  -1.90833   0.86312 
 O                    -1.80702   1.32175  -0.86344 
 O                    -1.96481   1.42079   0.69781 
 Ca                   -2.38851  -0.70929  -0.01057 
 P                     3.29559   0.47876  -0.02257 
 O                     1.70323   0.73313   0.02593 
 Ca                   -0.04626   2.28941   0.03831 
 Ca                    1.35182  -1.72267  -0.0231 
 
                          Input orientation:                          
 ---------------------------------------------------------------------
 Center     Atomic     Atomic              Coordinates (Angstroms)
 Number     Number      Type              X           Y           Z
 ---------------------------------------------------------------------
    1          8             0       -0.730610   -2.108630   -0.692700
    2          8             0       -0.672640   -1.908330    0.863120
    3          8             0       -1.807020    1.321750   -0.863440
    4          8             0       -1.964810    1.420790    0.697810
    5         20             0       -2.388510   -0.709290   -0.010570
    6         15             0        3.295590    0.478760   -0.022570
    7          8             0        1.703230    0.733130    0.025930
    8         20             0       -0.046260    2.289410    0.038310
    9         20             0        1.351820   -1.722670   -0.023100
 ---------------------------------------------------------------------
                    Distance matrix (angstroms):
                    1          2          3          4          5
     1  O    0.000000
     2  O    1.569731   0.000000
     3  O    3.599350   3.834220   0.000000
     4  O    3.989182   3.574922   1.572326   0.000000
     5  Ca   2.274222   2.268312   2.278298   2.284418   0.000000
     6  P    4.832592   4.714817   5.239687   5.392418   5.806944
     7  O    3.809935   3.650063   3.668693   3.791941   4.338692
     8  Ca   4.510595   4.323619   2.202225   2.206870   3.805355
     9  Ca   2.221226   2.217723   4.466871   4.626131   3.875199
                    6          7          8          9
     6  P    0.000000
     7  O    1.613278   0.000000
     8  Ca   3.801332   2.341554   0.000000
     9  Ca   2.936756   2.481299   4.249139   0.000000
 Stoichiometry    Ca3O5P(1+)
 Framework group  C1[X(Ca3O5P)]
 Deg. of freedom    21
 Full point group                 C1
 Largest Abelian subgroup         C1      NOp   1
 Largest concise Abelian subgroup C1      NOp   1
                         Standard orientation:                         
 ---------------------------------------------------------------------
 Center     Atomic     Atomic              Coordinates (Angstroms)
 Number     Number      Type              X           Y           Z
 ---------------------------------------------------------------------
    1          8             0       -0.730610   -2.108631   -0.692700
    2          8             0       -0.672640   -1.908331    0.863120
    3          8             0       -1.807021    1.321749   -0.863440
    4          8             0       -1.964811    1.420789    0.697810
    5         20             0       -2.388510   -0.709291   -0.010570
    6         15             0        3.295590    0.478760   -0.022570
    7          8             0        1.703229    0.733130    0.025930
    8         20             0       -0.046261    2.289409    0.038310
    9         20             0        1.351820   -1.722671   -0.023100
 ---------------------------------------------------------------------
 Rotational constants (GHZ):      0.8524460      0.5924492      0.3696828
 Standard basis: 6-31+G(d,p) (6D, 7F)
 There are   199 symmetry adapted basis functions of A   symmetry.
 Integral buffers will be    131072 words long.
 Raffenetti 2 integral format.
 Two-electron integral symmetry is turned on.
   199 basis functions,   456 primitive gaussians,   199 cartesian basis functions
    57 alpha electrons       57 beta electrons
       nuclear repulsion energy       956.0345451987 Hartrees.
 NAtoms=    9 NActive=    9 NUniq=    9 SFac= 7.50D-01 NAtFMM=   80 NAOKFM=F Big=F
 One-electron integrals computed using PRISM.
 NBasis=   199 RedAO= T  NBF=   199
 NBsUse=   199 1.00D-06 NBFU=   199
 Harris functional with IExCor=  402 diagonalized for initial guess.
 ExpMin= 7.10D-03 ExpMax= 3.53D+04 ExpMxC= 5.30D+03 IAcc=3 IRadAn=         5 AccDes= 0.00D+00
 HarFok:  IExCor= 402 AccDes= 0.00D+00 IRadAn=         5 IDoV=1
 ScaDFX=  1.000000  1.000000  1.000000  1.000000
 Initial guess orbital symmetries:
       Occupied  (A) (A) (A) (A) (A) (A) (A) (A) (A) (A) (A) (A)
                 (A) (A) (A) (A) (A) (A) (A) (A) (A) (A) (A) (A)
                 (A) (A) (A) (A) (A) (A) (A) (A) (A) (A) (A) (A)
                 (A) (A) (A) (A) (A) (A) (A) (A) (A) (A) (A) (A)
                 (A) (A) (A) (A) (A) (A) (A) (A) (A)
       Virtual   (A) (A) (A) (A) (A) (A) (A) (A) (A) (A) (A) (A)
                 (A) (A) (A) (A) (A) (A) (A) (A) (A) (A) (A) (A)
                 (A) (A) (A) (A) (A) (A) (A) (A) (A) (A) (A) (A)
                 (A) (A) (A) (A) (A) (A) (A) (A) (A) (A) (A) (A)
                 (A) (A) (A) (A) (A) (A) (A) (A) (A) (A) (A) (A)
                 (A) (A) (A) (A) (A) (A) (A) (A) (A) (A) (A) (A)
                 (A) (A) (A) (A) (A) (A) (A) (A) (A) (A) (A) (A)
                 (A) (A) (A) (A) (A) (A) (A) (A) (A) (A) (A) (A)
                 (A) (A) (A) (A) (A) (A) (A) (A) (A) (A) (A) (A)
                 (A) (A) (A) (A) (A) (A) (A) (A) (A) (A) (A) (A)
                 (A) (A) (A) (A) (A) (A) (A) (A) (A) (A) (A) (A)
                 (A) (A) (A) (A) (A) (A) (A) (A) (A) (A)
 The electronic state of the initial guess is 1-A.
 Requested convergence on RMS density matrix=1.00D-04 within 128 cycles.
 Requested convergence on MAX density matrix=1.00D-02.
 Requested convergence on             energy=1.00D-02.
 No special actions if energy rises.
 EnCoef did     8 forward-backward iterations
 EnCoef did     5 forward-backward iterations
 EnCoef did     8 forward-backward iterations
 EnCoef did     3 forward-backward iterations
 SCF Done:  E(RB+HF-LYP) =  -2750.03105535     A.U. after   12 cycles
             Convg  =    0.5679D-04             -V/T =  2.0029
             S**2   =   0.0000

 **********************************************************************

            Population analysis using the SCF density.

 **********************************************************************

 Orbital symmetries:
       Occupied  (A) (A) (A) (A) (A) (A) (A) (A) (A) (A) (A) (A)
                 (A) (A) (A) (A) (A) (A) (A) (A) (A) (A) (A) (A)
                 (A) (A) (A) (A) (A) (A) (A) (A) (A) (A) (A) (A)
                 (A) (A) (A) (A) (A) (A) (A) (A) (A) (A) (A) (A)
                 (A) (A) (A) (A) (A) (A) (A) (A) (A)
       Virtual   (A) (A) (A) (A) (A) (A) (A) (A) (A) (A) (A) (A)
                 (A) (A) (A) (A) (A) (A) (A) (A) (A) (A) (A) (A)
                 (A) (A) (A) (A) (A) (A) (A) (A) (A) (A) (A) (A)
                 (A) (A) (A) (A) (A) (A) (A) (A) (A) (A) (A) (A)
                 (A) (A) (A) (A) (A) (A) (A) (A) (A) (A) (A) (A)
                 (A) (A) (A) (A) (A) (A) (A) (A) (A) (A) (A) (A)
                 (A) (A) (A) (A) (A) (A) (A) (A) (A) (A) (A) (A)
                 (A) (A) (A) (A) (A) (A) (A) (A) (A) (A) (A) (A)
                 (A) (A) (A) (A) (A) (A) (A) (A) (A) (A) (A) (A)
                 (A) (A) (A) (A) (A) (A) (A) (A) (A) (A) (A) (A)
                 (A) (A) (A) (A) (A) (A) (A) (A) (A) (A) (A) (A)
                 (A) (A) (A) (A) (A) (A) (A) (A) (A) (A)
 The electronic state is 1-A.
 Alpha  occ. eigenvalues -- -145.52466-145.50032-145.45751 -77.26945 -19.31911
 Alpha  occ. eigenvalues --  -19.23173 -19.23155 -19.22622 -19.22613 -15.59280
 Alpha  occ. eigenvalues --  -15.56929 -15.52652 -12.72509 -12.72491 -12.72375
 Alpha  occ. eigenvalues --  -12.70163 -12.70146 -12.69996 -12.65888 -12.65841
 Alpha  occ. eigenvalues --  -12.65739  -6.73245  -4.90004  -4.89489  -4.88498
 Alpha  occ. eigenvalues --   -1.96407  -1.94167  -1.89987  -1.24328  -1.23994
 Alpha  occ. eigenvalues --   -1.23928  -1.22050  -1.21923  -1.21826  -1.18140
 Alpha  occ. eigenvalues --   -1.17908  -1.17502  -1.12787  -1.05796  -1.04903
 Alpha  occ. eigenvalues --   -0.86996  -0.86383  -0.69613  -0.53393  -0.52107
 Alpha  occ. eigenvalues --   -0.51797  -0.46574  -0.46000  -0.45775  -0.44511
 Alpha  occ. eigenvalues --   -0.44031  -0.42826  -0.34749  -0.34090  -0.32028
 Alpha  occ. eigenvalues --   -0.31946  -0.30620
 Alpha virt. eigenvalues --   -0.26300  -0.19919  -0.17126  -0.14463  -0.13341
 Alpha virt. eigenvalues --   -0.12636  -0.11439  -0.09807  -0.09290  -0.08804
 Alpha virt. eigenvalues --   -0.07310  -0.07089  -0.06602  -0.06016  -0.05840
 Alpha virt. eigenvalues --   -0.05653  -0.04923  -0.04777  -0.04626  -0.04373
 Alpha virt. eigenvalues --   -0.04278  -0.03981  -0.03724  -0.03684  -0.03301
 Alpha virt. eigenvalues --   -0.03016  -0.02625  -0.02488  -0.02277  -0.01841
 Alpha virt. eigenvalues --    0.00453   0.00982   0.01226   0.01661   0.03192
 Alpha virt. eigenvalues --    0.03896   0.04075   0.04565   0.05156   0.06027
 Alpha virt. eigenvalues --    0.07605   0.08026   0.08460   0.08561   0.09186
 Alpha virt. eigenvalues --    0.09307   0.10097   0.10312   0.11404   0.11802
 Alpha virt. eigenvalues --    0.12898   0.13571   0.14166   0.14900   0.15676
 Alpha virt. eigenvalues --    0.16638   0.17115   0.18844   0.19738   0.20406
 Alpha virt. eigenvalues --    0.20746   0.21780   0.22779   0.23055   0.26385
 Alpha virt. eigenvalues --    0.27060   0.28303   0.31679   0.32114   0.33250
 Alpha virt. eigenvalues --    0.34279   0.35457   0.36849   0.36942   0.37536
 Alpha virt. eigenvalues --    0.38702   0.40136   0.41127   0.43181   0.48824
 Alpha virt. eigenvalues --    0.49240   0.53796   0.54716   0.57093   0.61126
 Alpha virt. eigenvalues --    0.67812   0.68950   0.76672   0.86669   0.89890
 Alpha virt. eigenvalues --    0.94993   1.04447   1.10264   1.10953   1.11604
 Alpha virt. eigenvalues --    1.13429   1.16165   1.18170   1.18817   1.19605
 Alpha virt. eigenvalues --    1.20789   1.21147   1.24055   1.25147   1.27090
 Alpha virt. eigenvalues --    1.36015   1.40669   1.51515   1.52964   1.53318
 Alpha virt. eigenvalues --    1.53886   1.54386   1.55853   1.62085   1.64423
 Alpha virt. eigenvalues --    1.71229   1.73778   1.74654   1.77499   1.80491
 Alpha virt. eigenvalues --    1.83809   1.84388   1.84837   1.86826   1.88420
 Alpha virt. eigenvalues --    1.88925   1.89272   1.95137   2.01210   2.18528
 Alpha virt. eigenvalues --    2.19553   2.20654   2.20840   2.45754   3.02885
 Alpha virt. eigenvalues --    3.04388   3.36381   3.86074   3.98432   4.11774
 Alpha virt. eigenvalues --    4.13505   4.16351
          Condensed to atoms (all electrons):
              1          2          3          4          5          6
     1  O    8.512494  -0.043383   0.018312  -0.012798   0.084210  -0.004526
     2  O   -0.043383   8.513547  -0.015994   0.018024   0.078695  -0.002429
     3  O    0.018312  -0.015994   8.492976  -0.032199   0.077250  -0.000939
     4  O   -0.012798   0.018024  -0.032199   8.491010   0.079964  -0.002488
     5  Ca   0.084210   0.078695   0.077250   0.079964  18.265577   0.003579
     6  P   -0.004526  -0.002429  -0.000939  -0.002488   0.003579  15.162452
     7  O    0.000603   0.003423   0.005864  -0.000642   0.003813  -0.365076
     8  Ca   0.000348   0.007551   0.111060   0.125265  -0.023465  -0.012219
     9  Ca   0.119737   0.103723   0.006013   0.001105  -0.022310   0.173046
              7          8          9
     1  O    0.000603   0.000348   0.119737
     2  O    0.003423   0.007551   0.103723
     3  O    0.005864   0.111060   0.006013
     4  O   -0.000642   0.125265   0.001105
     5  Ca   0.003813  -0.023465  -0.022310
     6  P   -0.365076  -0.012219   0.173046
     7  O    9.048713   0.038641  -0.032538
     8  Ca   0.038641  18.238037   0.002110
     9  Ca  -0.032538   0.002110  18.292537
 Mulliken atomic charges:
              1
     1  O   -0.674998
     2  O   -0.663157
     3  O   -0.662343
     4  O   -0.667241
     5  Ca   1.452688
     6  P    0.048600
     7  O   -0.702800
     8  Ca   1.512674
     9  Ca   1.356576
 Sum of Mulliken charges=   1.00000
 Atomic charges with hydrogens summed into heavy atoms:
              1
     1  O   -0.674998
     2  O   -0.663157
     3  O   -0.662343
     4  O   -0.667241
     5  Ca   1.452688
     6  P    0.048600
     7  O   -0.702800
     8  Ca   1.512674
     9  Ca   1.356576
 Sum of Mulliken charges=   1.00000
 Electronic spatial extent (au):  <R**2>=  2632.1658
 Charge=     1.0000 electrons
 Dipole moment (field-independent basis, Debye):
    X=     3.3711    Y=     2.6616    Z=     0.0080  Tot=     4.2951
 Quadrupole moment (field-independent basis, Debye-Ang):
   XX=   -54.3815   YY=   -51.1685   ZZ=   -81.0545
   XY=     2.5287   XZ=    -0.3541   YZ=     1.9629
 Traceless Quadrupole moment (field-independent basis, Debye-Ang):
   XX=     7.8200   YY=    11.0330   ZZ=   -18.8530
   XY=     2.5287   XZ=    -0.3541   YZ=     1.9629
 Octapole moment (field-independent basis, Debye-Ang**2):
  XXX=  -101.9568  YYY=    93.6970  ZZZ=     0.2158  XYY=    41.2915
  XXY=   -87.5446  XXZ=     0.0363  XZZ=     7.4960  YZZ=     4.4228
  YYZ=     1.3822  XYZ=    -0.8085
 Hexadecapole moment (field-independent basis, Debye-Ang**3):
 XXXX= -1623.0781 YYYY=  -903.0734 ZZZZ=  -175.7242 XXXY=    98.0487
 XXXZ=     3.8517 YYYX=   -83.9970 YYYZ=     5.7704 ZZZX=    -1.5701
 ZZZY=     8.0890 XXYY=  -526.3301 XXZZ=  -325.0167 YYZZ=  -234.0482
 XXYZ=    -0.3515 YYXZ=    -0.7435 ZZXY=     6.1708
 N-N= 9.560345451987D+02 E-N=-8.412984041014D+03  KE= 2.742150020793D+03
 Merz-Kollman atomic radii used.
 Read replacement radii for each type of atom:
 Rad(20) =   1.188000000000D+00
 Atom Element Radius
    1     8    1.40
    2     8    1.40
    3     8    1.40
    4     8    1.40
    5    20    1.19
    6    15    1.80
    7     8    1.40
    8    20    1.19
    9    20    1.19

 **********************************************************************

            Electrostatic Properties Using The SCF Density

 **********************************************************************

       Atomic Center    1 is at  -0.730610 -2.108631 -0.692700
       Atomic Center    2 is at  -0.672640 -1.908331  0.863120
       Atomic Center    3 is at  -1.807021  1.321749 -0.863440
       Atomic Center    4 is at  -1.964811  1.420789  0.697810
       Atomic Center    5 is at  -2.388510 -0.709291 -0.010570
       Atomic Center    6 is at   3.295590  0.478760 -0.022570
       Atomic Center    7 is at   1.703229  0.733130  0.025930
       Atomic Center    8 is at  -0.046261  2.289409  0.038310
       Atomic Center    9 is at   1.351820 -1.722671 -0.023100
     915 points will be used for fitting atomic charges
 Fitting point charges to eletrostatic potential
 Charges from ESP fit, RMS=   0.00855 RRMS=   0.05905:
 Charge=   1.00000 Dipole=     3.6814     2.4497    -0.0323 Tot=     4.4220
              1
     1  O   -0.772780
     2  O   -0.769326
     3  O   -0.810574
     4  O   -0.818745
     5  Ca   1.707304
     6  P    0.025750
     7  O   -0.773543
     8  Ca   1.731230
     9  Ca   1.480683
 -----------------------------------------------------------------

              Electrostatic Properties (Atomic Units)

 -----------------------------------------------------------------
    Center     Electric         -------- Electric Field --------
               Potential          X             Y             Z
 -----------------------------------------------------------------
    1 Atom    -22.243441
    2 Atom    -22.245344
    3 Atom    -22.238271
    4 Atom    -22.237910
    5 Atom    -80.082855
    6 Atom    -53.950878
    7 Atom    -22.144226
    8 Atom    -80.015501
    9 Atom    -80.040555
 -----------------------------------------------------------------
 1\1\GINC-N025\SP\RB3LYP\6-31+G(d,p)\Ca3O5P1(1+)\TIMN\12-Jun-2015\0\\# 
 b3lyp/6-31+G(d,p) int=ultrafine pop=(ReadRadii,MK)\\mol_17.23.58.pdbcc
 c_plusQ.z58258.zip.xyz\\1,1\O,0,-0.73061,-2.10863,-0.6927\O,0,-0.67264
 ,-1.90833,0.86312\O,0,-1.80702,1.32175,-0.86344\O,0,-1.96481,1.42079,0
 .69781\Ca,0,-2.38851,-0.70929,-0.01057\P,0,3.29559,0.47876,-0.02257\O,
 0,1.70323,0.73313,0.02593\Ca,0,-0.04626,2.28941,0.03831\Ca,0,1.35182,-
 1.72267,-0.0231\\Version=EM64T-G03RevE.01\State=1-A\HF=-2750.0310554\R
 MSD=5.679e-05\Thermal=0.\Dipole=1.3262769,1.0471392,0.0031355\PG=C01 [
 X(Ca3O5P1)]\\@


 WHEN YOU'VE SEEN ONE NUCLEAR WAR YOU'VE SEEN THEM ALL.
 Job cpu time:  0 days  0 hours  2 minutes 51.7 seconds.
 File lengths (MBytes):  RWF=     36 Int=      0 D2E=      0 Chk=     11 Scr=      1
 Normal termination of Gaussian 03 at Fri Jun 12 17:54:47 2015.
