 Entering Gaussian System, Link 0=/home/timn/tmp/g03.e01/g03
 Input=mol_16.4.40.pdbcc_plusQ.out.z51590.zip.xyz.gjf
 Output=mol_16.4.40.pdbcc_plusQ.out.z51590.zip.xyz.out
 Initial command:
 /home/timn/tmp/g03.e01/l1.exe /home/timn/tmp/g03.e01/Gau-12412.inp -scrdir=/home/timn/tmp/g03.e01/
 Default is to use a total of   2 processors:
                                2 via shared-memory
                                1 via Linda
 Entering Link 1 = /home/timn/tmp/g03.e01/l1.exe PID=     12415.
  
 Copyright (c) 1988,1990,1992,1993,1995,1998,2003,2004,2007, Gaussian, Inc.
                  All Rights Reserved.
  
 This is the Gaussian(R) 03 program.  It is based on the
 the Gaussian(R) 98 system (copyright 1998, Gaussian, Inc.),
 the Gaussian(R) 94 system (copyright 1995, Gaussian, Inc.),
 the Gaussian 92(TM) system (copyright 1992, Gaussian, Inc.),
 the Gaussian 90(TM) system (copyright 1990, Gaussian, Inc.),
 the Gaussian 88(TM) system (copyright 1988, Gaussian, Inc.),
 the Gaussian 86(TM) system (copyright 1986, Carnegie Mellon
 University), and the Gaussian 82(TM) system (copyright 1983,
 Carnegie Mellon University). Gaussian is a federally registered
 trademark of Gaussian, Inc.
  
 This software contains proprietary and confidential information,
 including trade secrets, belonging to Gaussian, Inc.
  
 This software is provided under written license and may be
 used, copied, transmitted, or stored only in accord with that
 written license.
  
 The following legend is applicable only to US Government
 contracts under FAR:
  
                    RESTRICTED RIGHTS LEGEND
  
 Use, reproduction and disclosure by the US Government is
 subject to restrictions as set forth in subparagraphs (a)
 and (c) of the Commercial Computer Software - Restricted
 Rights clause in FAR 52.227-19.
  
 Gaussian, Inc.
 340 Quinnipiac St., Bldg. 40, Wallingford CT 06492
  
  
 ---------------------------------------------------------------
 Warning -- This program may not be used in any manner that
 competes with the business of Gaussian, Inc. or will provide
 assistance to any competitor of Gaussian, Inc.  The licensee
 of this program is prohibited from giving any competitor of
 Gaussian, Inc. access to this program.  By using this program,
 the user acknowledges that Gaussian, Inc. is engaged in the
 business of creating and licensing software in the field of
 computational chemistry and represents and warrants to the
 licensee that it is not a competitor of Gaussian, Inc. and that
 it will not use this program in any manner prohibited above.
 ---------------------------------------------------------------
  

 Cite this work as:
 Gaussian 03, Revision E.01,
 M. J. Frisch, G. W. Trucks, H. B. Schlegel, G. E. Scuseria, 
 M. A. Robb, J. R. Cheeseman, J. A. Montgomery, Jr., T. Vreven, 
 K. N. Kudin, J. C. Burant, J. M. Millam, S. S. Iyengar, J. Tomasi, 
 V. Barone, B. Mennucci, M. Cossi, G. Scalmani, N. Rega, 
 G. A. Petersson, H. Nakatsuji, M. Hada, M. Ehara, K. Toyota, 
 R. Fukuda, J. Hasegawa, M. Ishida, T. Nakajima, Y. Honda, O. Kitao, 
 H. Nakai, M. Klene, X. Li, J. E. Knox, H. P. Hratchian, J. B. Cross, 
 V. Bakken, C. Adamo, J. Jaramillo, R. Gomperts, R. E. Stratmann, 
 O. Yazyev, A. J. Austin, R. Cammi, C. Pomelli, J. W. Ochterski, 
 P. Y. Ayala, K. Morokuma, G. A. Voth, P. Salvador, J. J. Dannenberg, 
 V. G. Zakrzewski, S. Dapprich, A. D. Daniels, M. C. Strain, 
 O. Farkas, D. K. Malick, A. D. Rabuck, K. Raghavachari, 
 J. B. Foresman, J. V. Ortiz, Q. Cui, A. G. Baboul, S. Clifford, 
 J. Cioslowski, B. B. Stefanov, G. Liu, A. Liashenko, P. Piskorz, 
 I. Komaromi, R. L. Martin, D. J. Fox, T. Keith, M. A. Al-Laham, 
 C. Y. Peng, A. Nanayakkara, M. Challacombe, P. M. W. Gill, 
 B. Johnson, W. Chen, M. W. Wong, C. Gonzalez, and J. A. Pople, 
 Gaussian, Inc., Wallingford CT, 2004.
 
 ******************************************
 Gaussian 03:  EM64T-G03RevE.01 11-Sep-2007
                12-Jun-2015 
 ******************************************
 %nproc=2
 Will use up to    2 processors via shared memory.
 Default route:  MP2=Direct MaxDisk=2000MB
 ----------------------------------------------------
 # b3lyp/6-31+G(d,p) int=ultrafine pop=(ReadRadii,MK)
 ----------------------------------------------------

 Warning!  SCF SP cutoffs with diffuse functions may be unreliable.
 Consider SCF=Tight

 1/38=1/1;
 2/17=6,18=5,40=1/2;
 3/5=1,6=6,7=111,11=2,16=1,25=1,30=1,74=-5,75=5/1,2,3;
 4//1;
 5/5=2,32=1,38=5/2;
 6/7=2,8=2,9=2,10=2,15=8,20=101,28=1/1,2;
 99/5=1,9=1/99;
 ------------------------------------------
 mol_16.4.40.pdbcc_plusQ.out.z51590.zip.xyz
 ------------------------------------------
 Symbolic Z-matrix:
 Charge =  1 Multiplicity = 1
 O                    -0.20348  -1.70854  -0.00562 
 O                     1.72987  -0.02944  -0.7659 
 O                     1.72362  -0.03038   0.77043 
 P                     1.3267   -1.57901   0.0007 
 Ca                   -2.20576  -0.5985    0.00105 
 O                    -1.52455   1.39719  -0.00065 
 Ca                    0.52055   1.93123  -0.00087 
 
                          Input orientation:                          
 ---------------------------------------------------------------------
 Center     Atomic     Atomic              Coordinates (Angstroms)
 Number     Number      Type              X           Y           Z
 ---------------------------------------------------------------------
    1          8             0       -0.203480   -1.708540   -0.005620
    2          8             0        1.729870   -0.029440   -0.765900
    3          8             0        1.723620   -0.030380    0.770430
    4         15             0        1.326700   -1.579010    0.000700
    5         20             0       -2.205760   -0.598500    0.001050
    6          8             0       -1.524550    1.397190   -0.000650
    7         20             0        0.520550    1.931230   -0.000870
 ---------------------------------------------------------------------
                    Distance matrix (angstroms):
                    1          2          3          4          5
     1  O    0.000000
     2  O    2.671188   0.000000
     3  O    2.670616   1.536343   0.000000
     4  P    1.535666   1.775215   1.774341   0.000000
     5  Ca   2.289401   4.049843   4.044099   3.666016   0.000000
     6  O    3.375027   3.634849   3.630858   4.121577   2.108750
     7  Ca   3.711087   2.427334   2.426972   3.601620   3.719181
                    6          7
     6  O    0.000000
     7  Ca   2.113678   0.000000
 Stoichiometry    Ca2O4P(1+)
 Framework group  C1[X(Ca2O4P)]
 Deg. of freedom    15
 Full point group                 C1
 Largest Abelian subgroup         C1      NOp   1
 Largest concise Abelian subgroup C1      NOp   1
                         Standard orientation:                         
 ---------------------------------------------------------------------
 Center     Atomic     Atomic              Coordinates (Angstroms)
 Number     Number      Type              X           Y           Z
 ---------------------------------------------------------------------
    1          8             0       -0.203485   -1.708540   -0.005622
    2          8             0        1.729870   -0.029446   -0.765902
    3          8             0        1.723620   -0.030386    0.770428
    4         15             0        1.326696   -1.579015    0.000698
    5         20             0       -2.205761   -0.598495    0.001048
    6          8             0       -1.524546    1.397193   -0.000652
    7         20             0        0.520556    1.931227   -0.000872
 ---------------------------------------------------------------------
 Rotational constants (GHZ):      1.4981542      1.2268645      0.7102935
 Standard basis: 6-31+G(d,p) (6D, 7F)
 There are   153 symmetry adapted basis functions of A   symmetry.
 Integral buffers will be    131072 words long.
 Raffenetti 2 integral format.
 Two-electron integral symmetry is turned on.
   153 basis functions,   344 primitive gaussians,   153 cartesian basis functions
    43 alpha electrons       43 beta electrons
       nuclear repulsion energy       600.3138636046 Hartrees.
 NAtoms=    7 NActive=    7 NUniq=    7 SFac= 7.50D-01 NAtFMM=   80 NAOKFM=F Big=F
 One-electron integrals computed using PRISM.
 NBasis=   153 RedAO= T  NBF=   153
 NBsUse=   153 1.00D-06 NBFU=   153
 Harris functional with IExCor=  402 diagonalized for initial guess.
 ExpMin= 7.10D-03 ExpMax= 3.53D+04 ExpMxC= 5.30D+03 IAcc=3 IRadAn=         5 AccDes= 0.00D+00
 HarFok:  IExCor= 402 AccDes= 0.00D+00 IRadAn=         5 IDoV=1
 ScaDFX=  1.000000  1.000000  1.000000  1.000000
 Initial guess orbital symmetries:
       Occupied  (A) (A) (A) (A) (A) (A) (A) (A) (A) (A) (A) (A)
                 (A) (A) (A) (A) (A) (A) (A) (A) (A) (A) (A) (A)
                 (A) (A) (A) (A) (A) (A) (A) (A) (A) (A) (A) (A)
                 (A) (A) (A) (A) (A) (A) (A)
       Virtual   (A) (A) (A) (A) (A) (A) (A) (A) (A) (A) (A) (A)
                 (A) (A) (A) (A) (A) (A) (A) (A) (A) (A) (A) (A)
                 (A) (A) (A) (A) (A) (A) (A) (A) (A) (A) (A) (A)
                 (A) (A) (A) (A) (A) (A) (A) (A) (A) (A) (A) (A)
                 (A) (A) (A) (A) (A) (A) (A) (A) (A) (A) (A) (A)
                 (A) (A) (A) (A) (A) (A) (A) (A) (A) (A) (A) (A)
                 (A) (A) (A) (A) (A) (A) (A) (A) (A) (A) (A) (A)
                 (A) (A) (A) (A) (A) (A) (A) (A) (A) (A) (A) (A)
                 (A) (A) (A) (A) (A) (A) (A) (A) (A) (A) (A) (A)
                 (A) (A)
 The electronic state of the initial guess is 1-A.
 Requested convergence on RMS density matrix=1.00D-04 within 128 cycles.
 Requested convergence on MAX density matrix=1.00D-02.
 Requested convergence on             energy=1.00D-02.
 No special actions if energy rises.
 EnCoef did     4 forward-backward iterations
 SCF Done:  E(RB+HF-LYP) =  -1997.25492641     A.U. after    8 cycles
             Convg  =    0.6319D-04             -V/T =  2.0031
             S**2   =   0.0000

 **********************************************************************

            Population analysis using the SCF density.

 **********************************************************************

 Orbital symmetries:
       Occupied  (A) (A) (A) (A) (A) (A) (A) (A) (A) (A) (A) (A)
                 (A) (A) (A) (A) (A) (A) (A) (A) (A) (A) (A) (A)
                 (A) (A) (A) (A) (A) (A) (A) (A) (A) (A) (A) (A)
                 (A) (A) (A) (A) (A) (A) (A)
       Virtual   (A) (A) (A) (A) (A) (A) (A) (A) (A) (A) (A) (A)
                 (A) (A) (A) (A) (A) (A) (A) (A) (A) (A) (A) (A)
                 (A) (A) (A) (A) (A) (A) (A) (A) (A) (A) (A) (A)
                 (A) (A) (A) (A) (A) (A) (A) (A) (A) (A) (A) (A)
                 (A) (A) (A) (A) (A) (A) (A) (A) (A) (A) (A) (A)
                 (A) (A) (A) (A) (A) (A) (A) (A) (A) (A) (A) (A)
                 (A) (A) (A) (A) (A) (A) (A) (A) (A) (A) (A) (A)
                 (A) (A) (A) (A) (A) (A) (A) (A) (A) (A) (A) (A)
                 (A) (A) (A) (A) (A) (A) (A) (A) (A) (A) (A) (A)
                 (A) (A)
 The electronic state is 1-A.
 Alpha  occ. eigenvalues -- -145.52552-145.52293 -77.32946 -19.36150 -19.35996
 Alpha  occ. eigenvalues --  -19.28495 -19.15020 -15.59421 -15.59134 -12.72670
 Alpha  occ. eigenvalues --  -12.72595 -12.72504 -12.72367 -12.72337 -12.72217
 Alpha  occ. eigenvalues --   -6.78142  -4.94525  -4.94435  -4.93881  -1.96562
 Alpha  occ. eigenvalues --   -1.96246  -1.27101  -1.24347  -1.24145  -1.23924
 Alpha  occ. eigenvalues --   -1.23698  -1.23126  -1.22462  -1.12156  -1.00021
 Alpha  occ. eigenvalues --   -0.89424  -0.73036  -0.60914  -0.58900  -0.57892
 Alpha  occ. eigenvalues --   -0.53906  -0.48259  -0.46912  -0.42441  -0.42266
 Alpha  occ. eigenvalues --   -0.35633  -0.33598  -0.33506
 Alpha virt. eigenvalues --   -0.20897  -0.19543  -0.19408  -0.16452  -0.12532
 Alpha virt. eigenvalues --   -0.11228  -0.11078  -0.11010  -0.10013  -0.08471
 Alpha virt. eigenvalues --   -0.07621  -0.06637  -0.06225  -0.05388  -0.05361
 Alpha virt. eigenvalues --   -0.04570  -0.04455  -0.04298  -0.03606  -0.03487
 Alpha virt. eigenvalues --   -0.03310  -0.02347  -0.00521   0.00719   0.02023
 Alpha virt. eigenvalues --    0.02133   0.02725   0.03365   0.04301   0.04640
 Alpha virt. eigenvalues --    0.05033   0.05157   0.06161   0.06575   0.07375
 Alpha virt. eigenvalues --    0.07861   0.08034   0.08511   0.10174   0.12422
 Alpha virt. eigenvalues --    0.13506   0.14750   0.15932   0.16785   0.17777
 Alpha virt. eigenvalues --    0.19389   0.21221   0.22389   0.23050   0.23385
 Alpha virt. eigenvalues --    0.23616   0.27786   0.28228   0.29449   0.31524
 Alpha virt. eigenvalues --    0.33784   0.37341   0.37627   0.38832   0.43227
 Alpha virt. eigenvalues --    0.48291   0.56424   0.58609   0.61770   0.68326
 Alpha virt. eigenvalues --    0.68578   0.77723   0.82494   0.91511   1.00890
 Alpha virt. eigenvalues --    1.04789   1.05879   1.08588   1.10934   1.11922
 Alpha virt. eigenvalues --    1.13897   1.16726   1.18234   1.20693   1.23548
 Alpha virt. eigenvalues --    1.24712   1.38135   1.42424   1.45771   1.48629
 Alpha virt. eigenvalues --    1.50477   1.56603   1.66571   1.68772   1.70359
 Alpha virt. eigenvalues --    1.71361   1.74220   1.81931   1.82341   1.86253
 Alpha virt. eigenvalues --    1.86613   1.91387   1.93635   1.97693   2.01588
 Alpha virt. eigenvalues --    2.11950   2.23111   2.29876   2.64322   2.98559
 Alpha virt. eigenvalues --    3.42745   3.87015   3.94482   4.04500   4.05717
          Condensed to atoms (all electrons):
              1          2          3          4          5          6
     1  O    8.780726   0.002470   0.002315  -0.075650   0.060807  -0.006430
     2  O    0.002470   8.331211   0.040418  -0.012181   0.003535   0.007403
     3  O    0.002315   0.040418   8.336016  -0.012765   0.003521   0.007544
     4  P   -0.075650  -0.012181  -0.012765  14.289781  -0.018073  -0.009741
     5  Ca   0.060807   0.003535   0.003521  -0.018073  18.249746   0.228785
     6  O   -0.006430   0.007403   0.007544  -0.009741   0.228785   8.736851
     7  Ca  -0.010981   0.047562   0.047261  -0.009918  -0.005698   0.223633
              7
     1  O   -0.010981
     2  O    0.047562
     3  O    0.047261
     4  P   -0.009918
     5  Ca  -0.005698
     6  O    0.223633
     7  Ca  18.248032
 Mulliken atomic charges:
              1
     1  O   -0.753257
     2  O   -0.420419
     3  O   -0.424310
     4  P    0.848546
     5  Ca   1.477377
     6  O   -1.188045
     7  Ca   1.460108
 Sum of Mulliken charges=   1.00000
 Atomic charges with hydrogens summed into heavy atoms:
              1
     1  O   -0.753257
     2  O   -0.420419
     3  O   -0.424310
     4  P    0.848546
     5  Ca   1.477377
     6  O   -1.188045
     7  Ca   1.460108
 Sum of Mulliken charges=   1.00000
 Electronic spatial extent (au):  <R**2>=  1395.9474
 Charge=     1.0000 electrons
 Dipole moment (field-independent basis, Debye):
    X=    -3.9513    Y=     1.7006    Z=    -0.0038  Tot=     4.3017
 Quadrupole moment (field-independent basis, Debye-Ang):
   XX=   -36.6625   YY=   -39.2242   ZZ=   -56.5005
   XY=    26.7212   XZ=    -0.0719   YZ=    -0.0360
 Traceless Quadrupole moment (field-independent basis, Debye-Ang):
   XX=     7.4665   YY=     4.9049   ZZ=   -12.3714
   XY=    26.7212   XZ=    -0.0719   YZ=    -0.0360
 Octapole moment (field-independent basis, Debye-Ang**2):
  XXX=   -94.4329  YYY=    64.3348  ZZZ=    -0.0225  XYY=    33.9690
  XXY=   -42.5409  XXZ=    -0.0144  XZZ=    -6.6226  YZZ=     1.8053
  YYZ=     0.0167  XYZ=     0.0318
 Hexadecapole moment (field-independent basis, Debye-Ang**3):
 XXXX=  -644.7636 YYYY=  -576.4370 ZZZZ=   -96.6004 XXXY=   150.9242
 XXXZ=    -0.2201 YYYX=   119.1708 YYYZ=    -0.1300 ZZZX=    -0.1493
 ZZZY=    -0.0487 XXYY=  -247.3410 XXZZ=  -150.1891 YYZZ=  -122.2477
 XXYZ=     0.0193 YYXZ=    -0.1072 ZZXY=    20.7136
 N-N= 6.003138636046D+02 E-N=-5.919368756919D+03  KE= 1.991052742401D+03
 Merz-Kollman atomic radii used.
 Read replacement radii for each type of atom:
 Rad(20) =   1.188000000000D+00
 Atom Element Radius
    1     8    1.40
    2     8    1.40
    3     8    1.40
    4    15    1.80
    5    20    1.19
    6     8    1.40
    7    20    1.19

 **********************************************************************

            Electrostatic Properties Using The SCF Density

 **********************************************************************

       Atomic Center    1 is at  -0.203485 -1.708540 -0.005622
       Atomic Center    2 is at   1.729870 -0.029446 -0.765902
       Atomic Center    3 is at   1.723620 -0.030386  0.770428
       Atomic Center    4 is at   1.326696 -1.579015  0.000698
       Atomic Center    5 is at  -2.205761 -0.598495  0.001048
       Atomic Center    6 is at  -1.524546  1.397193 -0.000652
       Atomic Center    7 is at   0.520556  1.931227 -0.000872
     694 points will be used for fitting atomic charges
 Fitting point charges to eletrostatic potential
 Charges from ESP fit, RMS=   0.00558 RRMS=   0.03611:
 Charge=   1.00000 Dipole=    -3.9313     1.6392    -0.0005 Tot=     4.2594
              1
     1  O   -0.745173
     2  O   -0.383339
     3  O   -0.388943
     4  P    0.671615
     5  Ca   1.689158
     6  O   -1.523980
     7  Ca   1.680661
 -----------------------------------------------------------------

              Electrostatic Properties (Atomic Units)

 -----------------------------------------------------------------
    Center     Electric         -------- Electric Field --------
               Potential          X             Y             Z
 -----------------------------------------------------------------
    1 Atom    -22.177353
    2 Atom    -22.111267
    3 Atom    -22.115813
    4 Atom    -53.887981
    5 Atom    -80.015979
    6 Atom    -22.312883
    7 Atom    -80.018158
 -----------------------------------------------------------------
 1\1\GINC-N034\SP\RB3LYP\6-31+G(d,p)\Ca2O4P1(1+)\TIMN\12-Jun-2015\0\\# 
 b3lyp/6-31+G(d,p) int=ultrafine pop=(ReadRadii,MK)\\mol_16.4.40.pdbcc_
 plusQ.out.z51590.zip.xyz\\1,1\O,0,-0.20348,-1.70854,-0.00562\O,0,1.729
 87,-0.02944,-0.7659\O,0,1.72362,-0.03038,0.77043\P,0,1.3267,-1.57901,0
 .0007\Ca,0,-2.20576,-0.5985,0.00105\O,0,-1.52455,1.39719,-0.00065\Ca,0
 ,0.52055,1.93123,-0.00087\\Version=EM64T-G03RevE.01\State=1-A\HF=-1997
 .2549264\RMSD=6.319e-05\Thermal=0.\Dipole=-1.5545526,0.6690532,-0.0014
 805\PG=C01 [X(Ca2O4P1)]\\@


     SCHOPENHAUER'S LAW OF ENTROPY
 IF YOU PUT A SPOONFUL OF WINE IN A BARREL FULL
 OF SEWAGE, YOU GET SEWAGE.
 IF YOU PUT A SPOONFUL OF SEWAGE IN A BARREL FULL
 OF WINE, YOU GET SEWAGE.
 Job cpu time:  0 days  0 hours  0 minutes 57.5 seconds.
 File lengths (MBytes):  RWF=     28 Int=      0 D2E=      0 Chk=     10 Scr=      1
 Normal termination of Gaussian 03 at Fri Jun 12 17:48:18 2015.
