 Entering Gaussian System, Link 0=/home/timn/tmp/g03.e01/g03
 Input=mol_16.5.19.pdbcc_plusQ.out.z51624.zip.xyz.gjf
 Output=mol_16.5.19.pdbcc_plusQ.out.z51624.zip.xyz.out
 Initial command:
 /home/timn/tmp/g03.e01/l1.exe /home/timn/tmp/g03.e01/Gau-13597.inp -scrdir=/home/timn/tmp/g03.e01/
 Default is to use a total of   2 processors:
                                2 via shared-memory
                                1 via Linda
 Entering Link 1 = /home/timn/tmp/g03.e01/l1.exe PID=     13598.
  
 Copyright (c) 1988,1990,1992,1993,1995,1998,2003,2004,2007, Gaussian, Inc.
                  All Rights Reserved.
  
 This is the Gaussian(R) 03 program.  It is based on the
 the Gaussian(R) 98 system (copyright 1998, Gaussian, Inc.),
 the Gaussian(R) 94 system (copyright 1995, Gaussian, Inc.),
 the Gaussian 92(TM) system (copyright 1992, Gaussian, Inc.),
 the Gaussian 90(TM) system (copyright 1990, Gaussian, Inc.),
 the Gaussian 88(TM) system (copyright 1988, Gaussian, Inc.),
 the Gaussian 86(TM) system (copyright 1986, Carnegie Mellon
 University), and the Gaussian 82(TM) system (copyright 1983,
 Carnegie Mellon University). Gaussian is a federally registered
 trademark of Gaussian, Inc.
  
 This software contains proprietary and confidential information,
 including trade secrets, belonging to Gaussian, Inc.
  
 This software is provided under written license and may be
 used, copied, transmitted, or stored only in accord with that
 written license.
  
 The following legend is applicable only to US Government
 contracts under FAR:
  
                    RESTRICTED RIGHTS LEGEND
  
 Use, reproduction and disclosure by the US Government is
 subject to restrictions as set forth in subparagraphs (a)
 and (c) of the Commercial Computer Software - Restricted
 Rights clause in FAR 52.227-19.
  
 Gaussian, Inc.
 340 Quinnipiac St., Bldg. 40, Wallingford CT 06492
  
  
 ---------------------------------------------------------------
 Warning -- This program may not be used in any manner that
 competes with the business of Gaussian, Inc. or will provide
 assistance to any competitor of Gaussian, Inc.  The licensee
 of this program is prohibited from giving any competitor of
 Gaussian, Inc. access to this program.  By using this program,
 the user acknowledges that Gaussian, Inc. is engaged in the
 business of creating and licensing software in the field of
 computational chemistry and represents and warrants to the
 licensee that it is not a competitor of Gaussian, Inc. and that
 it will not use this program in any manner prohibited above.
 ---------------------------------------------------------------
  

 Cite this work as:
 Gaussian 03, Revision E.01,
 M. J. Frisch, G. W. Trucks, H. B. Schlegel, G. E. Scuseria, 
 M. A. Robb, J. R. Cheeseman, J. A. Montgomery, Jr., T. Vreven, 
 K. N. Kudin, J. C. Burant, J. M. Millam, S. S. Iyengar, J. Tomasi, 
 V. Barone, B. Mennucci, M. Cossi, G. Scalmani, N. Rega, 
 G. A. Petersson, H. Nakatsuji, M. Hada, M. Ehara, K. Toyota, 
 R. Fukuda, J. Hasegawa, M. Ishida, T. Nakajima, Y. Honda, O. Kitao, 
 H. Nakai, M. Klene, X. Li, J. E. Knox, H. P. Hratchian, J. B. Cross, 
 V. Bakken, C. Adamo, J. Jaramillo, R. Gomperts, R. E. Stratmann, 
 O. Yazyev, A. J. Austin, R. Cammi, C. Pomelli, J. W. Ochterski, 
 P. Y. Ayala, K. Morokuma, G. A. Voth, P. Salvador, J. J. Dannenberg, 
 V. G. Zakrzewski, S. Dapprich, A. D. Daniels, M. C. Strain, 
 O. Farkas, D. K. Malick, A. D. Rabuck, K. Raghavachari, 
 J. B. Foresman, J. V. Ortiz, Q. Cui, A. G. Baboul, S. Clifford, 
 J. Cioslowski, B. B. Stefanov, G. Liu, A. Liashenko, P. Piskorz, 
 I. Komaromi, R. L. Martin, D. J. Fox, T. Keith, M. A. Al-Laham, 
 C. Y. Peng, A. Nanayakkara, M. Challacombe, P. M. W. Gill, 
 B. Johnson, W. Chen, M. W. Wong, C. Gonzalez, and J. A. Pople, 
 Gaussian, Inc., Wallingford CT, 2004.
 
 ******************************************
 Gaussian 03:  EM64T-G03RevE.01 11-Sep-2007
                12-Jun-2015 
 ******************************************
 %nproc=2
 Will use up to    2 processors via shared memory.
 Default route:  MP2=Direct MaxDisk=2000MB
 ----------------------------------------------------
 # b3lyp/6-31+G(d,p) int=ultrafine pop=(ReadRadii,MK)
 ----------------------------------------------------

 Warning!  SCF SP cutoffs with diffuse functions may be unreliable.
 Consider SCF=Tight

 1/38=1/1;
 2/17=6,18=5,40=1/2;
 3/5=1,6=6,7=111,11=2,16=1,25=1,30=1,74=-5,75=5/1,2,3;
 4//1;
 5/5=2,32=1,38=5/2;
 6/7=2,8=2,9=2,10=2,15=8,20=101,28=1/1,2;
 99/5=1,9=1/99;
 ------------------------------------------
 mol_16.5.19.pdbcc_plusQ.out.z51624.zip.xyz
 ------------------------------------------
 Symbolic Z-matrix:
 Charge =  1 Multiplicity = 1
 O                    -3.045    -1.20282  -0.00035 
 P                    -3.88573   0.09743  -0.00133 
 O                    -2.88074   1.27398   0.00012 
 Ca                   -0.96032  -0.10402   0.00247 
 O                     1.26991  -0.09997  -0.00064 
 Ca                    3.45236   0.00211  -0.00218 
 O                     5.71148   0.10089   0.00265 
 
                          Input orientation:                          
 ---------------------------------------------------------------------
 Center     Atomic     Atomic              Coordinates (Angstroms)
 Number     Number      Type              X           Y           Z
 ---------------------------------------------------------------------
    1          8             0       -3.045000   -1.202820   -0.000350
    2         15             0       -3.885730    0.097430   -0.001330
    3          8             0       -2.880740    1.273980    0.000120
    4         20             0       -0.960320   -0.104020    0.002470
    5          8             0        1.269910   -0.099970   -0.000640
    6         20             0        3.452360    0.002110   -0.002180
    7          8             0        5.711480    0.100890    0.002650
 ---------------------------------------------------------------------
                    Distance matrix (angstroms):
                    1          2          3          4          5
     1  O    0.000000
     2  P    1.548379   0.000000
     3  O    2.482241   1.547345   0.000000
     4  Ca   2.356536   2.932340   2.363663   0.000000
     5  O    4.453619   5.159418   4.372143   2.230236   0.000000
     6  Ca   6.608142   7.338709   6.459552   4.413959   2.184837
     7  O    8.853000   9.597211   8.671931   6.674946   4.446111
                    6          7
     6  Ca   0.000000
     7  O    2.261284   0.000000
 Stoichiometry    Ca2O4P(1+)
 Framework group  C1[X(Ca2O4P)]
 Deg. of freedom    15
 Full point group                 C1
 Largest Abelian subgroup         C1      NOp   1
 Largest concise Abelian subgroup C1      NOp   1
                         Standard orientation:                         
 ---------------------------------------------------------------------
 Center     Atomic     Atomic              Coordinates (Angstroms)
 Number     Number      Type              X           Y           Z
 ---------------------------------------------------------------------
    1          8             0       -3.045000   -1.202820   -0.000351
    2         15             0       -3.885731    0.097430   -0.001331
    3          8             0       -2.880741    1.273980    0.000119
    4         20             0       -0.960321   -0.104019    0.002469
    5          8             0        1.269909   -0.099968   -0.000641
    6         20             0        3.452359    0.002113   -0.002181
    7          8             0        5.711479    0.100894    0.002649
 ---------------------------------------------------------------------
 Rotational constants (GHZ):     10.0771585      0.2793152      0.2717822
 Standard basis: 6-31+G(d,p) (6D, 7F)
 There are   153 symmetry adapted basis functions of A   symmetry.
 Integral buffers will be    131072 words long.
 Raffenetti 2 integral format.
 Two-electron integral symmetry is turned on.
   153 basis functions,   344 primitive gaussians,   153 cartesian basis functions
    43 alpha electrons       43 beta electrons
       nuclear repulsion energy       493.5572319932 Hartrees.
 NAtoms=    7 NActive=    7 NUniq=    7 SFac= 7.50D-01 NAtFMM=   80 NAOKFM=F Big=F
 One-electron integrals computed using PRISM.
 NBasis=   153 RedAO= T  NBF=   153
 NBsUse=   153 1.00D-06 NBFU=   153
 Harris functional with IExCor=  402 diagonalized for initial guess.
 ExpMin= 7.10D-03 ExpMax= 3.53D+04 ExpMxC= 5.30D+03 IAcc=3 IRadAn=         5 AccDes= 0.00D+00
 HarFok:  IExCor= 402 AccDes= 0.00D+00 IRadAn=         5 IDoV=1
 ScaDFX=  1.000000  1.000000  1.000000  1.000000
 Initial guess orbital symmetries:
       Occupied  (A) (A) (A) (A) (A) (A) (A) (A) (A) (A) (A) (A)
                 (A) (A) (A) (A) (A) (A) (A) (A) (A) (A) (A) (A)
                 (A) (A) (A) (A) (A) (A) (A) (A) (A) (A) (A) (A)
                 (A) (A) (A) (A) (A) (A) (A)
       Virtual   (A) (A) (A) (A) (A) (A) (A) (A) (A) (A) (A) (A)
                 (A) (A) (A) (A) (A) (A) (A) (A) (A) (A) (A) (A)
                 (A) (A) (A) (A) (A) (A) (A) (A) (A) (A) (A) (A)
                 (A) (A) (A) (A) (A) (A) (A) (A) (A) (A) (A) (A)
                 (A) (A) (A) (A) (A) (A) (A) (A) (A) (A) (A) (A)
                 (A) (A) (A) (A) (A) (A) (A) (A) (A) (A) (A) (A)
                 (A) (A) (A) (A) (A) (A) (A) (A) (A) (A) (A) (A)
                 (A) (A) (A) (A) (A) (A) (A) (A) (A) (A) (A) (A)
                 (A) (A) (A) (A) (A) (A) (A) (A) (A) (A) (A) (A)
                 (A) (A)
 The electronic state of the initial guess is 1-A.
 Requested convergence on RMS density matrix=1.00D-04 within 128 cycles.
 Requested convergence on MAX density matrix=1.00D-02.
 Requested convergence on             energy=1.00D-02.
 No special actions if energy rises.
 EnCoef did     7 forward-backward iterations
 EnCoef did   100 forward-backward iterations
 EnCoef did   100 forward-backward iterations
 EnCoef did   100 forward-backward iterations
 EnCoef did     7 forward-backward iterations
 EnCoef did    10 forward-backward iterations
 EnCoef did     8 forward-backward iterations
 EnCoef did   100 forward-backward iterations
 EnCoef did   100 forward-backward iterations
 EnCoef did   100 forward-backward iterations
 EnCoef did   100 forward-backward iterations
 EnCoef did   100 forward-backward iterations
 EnCoef did   100 forward-backward iterations
 EnCoef did    12 forward-backward iterations
 EnCoef did   100 forward-backward iterations
 EnCoef did     3 forward-backward iterations
 Rare condition: small coef for last iteration:  0.333D-15
 Restarting incremental Fock formation.
 EnCoef did   100 forward-backward iterations
 Matrix for removal  4 Erem= -1986.84200878110     Crem= 0.000D+00
 EnCoef did   100 forward-backward iterations
 Matrix for removal  4 Erem= -1989.56831109006     Crem= 0.000D+00
 Matrix for removal  3 Erem= -1992.36985402640     Crem= 0.000D+00
 Matrix for removal  2 Erem= -1995.04932608984     Crem= 0.000D+00
 Matrix for removal  1 Erem= -1995.35072509661     Crem= 0.000D+00
 Matrix for removal  4 Erem= -1995.64782134015     Crem= 0.000D+00
 SCF Done:  E(RB+HF-LYP) =  -1997.15363484     A.U. after   25 cycles
             Convg  =    0.8502D-04             -V/T =  2.0031
             S**2   =   0.0000

 **********************************************************************

            Population analysis using the SCF density.

 **********************************************************************

 Orbital symmetries:
       Occupied  (A) (A) (A) (A) (A) (A) (A) (A) (A) (A) (A) (A)
                 (A) (A) (A) (A) (A) (A) (A) (A) (A) (A) (A) (A)
                 (A) (A) (A) (A) (A) (A) (A) (A) (A) (A) (A) (A)
                 (A) (A) (A) (A) (A) (A) (A)
       Virtual   (A) (A) (A) (A) (A) (A) (A) (A) (A) (A) (A) (A)
                 (A) (A) (A) (A) (A) (A) (A) (A) (A) (A) (A) (A)
                 (A) (A) (A) (A) (A) (A) (A) (A) (A) (A) (A) (A)
                 (A) (A) (A) (A) (A) (A) (A) (A) (A) (A) (A) (A)
                 (A) (A) (A) (A) (A) (A) (A) (A) (A) (A) (A) (A)
                 (A) (A) (A) (A) (A) (A) (A) (A) (A) (A) (A) (A)
                 (A) (A) (A) (A) (A) (A) (A) (A) (A) (A) (A) (A)
                 (A) (A) (A) (A) (A) (A) (A) (A) (A) (A) (A) (A)
                 (A) (A) (A) (A) (A) (A) (A) (A) (A) (A) (A) (A)
                 (A) (A)
 The electronic state is 1-A.
 Alpha  occ. eigenvalues -- -145.56126-145.52992 -77.30249 -19.34126 -19.28138
 Alpha  occ. eigenvalues --  -19.27968 -19.26919 -15.63032 -15.59891 -12.76320
 Alpha  occ. eigenvalues --  -12.76289 -12.76015 -12.73167 -12.73106 -12.72923
 Alpha  occ. eigenvalues --   -6.75963  -4.92392  -4.92135  -4.91793  -2.00160
 Alpha  occ. eigenvalues --   -1.97112  -1.28140  -1.27985  -1.27024  -1.25096
 Alpha  occ. eigenvalues --   -1.24748  -1.24635  -1.14302  -1.08357  -1.02869
 Alpha  occ. eigenvalues --   -0.99628  -0.66417  -0.55276  -0.53473  -0.52865
 Alpha  occ. eigenvalues --   -0.46996  -0.44905  -0.44717  -0.44693  -0.43464
 Alpha  occ. eigenvalues --   -0.42907  -0.42023  -0.40794
 Alpha virt. eigenvalues --   -0.39264  -0.22018  -0.19879  -0.17880  -0.13812
 Alpha virt. eigenvalues --   -0.13762  -0.11643  -0.10902  -0.09550  -0.07422
 Alpha virt. eigenvalues --   -0.07315  -0.06676  -0.05701  -0.05531  -0.05384
 Alpha virt. eigenvalues --   -0.04737  -0.04316  -0.03883  -0.03682  -0.02411
 Alpha virt. eigenvalues --   -0.01557  -0.00351   0.00768   0.01303   0.01460
 Alpha virt. eigenvalues --    0.02386   0.02388   0.02519   0.02574   0.03042
 Alpha virt. eigenvalues --    0.03091   0.03352   0.03920   0.04495   0.05017
 Alpha virt. eigenvalues --    0.05272   0.07357   0.08937   0.09873   0.11345
 Alpha virt. eigenvalues --    0.11931   0.12127   0.12420   0.12875   0.14559
 Alpha virt. eigenvalues --    0.15362   0.18184   0.19022   0.19934   0.20937
 Alpha virt. eigenvalues --    0.22355   0.25316   0.27603   0.30532   0.32305
 Alpha virt. eigenvalues --    0.33749   0.34262   0.35689   0.36817   0.40415
 Alpha virt. eigenvalues --    0.46153   0.50973   0.54631   0.55351   0.62457
 Alpha virt. eigenvalues --    0.78392   0.86625   0.93085   1.01333   1.02745
 Alpha virt. eigenvalues --    1.04478   1.05604   1.05613   1.06537   1.10203
 Alpha virt. eigenvalues --    1.11683   1.16031   1.17741   1.18989   1.22933
 Alpha virt. eigenvalues --    1.30568   1.35937   1.42640   1.50359   1.64767
 Alpha virt. eigenvalues --    1.65034   1.66008   1.66032   1.66739   1.67789
 Alpha virt. eigenvalues --    1.67871   1.69779   1.70850   1.72810   1.75751
 Alpha virt. eigenvalues --    1.79026   1.83013   1.85161   1.88557   1.90410
 Alpha virt. eigenvalues --    1.95888   2.09067   2.12813   2.57161   2.68528
 Alpha virt. eigenvalues --    3.37533   3.76982   3.86184   3.87647   3.96247
          Condensed to atoms (all electrons):
              1          2          3          4          5          6
     1  O    8.569106   0.056628  -0.091204   0.065248   0.000016   0.002785
     2  P    0.056628  14.343165   0.079883  -0.051723   0.005676  -0.009677
     3  O   -0.091204   0.079883   8.567025   0.060061   0.000854   0.003006
     4  Ca   0.065248  -0.051723   0.060061  18.271318   0.141781  -0.021883
     5  O    0.000016   0.005676   0.000854   0.141781   8.637773   0.160107
     6  Ca   0.002785  -0.009677   0.003006  -0.021883   0.160107  18.256142
     7  O    0.000000  -0.000004   0.000000   0.003125  -0.000968   0.166056
              7
     1  O    0.000000
     2  P   -0.000004
     3  O    0.000000
     4  Ca   0.003125
     5  O   -0.000968
     6  Ca   0.166056
     7  O    8.215938
 Mulliken atomic charges:
              1
     1  O   -0.602579
     2  P    0.576051
     3  O   -0.619624
     4  Ca   1.532074
     5  O   -0.945238
     6  Ca   1.443464
     7  O   -0.384148
 Sum of Mulliken charges=   1.00000
 Atomic charges with hydrogens summed into heavy atoms:
              1
     1  O   -0.602579
     2  P    0.576051
     3  O   -0.619624
     4  Ca   1.532074
     5  O   -0.945238
     6  Ca   1.443464
     7  O   -0.384148
 Sum of Mulliken charges=   1.00000
 Electronic spatial extent (au):  <R**2>=  3417.8494
 Charge=     1.0000 electrons
 Dipole moment (field-independent basis, Debye):
    X=     5.5471    Y=    -0.5059    Z=    -0.0044  Tot=     5.5701
 Quadrupole moment (field-independent basis, Debye-Ang):
   XX=   -47.2853   YY=   -62.7928   ZZ=   -54.5656
   XY=    -1.1248   XZ=    -0.0984   YZ=    -0.0112
 Traceless Quadrupole moment (field-independent basis, Debye-Ang):
   XX=     7.5959   YY=    -7.9116   ZZ=     0.3156
   XY=    -1.1248   XZ=    -0.0984   YZ=    -0.0112
 Octapole moment (field-independent basis, Debye-Ang**2):
  XXX=   -94.6191  YYY=    -2.3066  ZZZ=    -0.0025  XYY=    47.3632
  XXY=    -4.2152  XXZ=    -0.3966  XZZ=     5.6952  YZZ=    -0.5232
  YYZ=     0.0017  XYZ=    -0.0250
 Hexadecapole moment (field-independent basis, Debye-Ang**3):
 XXXX= -4908.9977 YYYY=  -187.4894 ZZZZ=   -56.2572 XXXY=   -74.2343
 XXXZ=    -1.7724 YYYX=     4.5236 YYYZ=    -0.0153 ZZZX=    -0.2368
 ZZZY=    -0.0142 XXYY=  -681.1868 XXZZ=  -628.8020 YYZZ=   -38.6349
 XXYZ=    -0.2048 YYXZ=    -0.0589 ZZXY=     0.0203
 N-N= 4.935572319932D+02 E-N=-5.705230936369D+03  KE= 1.990991659954D+03
 Merz-Kollman atomic radii used.
 Read replacement radii for each type of atom:
 Rad(20) =   1.188000000000D+00
 Atom Element Radius
    1     8    1.40
    2    15    1.80
    3     8    1.40
    4    20    1.19
    5     8    1.40
    6    20    1.19
    7     8    1.40

 **********************************************************************

            Electrostatic Properties Using The SCF Density

 **********************************************************************

       Atomic Center    1 is at  -3.045000 -1.202820 -0.000351
       Atomic Center    2 is at  -3.885731  0.097430 -0.001331
       Atomic Center    3 is at  -2.880741  1.273980  0.000119
       Atomic Center    4 is at  -0.960321 -0.104019  0.002469
       Atomic Center    5 is at   1.269909 -0.099968 -0.000641
       Atomic Center    6 is at   3.452359  0.002113 -0.002181
       Atomic Center    7 is at   5.711479  0.100894  0.002649
     904 points will be used for fitting atomic charges
 Fitting point charges to eletrostatic potential
 Charges from ESP fit, RMS=   0.00484 RRMS=   0.03224:
 Charge=   1.00000 Dipole=     5.3744    -0.4597    -0.0040 Tot=     5.3940
              1
     1  O   -0.668291
     2  P    0.658125
     3  O   -0.673962
     4  Ca   1.732829
     5  O   -1.250587
     6  Ca   1.731906
     7  O   -0.530020
 -----------------------------------------------------------------

              Electrostatic Properties (Atomic Units)

 -----------------------------------------------------------------
    Center     Electric         -------- Electric Field --------
               Potential          X             Y             Z
 -----------------------------------------------------------------
    1 Atom    -22.182772
    2 Atom    -53.912343
    3 Atom    -22.184678
    4 Atom    -80.009873
    5 Atom    -22.195594
    6 Atom    -79.980489
    7 Atom    -22.139963
 -----------------------------------------------------------------
 1\1\GINC-N059\SP\RB3LYP\6-31+G(d,p)\Ca2O4P1(1+)\TIMN\12-Jun-2015\0\\# 
 b3lyp/6-31+G(d,p) int=ultrafine pop=(ReadRadii,MK)\\mol_16.5.19.pdbcc_
 plusQ.out.z51624.zip.xyz\\1,1\O,0,-3.045,-1.20282,-0.00035\P,0,-3.8857
 3,0.09743,-0.00133\O,0,-2.88074,1.27398,0.00012\Ca,0,-0.96032,-0.10402
 ,0.00247\O,0,1.26991,-0.09997,-0.00064\Ca,0,3.45236,0.00211,-0.00218\O
 ,0,5.71148,0.10089,0.00265\\Version=EM64T-G03RevE.01\State=1-A\HF=-199
 7.1536348\RMSD=8.502e-05\Thermal=0.\Dipole=2.1823821,-0.1990355,-0.001
 7382\PG=C01 [X(Ca2O4P1)]\\@


 I SUPPOSE A BABY LLAMA HAS A MMAMA AND A PPOPA.
     -- RICHARD AMOUR
 Job cpu time:  0 days  0 hours  2 minutes 18.0 seconds.
 File lengths (MBytes):  RWF=     28 Int=      0 D2E=      0 Chk=     10 Scr=      1
 Normal termination of Gaussian 03 at Fri Jun 12 17:50:37 2015.
