 Entering Gaussian System, Link 0=/home/timn/tmp/g03.e01/g03
 Input=mol_17.26.42.pdbc_plusQ.z58453.zip.xyz.gjf
 Output=mol_17.26.42.pdbc_plusQ.z58453.zip.xyz.out
 Initial command:
 /home/timn/tmp/g03.e01/l1.exe /home/timn/tmp/g03.e01/Gau-13266.inp -scrdir=/home/timn/tmp/g03.e01/
 Default is to use a total of   2 processors:
                                2 via shared-memory
                                1 via Linda
 Entering Link 1 = /home/timn/tmp/g03.e01/l1.exe PID=     13267.
  
 Copyright (c) 1988,1990,1992,1993,1995,1998,2003,2004,2007, Gaussian, Inc.
                  All Rights Reserved.
  
 This is the Gaussian(R) 03 program.  It is based on the
 the Gaussian(R) 98 system (copyright 1998, Gaussian, Inc.),
 the Gaussian(R) 94 system (copyright 1995, Gaussian, Inc.),
 the Gaussian 92(TM) system (copyright 1992, Gaussian, Inc.),
 the Gaussian 90(TM) system (copyright 1990, Gaussian, Inc.),
 the Gaussian 88(TM) system (copyright 1988, Gaussian, Inc.),
 the Gaussian 86(TM) system (copyright 1986, Carnegie Mellon
 University), and the Gaussian 82(TM) system (copyright 1983,
 Carnegie Mellon University). Gaussian is a federally registered
 trademark of Gaussian, Inc.
  
 This software contains proprietary and confidential information,
 including trade secrets, belonging to Gaussian, Inc.
  
 This software is provided under written license and may be
 used, copied, transmitted, or stored only in accord with that
 written license.
  
 The following legend is applicable only to US Government
 contracts under FAR:
  
                    RESTRICTED RIGHTS LEGEND
  
 Use, reproduction and disclosure by the US Government is
 subject to restrictions as set forth in subparagraphs (a)
 and (c) of the Commercial Computer Software - Restricted
 Rights clause in FAR 52.227-19.
  
 Gaussian, Inc.
 340 Quinnipiac St., Bldg. 40, Wallingford CT 06492
  
  
 ---------------------------------------------------------------
 Warning -- This program may not be used in any manner that
 competes with the business of Gaussian, Inc. or will provide
 assistance to any competitor of Gaussian, Inc.  The licensee
 of this program is prohibited from giving any competitor of
 Gaussian, Inc. access to this program.  By using this program,
 the user acknowledges that Gaussian, Inc. is engaged in the
 business of creating and licensing software in the field of
 computational chemistry and represents and warrants to the
 licensee that it is not a competitor of Gaussian, Inc. and that
 it will not use this program in any manner prohibited above.
 ---------------------------------------------------------------
  

 Cite this work as:
 Gaussian 03, Revision E.01,
 M. J. Frisch, G. W. Trucks, H. B. Schlegel, G. E. Scuseria, 
 M. A. Robb, J. R. Cheeseman, J. A. Montgomery, Jr., T. Vreven, 
 K. N. Kudin, J. C. Burant, J. M. Millam, S. S. Iyengar, J. Tomasi, 
 V. Barone, B. Mennucci, M. Cossi, G. Scalmani, N. Rega, 
 G. A. Petersson, H. Nakatsuji, M. Hada, M. Ehara, K. Toyota, 
 R. Fukuda, J. Hasegawa, M. Ishida, T. Nakajima, Y. Honda, O. Kitao, 
 H. Nakai, M. Klene, X. Li, J. E. Knox, H. P. Hratchian, J. B. Cross, 
 V. Bakken, C. Adamo, J. Jaramillo, R. Gomperts, R. E. Stratmann, 
 O. Yazyev, A. J. Austin, R. Cammi, C. Pomelli, J. W. Ochterski, 
 P. Y. Ayala, K. Morokuma, G. A. Voth, P. Salvador, J. J. Dannenberg, 
 V. G. Zakrzewski, S. Dapprich, A. D. Daniels, M. C. Strain, 
 O. Farkas, D. K. Malick, A. D. Rabuck, K. Raghavachari, 
 J. B. Foresman, J. V. Ortiz, Q. Cui, A. G. Baboul, S. Clifford, 
 J. Cioslowski, B. B. Stefanov, G. Liu, A. Liashenko, P. Piskorz, 
 I. Komaromi, R. L. Martin, D. J. Fox, T. Keith, M. A. Al-Laham, 
 C. Y. Peng, A. Nanayakkara, M. Challacombe, P. M. W. Gill, 
 B. Johnson, W. Chen, M. W. Wong, C. Gonzalez, and J. A. Pople, 
 Gaussian, Inc., Wallingford CT, 2004.
 
 ******************************************
 Gaussian 03:  EM64T-G03RevE.01 11-Sep-2007
                12-Jun-2015 
 ******************************************
 %nproc=2
 Will use up to    2 processors via shared memory.
 Default route:  MP2=Direct MaxDisk=2000MB
 ----------------------------------------------------
 # b3lyp/6-31+G(d,p) int=ultrafine pop=(ReadRadii,MK)
 ----------------------------------------------------

 Warning!  SCF SP cutoffs with diffuse functions may be unreliable.
 Consider SCF=Tight

 1/38=1/1;
 2/17=6,18=5,40=1/2;
 3/5=1,6=6,7=111,11=2,16=1,25=1,30=1,74=-5,75=5/1,2,3;
 4//1;
 5/5=2,32=1,38=5/2;
 6/7=2,8=2,9=2,10=2,15=8,20=101,28=1/1,2;
 99/5=1,9=1/99;
 --------------------------------------
 mol_17.26.42.pdbc_plusQ.z58453.zip.xyz
 --------------------------------------
 Symbolic Z-matrix:
 Charge =  1 Multiplicity = 1
 O                     2.05517  -0.64961   0.1982 
 O                     1.71919   0.80716   0.38932 
 O                     0.52329   2.87623  -0.79753 
 P                     0.25844   1.43856  -0.49174 
 O                    -0.80235   1.18934   0.76174 
 Ca                    0.39116  -0.58683   1.77572 
 Ca                    0.73645  -1.4384   -1.45989 
 O                    -0.86363  -1.64713   0.09669 
 Ca                   -2.37411  -0.08409  -0.2064 
 
                          Input orientation:                          
 ---------------------------------------------------------------------
 Center     Atomic     Atomic              Coordinates (Angstroms)
 Number     Number      Type              X           Y           Z
 ---------------------------------------------------------------------
    1          8             0        2.055170   -0.649610    0.198200
    2          8             0        1.719190    0.807160    0.389320
    3          8             0        0.523290    2.876230   -0.797530
    4         15             0        0.258440    1.438560   -0.491740
    5          8             0       -0.802350    1.189340    0.761740
    6         20             0        0.391160   -0.586830    1.775720
    7         20             0        0.736450   -1.438400   -1.459890
    8          8             0       -0.863630   -1.647130    0.096690
    9         20             0       -2.374110   -0.084090   -0.206400
 ---------------------------------------------------------------------
                    Distance matrix (angstroms):
                    1          2          3          4          5
     1  O    0.000000
     2  O    1.507179   0.000000
     3  O    3.971106   2.668303   0.000000
     4  P    2.839843   1.818990   1.493502   0.000000
     5  O    3.444522   2.577387   2.652215   1.660903   0.000000
     6  Ca   2.293783   2.372546   4.316464   3.043221   2.367995
     7  Ca   2.260636   3.070488   4.370376   3.072899   3.769425
     8  O    3.086218   3.574931   4.814973   3.335682   2.914037
     9  Ca   4.483529   4.231349   4.184239   3.054538   2.242621
                    6          7          8          9
     6  Ca   0.000000
     7  Ca   3.363565   0.000000
     8  O    2.349016   2.242045   0.000000
     9  Ca   3.439225   3.616763   2.194654   0.000000
 Stoichiometry    Ca3O5P(1+)
 Framework group  C1[X(Ca3O5P)]
 Deg. of freedom    21
 Full point group                 C1
 Largest Abelian subgroup         C1      NOp   1
 Largest concise Abelian subgroup C1      NOp   1
                         Standard orientation:                         
 ---------------------------------------------------------------------
 Center     Atomic     Atomic              Coordinates (Angstroms)
 Number     Number      Type              X           Y           Z
 ---------------------------------------------------------------------
    1          8             0        2.055170   -0.649611    0.198201
    2          8             0        1.719191    0.807159    0.389321
    3          8             0        0.523292    2.876230   -0.797529
    4         15             0        0.258441    1.438561   -0.491739
    5          8             0       -0.802349    1.189341    0.761741
    6         20             0        0.391160   -0.586830    1.775721
    7         20             0        0.736449   -1.438400   -1.459889
    8          8             0       -0.863631   -1.647129    0.096691
    9         20             0       -2.374110   -0.084088   -0.206399
 ---------------------------------------------------------------------
 Rotational constants (GHZ):      0.8159840      0.7901804      0.6538958
 Standard basis: 6-31+G(d,p) (6D, 7F)
 There are   199 symmetry adapted basis functions of A   symmetry.
 Integral buffers will be    131072 words long.
 Raffenetti 2 integral format.
 Two-electron integral symmetry is turned on.
   199 basis functions,   456 primitive gaussians,   199 cartesian basis functions
    57 alpha electrons       57 beta electrons
       nuclear repulsion energy      1058.5024028874 Hartrees.
 NAtoms=    9 NActive=    9 NUniq=    9 SFac= 7.50D-01 NAtFMM=   80 NAOKFM=F Big=F
 One-electron integrals computed using PRISM.
 NBasis=   199 RedAO= T  NBF=   199
 NBsUse=   199 1.00D-06 NBFU=   199
 Harris functional with IExCor=  402 diagonalized for initial guess.
 ExpMin= 7.10D-03 ExpMax= 3.53D+04 ExpMxC= 5.30D+03 IAcc=3 IRadAn=         5 AccDes= 0.00D+00
 HarFok:  IExCor= 402 AccDes= 0.00D+00 IRadAn=         5 IDoV=1
 ScaDFX=  1.000000  1.000000  1.000000  1.000000
 Initial guess orbital symmetries:
       Occupied  (A) (A) (A) (A) (A) (A) (A) (A) (A) (A) (A) (A)
                 (A) (A) (A) (A) (A) (A) (A) (A) (A) (A) (A) (A)
                 (A) (A) (A) (A) (A) (A) (A) (A) (A) (A) (A) (A)
                 (A) (A) (A) (A) (A) (A) (A) (A) (A) (A) (A) (A)
                 (A) (A) (A) (A) (A) (A) (A) (A) (A)
       Virtual   (A) (A) (A) (A) (A) (A) (A) (A) (A) (A) (A) (A)
                 (A) (A) (A) (A) (A) (A) (A) (A) (A) (A) (A) (A)
                 (A) (A) (A) (A) (A) (A) (A) (A) (A) (A) (A) (A)
                 (A) (A) (A) (A) (A) (A) (A) (A) (A) (A) (A) (A)
                 (A) (A) (A) (A) (A) (A) (A) (A) (A) (A) (A) (A)
                 (A) (A) (A) (A) (A) (A) (A) (A) (A) (A) (A) (A)
                 (A) (A) (A) (A) (A) (A) (A) (A) (A) (A) (A) (A)
                 (A) (A) (A) (A) (A) (A) (A) (A) (A) (A) (A) (A)
                 (A) (A) (A) (A) (A) (A) (A) (A) (A) (A) (A) (A)
                 (A) (A) (A) (A) (A) (A) (A) (A) (A) (A) (A) (A)
                 (A) (A) (A) (A) (A) (A) (A) (A) (A) (A) (A) (A)
                 (A) (A) (A) (A) (A) (A) (A) (A) (A) (A)
 The electronic state of the initial guess is 1-A.
 Requested convergence on RMS density matrix=1.00D-04 within 128 cycles.
 Requested convergence on MAX density matrix=1.00D-02.
 Requested convergence on             energy=1.00D-02.
 No special actions if energy rises.
 SCF Done:  E(RB+HF-LYP) =  -2750.13124359     A.U. after    8 cycles
             Convg  =    0.8733D-04             -V/T =  2.0029
             S**2   =   0.0000

 **********************************************************************

            Population analysis using the SCF density.

 **********************************************************************

 Orbital symmetries:
       Occupied  (A) (A) (A) (A) (A) (A) (A) (A) (A) (A) (A) (A)
                 (A) (A) (A) (A) (A) (A) (A) (A) (A) (A) (A) (A)
                 (A) (A) (A) (A) (A) (A) (A) (A) (A) (A) (A) (A)
                 (A) (A) (A) (A) (A) (A) (A) (A) (A) (A) (A) (A)
                 (A) (A) (A) (A) (A) (A) (A) (A) (A)
       Virtual   (A) (A) (A) (A) (A) (A) (A) (A) (A) (A) (A) (A)
                 (A) (A) (A) (A) (A) (A) (A) (A) (A) (A) (A) (A)
                 (A) (A) (A) (A) (A) (A) (A) (A) (A) (A) (A) (A)
                 (A) (A) (A) (A) (A) (A) (A) (A) (A) (A) (A) (A)
                 (A) (A) (A) (A) (A) (A) (A) (A) (A) (A) (A) (A)
                 (A) (A) (A) (A) (A) (A) (A) (A) (A) (A) (A) (A)
                 (A) (A) (A) (A) (A) (A) (A) (A) (A) (A) (A) (A)
                 (A) (A) (A) (A) (A) (A) (A) (A) (A) (A) (A) (A)
                 (A) (A) (A) (A) (A) (A) (A) (A) (A) (A) (A) (A)
                 (A) (A) (A) (A) (A) (A) (A) (A) (A) (A) (A) (A)
                 (A) (A) (A) (A) (A) (A) (A) (A) (A) (A) (A) (A)
                 (A) (A) (A) (A) (A) (A) (A) (A) (A) (A)
 The electronic state is 1-A.
 Alpha  occ. eigenvalues -- -145.53974-145.52119-145.50430 -77.26139 -19.29130
 Alpha  occ. eigenvalues --  -19.26118 -19.23173 -19.19185 -19.18486 -15.60811
 Alpha  occ. eigenvalues --  -15.58966 -15.57226 -12.74063 -12.73958 -12.73920
 Alpha  occ. eigenvalues --  -12.72187 -12.72137 -12.72085 -12.70440 -12.70393
 Alpha  occ. eigenvalues --  -12.70377  -6.71384  -4.87850  -4.87668  -4.87294
 Alpha  occ. eigenvalues --   -1.97988  -1.96162  -1.94433  -1.25816  -1.25515
 Alpha  occ. eigenvalues --   -1.25009  -1.24119  -1.23774  -1.23231  -1.22631
 Alpha  occ. eigenvalues --   -1.21915  -1.21570  -1.13607  -1.06616  -1.02042
 Alpha  occ. eigenvalues --   -0.93396  -0.92327  -0.63863  -0.54899  -0.51911
 Alpha  occ. eigenvalues --   -0.50363  -0.47093  -0.46373  -0.44052  -0.39666
 Alpha  occ. eigenvalues --   -0.39302  -0.39071  -0.38525  -0.36541  -0.36194
 Alpha  occ. eigenvalues --   -0.34826  -0.31879
 Alpha virt. eigenvalues --   -0.22375  -0.20237  -0.18476  -0.15258  -0.13626
 Alpha virt. eigenvalues --   -0.12677  -0.11875  -0.11289  -0.09461  -0.09189
 Alpha virt. eigenvalues --   -0.08253  -0.07500  -0.06916  -0.06545  -0.06077
 Alpha virt. eigenvalues --   -0.05264  -0.05002  -0.04835  -0.04666  -0.04168
 Alpha virt. eigenvalues --   -0.03983  -0.03841  -0.03478  -0.03303  -0.03150
 Alpha virt. eigenvalues --   -0.02654  -0.02324  -0.00917  -0.00306   0.01387
 Alpha virt. eigenvalues --    0.01546   0.01857   0.02474   0.02760   0.03652
 Alpha virt. eigenvalues --    0.04249   0.04385   0.04725   0.05328   0.05828
 Alpha virt. eigenvalues --    0.06326   0.06755   0.07033   0.07229   0.07855
 Alpha virt. eigenvalues --    0.08691   0.09390   0.09971   0.10297   0.11353
 Alpha virt. eigenvalues --    0.13246   0.13925   0.14869   0.16062   0.16708
 Alpha virt. eigenvalues --    0.18638   0.18832   0.20941   0.21765   0.22559
 Alpha virt. eigenvalues --    0.23348   0.23983   0.24478   0.25173   0.25984
 Alpha virt. eigenvalues --    0.26773   0.27984   0.28644   0.31538   0.32748
 Alpha virt. eigenvalues --    0.33308   0.34004   0.35255   0.36400   0.36892
 Alpha virt. eigenvalues --    0.40954   0.43346   0.46140   0.47951   0.49903
 Alpha virt. eigenvalues --    0.52987   0.59773   0.60409   0.65107   0.67108
 Alpha virt. eigenvalues --    0.72504   0.82734   0.86356   0.89683   1.01831
 Alpha virt. eigenvalues --    1.07369   1.10026   1.12212   1.15567   1.16566
 Alpha virt. eigenvalues --    1.17647   1.18361   1.20785   1.21713   1.23121
 Alpha virt. eigenvalues --    1.24850   1.26128   1.27329   1.29156   1.32168
 Alpha virt. eigenvalues --    1.33926   1.47667   1.48519   1.50071   1.55305
 Alpha virt. eigenvalues --    1.59624   1.65420   1.68216   1.72568   1.76300
 Alpha virt. eigenvalues --    1.76931   1.79091   1.79602   1.80812   1.81492
 Alpha virt. eigenvalues --    1.83407   1.87940   1.89030   1.90783   1.91463
 Alpha virt. eigenvalues --    1.92380   1.96049   2.00227   2.03997   2.13311
 Alpha virt. eigenvalues --    2.14710   2.22934   2.30444   2.50578   2.84189
 Alpha virt. eigenvalues --    3.08070   3.47787   3.96796   4.05740   4.09626
 Alpha virt. eigenvalues --    4.12220   4.31658
          Condensed to atoms (all electrons):
              1          2          3          4          5          6
     1  O    8.429165  -0.013605   0.008974  -0.051286   0.032182   0.101652
     2  O   -0.013605   8.823138   0.047629  -0.863922   0.229873   0.046931
     3  O    0.008974   0.047629   8.638362  -0.110451   0.071167   0.014536
     4  P   -0.051286  -0.863922  -0.110451  17.204303  -1.307090  -0.070194
     5  O    0.032182   0.229873   0.071167  -1.307090   9.506151   0.081468
     6  Ca   0.101652   0.046931   0.014536  -0.070194   0.081468  18.344238
     7  Ca   0.118552  -0.010525   0.005912   0.039890  -0.005664  -0.030460
     8  O    0.026771   0.018777   0.012077  -0.289188   0.130667   0.092918
     9  Ca  -0.011221   0.007265  -0.007239   0.145104   0.051224  -0.049953
              7          8          9
     1  O    0.118552   0.026771  -0.011221
     2  O   -0.010525   0.018777   0.007265
     3  O    0.005912   0.012077  -0.007239
     4  P    0.039890  -0.289188   0.145104
     5  O   -0.005664   0.130667   0.051224
     6  Ca  -0.030460   0.092918  -0.049953
     7  Ca  18.344823   0.121423  -0.009815
     8  O    0.121423   8.941967   0.135390
     9  Ca  -0.009815   0.135390  18.348316
 Mulliken atomic charges:
              1
     1  O   -0.641185
     2  O   -0.285561
     3  O   -0.680966
     4  P    0.302835
     5  O   -0.789978
     6  Ca   1.468864
     7  Ca   1.425865
     8  O   -1.190802
     9  Ca   1.390929
 Sum of Mulliken charges=   1.00000
 Atomic charges with hydrogens summed into heavy atoms:
              1
     1  O   -0.641185
     2  O   -0.285561
     3  O   -0.680966
     4  P    0.302835
     5  O   -0.789978
     6  Ca   1.468864
     7  Ca   1.425865
     8  O   -1.190802
     9  Ca   1.390929
 Sum of Mulliken charges=   1.00000
 Electronic spatial extent (au):  <R**2>=  1952.8541
 Charge=     1.0000 electrons
 Dipole moment (field-independent basis, Debye):
    X=    -9.0190    Y=   -11.4077    Z=    -0.3827  Tot=    14.5473
 Quadrupole moment (field-independent basis, Debye-Ang):
   XX=   -52.1437   YY=   -97.0781   ZZ=   -41.6302
   XY=   -14.8886   XZ=     1.8118   YZ=    10.2820
 Traceless Quadrupole moment (field-independent basis, Debye-Ang):
   XX=    11.4736   YY=   -33.4608   ZZ=    21.9871
   XY=   -14.8886   XZ=     1.8118   YZ=    10.2820
 Octapole moment (field-independent basis, Debye-Ang**2):
  XXX=  -148.2060  YYY=   -75.2931  ZZZ=    35.0460  XYY=    18.7943
  XXY=    -9.1363  XXZ=   -18.7311  XZZ=    19.7101  YZZ=   -57.7425
  YYZ=    -9.1800  XYZ=    14.2938
 Hexadecapole moment (field-independent basis, Debye-Ang**3):
 XXXX=  -589.2912 YYYY= -1088.1760 ZZZZ=  -346.5869 XXXY=   -18.4218
 XXXZ=    14.1061 YYYX=  -102.2400 YYYZ=    96.6260 ZZZX=     5.0107
 ZZZY=    30.1392 XXYY=  -306.1895 XXZZ=  -196.1576 YYZZ=  -201.6509
 XXYZ=    14.2493 YYXZ=    -4.4181 ZZXY=   -35.4638
 N-N= 1.058502402887D+03 E-N=-8.616811010581D+03  KE= 2.742165562029D+03
 Merz-Kollman atomic radii used.
 Read replacement radii for each type of atom:
 Rad(20) =   1.188000000000D+00
 Atom Element Radius
    1     8    1.40
    2     8    1.40
    3     8    1.40
    4    15    1.80
    5     8    1.40
    6    20    1.19
    7    20    1.19
    8     8    1.40
    9    20    1.19

 **********************************************************************

            Electrostatic Properties Using The SCF Density

 **********************************************************************

       Atomic Center    1 is at   2.055170 -0.649611  0.198201
       Atomic Center    2 is at   1.719191  0.807159  0.389321
       Atomic Center    3 is at   0.523292  2.876230 -0.797529
       Atomic Center    4 is at   0.258441  1.438561 -0.491739
       Atomic Center    5 is at  -0.802349  1.189341  0.761741
       Atomic Center    6 is at   0.391160 -0.586830  1.775721
       Atomic Center    7 is at   0.736449 -1.438400 -1.459889
       Atomic Center    8 is at  -0.863631 -1.647129  0.096691
       Atomic Center    9 is at  -2.374110 -0.084088 -0.206399
     745 points will be used for fitting atomic charges
 Fitting point charges to eletrostatic potential
 Charges from ESP fit, RMS=   0.00911 RRMS=   0.05441:
 Charge=   1.00000 Dipole=    -9.0595   -11.4053    -0.6153 Tot=    14.5786
              1
     1  O   -0.716032
     2  O   -0.066768
     3  O   -0.174071
     4  P   -0.546446
     5  O   -0.663340
     6  Ca   1.621395
     7  Ca   1.550439
     8  O   -1.580971
     9  Ca   1.575794
 -----------------------------------------------------------------

              Electrostatic Properties (Atomic Units)

 -----------------------------------------------------------------
    Center     Electric         -------- Electric Field --------
               Potential          X             Y             Z
 -----------------------------------------------------------------
    1 Atom    -22.203280
    2 Atom    -22.179419
    3 Atom    -22.275048
    4 Atom    -53.949703
    5 Atom    -22.237296
    6 Atom    -80.034981
    7 Atom    -80.020623
    8 Atom    -22.280922
    9 Atom    -80.002045
 -----------------------------------------------------------------
 1\1\GINC-N031\SP\RB3LYP\6-31+G(d,p)\Ca3O5P1(1+)\TIMN\12-Jun-2015\0\\# 
 b3lyp/6-31+G(d,p) int=ultrafine pop=(ReadRadii,MK)\\mol_17.26.42.pdbc_
 plusQ.z58453.zip.xyz\\1,1\O,0,2.05517,-0.64961,0.1982\O,0,1.71919,0.80
 716,0.38932\O,0,0.52329,2.87623,-0.79753\P,0,0.25844,1.43856,-0.49174\
 O,0,-0.80235,1.18934,0.76174\Ca,0,0.39116,-0.58683,1.77572\Ca,0,0.7364
 5,-1.4384,-1.45989\O,0,-0.86363,-1.64713,0.09669\Ca,0,-2.37411,-0.0840
 9,-0.2064\\Version=EM64T-G03RevE.01\State=1-A\HF=-2750.1312436\RMSD=8.
 733e-05\Thermal=0.\Dipole=-3.5483302,-4.4881322,-0.1505501\PG=C01 [X(C
 a3O5P1)]\\@


 ON A CLEAR DISK YOU CAN SEEK FOREVER.
 Job cpu time:  0 days  0 hours  2 minutes  9.9 seconds.
 File lengths (MBytes):  RWF=     36 Int=      0 D2E=      0 Chk=     11 Scr=      1
 Normal termination of Gaussian 03 at Fri Jun 12 18:01:06 2015.
