 Entering Gaussian System, Link 0=/home/timn/tmp/g03.e01/g03
 Input=mol_17.29.24.pdbcc_plusQ.z58605.zip.xyz.gjf
 Output=mol_17.29.24.pdbcc_plusQ.z58605.zip.xyz.out
 Initial command:
 /home/timn/tmp/g03.e01/l1.exe /home/timn/tmp/g03.e01/Gau-15635.inp -scrdir=/home/timn/tmp/g03.e01/
 Default is to use a total of   2 processors:
                                2 via shared-memory
                                1 via Linda
 Entering Link 1 = /home/timn/tmp/g03.e01/l1.exe PID=     15636.
  
 Copyright (c) 1988,1990,1992,1993,1995,1998,2003,2004,2007, Gaussian, Inc.
                  All Rights Reserved.
  
 This is the Gaussian(R) 03 program.  It is based on the
 the Gaussian(R) 98 system (copyright 1998, Gaussian, Inc.),
 the Gaussian(R) 94 system (copyright 1995, Gaussian, Inc.),
 the Gaussian 92(TM) system (copyright 1992, Gaussian, Inc.),
 the Gaussian 90(TM) system (copyright 1990, Gaussian, Inc.),
 the Gaussian 88(TM) system (copyright 1988, Gaussian, Inc.),
 the Gaussian 86(TM) system (copyright 1986, Carnegie Mellon
 University), and the Gaussian 82(TM) system (copyright 1983,
 Carnegie Mellon University). Gaussian is a federally registered
 trademark of Gaussian, Inc.
  
 This software contains proprietary and confidential information,
 including trade secrets, belonging to Gaussian, Inc.
  
 This software is provided under written license and may be
 used, copied, transmitted, or stored only in accord with that
 written license.
  
 The following legend is applicable only to US Government
 contracts under FAR:
  
                    RESTRICTED RIGHTS LEGEND
  
 Use, reproduction and disclosure by the US Government is
 subject to restrictions as set forth in subparagraphs (a)
 and (c) of the Commercial Computer Software - Restricted
 Rights clause in FAR 52.227-19.
  
 Gaussian, Inc.
 340 Quinnipiac St., Bldg. 40, Wallingford CT 06492
  
  
 ---------------------------------------------------------------
 Warning -- This program may not be used in any manner that
 competes with the business of Gaussian, Inc. or will provide
 assistance to any competitor of Gaussian, Inc.  The licensee
 of this program is prohibited from giving any competitor of
 Gaussian, Inc. access to this program.  By using this program,
 the user acknowledges that Gaussian, Inc. is engaged in the
 business of creating and licensing software in the field of
 computational chemistry and represents and warrants to the
 licensee that it is not a competitor of Gaussian, Inc. and that
 it will not use this program in any manner prohibited above.
 ---------------------------------------------------------------
  

 Cite this work as:
 Gaussian 03, Revision E.01,
 M. J. Frisch, G. W. Trucks, H. B. Schlegel, G. E. Scuseria, 
 M. A. Robb, J. R. Cheeseman, J. A. Montgomery, Jr., T. Vreven, 
 K. N. Kudin, J. C. Burant, J. M. Millam, S. S. Iyengar, J. Tomasi, 
 V. Barone, B. Mennucci, M. Cossi, G. Scalmani, N. Rega, 
 G. A. Petersson, H. Nakatsuji, M. Hada, M. Ehara, K. Toyota, 
 R. Fukuda, J. Hasegawa, M. Ishida, T. Nakajima, Y. Honda, O. Kitao, 
 H. Nakai, M. Klene, X. Li, J. E. Knox, H. P. Hratchian, J. B. Cross, 
 V. Bakken, C. Adamo, J. Jaramillo, R. Gomperts, R. E. Stratmann, 
 O. Yazyev, A. J. Austin, R. Cammi, C. Pomelli, J. W. Ochterski, 
 P. Y. Ayala, K. Morokuma, G. A. Voth, P. Salvador, J. J. Dannenberg, 
 V. G. Zakrzewski, S. Dapprich, A. D. Daniels, M. C. Strain, 
 O. Farkas, D. K. Malick, A. D. Rabuck, K. Raghavachari, 
 J. B. Foresman, J. V. Ortiz, Q. Cui, A. G. Baboul, S. Clifford, 
 J. Cioslowski, B. B. Stefanov, G. Liu, A. Liashenko, P. Piskorz, 
 I. Komaromi, R. L. Martin, D. J. Fox, T. Keith, M. A. Al-Laham, 
 C. Y. Peng, A. Nanayakkara, M. Challacombe, P. M. W. Gill, 
 B. Johnson, W. Chen, M. W. Wong, C. Gonzalez, and J. A. Pople, 
 Gaussian, Inc., Wallingford CT, 2004.
 
 ******************************************
 Gaussian 03:  EM64T-G03RevE.01 11-Sep-2007
                12-Jun-2015 
 ******************************************
 %nproc=2
 Will use up to    2 processors via shared memory.
 Default route:  MP2=Direct MaxDisk=2000MB
 ----------------------------------------------------
 # b3lyp/6-31+G(d,p) int=ultrafine pop=(ReadRadii,MK)
 ----------------------------------------------------

 Warning!  SCF SP cutoffs with diffuse functions may be unreliable.
 Consider SCF=Tight

 1/38=1/1;
 2/17=6,18=5,40=1/2;
 3/5=1,6=6,7=111,11=2,16=1,25=1,30=1,74=-5,75=5/1,2,3;
 4//1;
 5/5=2,32=1,38=5/2;
 6/7=2,8=2,9=2,10=2,15=8,20=101,28=1/1,2;
 99/5=1,9=1/99;
 ---------------------------------------
 mol_17.29.24.pdbcc_plusQ.z58605.zip.xyz
 ---------------------------------------
 Symbolic Z-matrix:
 Charge =  1 Multiplicity = 1
 O                    -0.49889  -0.02368  -1.70068 
 Ca                    1.28573  -1.23265  -0.91703 
 O                     2.56126   0.0897    0.38659 
 O                     1.2609    0.76405   0.69827 
 P                     0.04775  -0.04555   1.76345 
 O                    -1.15979   0.88343   1.11381 
 Ca                   -0.08797   1.94074  -0.71015 
 O                    -0.16446  -1.44306   0.93218 
 Ca                   -2.03319  -0.7821   -0.26748 
 
                          Input orientation:                          
 ---------------------------------------------------------------------
 Center     Atomic     Atomic              Coordinates (Angstroms)
 Number     Number      Type              X           Y           Z
 ---------------------------------------------------------------------
    1          8             0       -0.498890   -0.023680   -1.700680
    2         20             0        1.285730   -1.232650   -0.917030
    3          8             0        2.561260    0.089700    0.386590
    4          8             0        1.260900    0.764050    0.698270
    5         15             0        0.047750   -0.045550    1.763450
    6          8             0       -1.159790    0.883430    1.113810
    7         20             0       -0.087970    1.940740   -0.710150
    8          8             0       -0.164460   -1.443060    0.932180
    9         20             0       -2.033190   -0.782100   -0.267480
 ---------------------------------------------------------------------
                    Distance matrix (angstroms):
                    1          2          3          4          5
     1  O    0.000000
     2  Ca   2.293596   0.000000
     3  O    3.705950   2.252779   0.000000
     4  O    3.077717   2.568389   1.497608   0.000000
     5  P    3.507063   3.182259   2.869106   1.806044   0.000000
     6  O    3.030015   3.818727   3.873638   2.458997   1.656257
     7  Ca   2.238069   3.464138   3.412859   2.277652   3.175290
     8  O    3.009723   2.359428   3.174362   2.637745   1.639841
     9  Ca   2.232339   3.411765   4.721950   3.764875   2.999582
                    6          7          8          9
     6  O    0.000000
     7  Ca   2.365065   0.000000
     8  O    2.536972   3.762074   0.000000
     9  Ca   2.333405   3.375455   2.316939   0.000000
 Stoichiometry    Ca3O5P(1+)
 Framework group  C1[X(Ca3O5P)]
 Deg. of freedom    21
 Full point group                 C1
 Largest Abelian subgroup         C1      NOp   1
 Largest concise Abelian subgroup C1      NOp   1
                         Standard orientation:                         
 ---------------------------------------------------------------------
 Center     Atomic     Atomic              Coordinates (Angstroms)
 Number     Number      Type              X           Y           Z
 ---------------------------------------------------------------------
    1          8             0       -0.498889   -0.023677   -1.700679
    2         20             0        1.285723   -1.232660   -0.917029
    3          8             0        2.561262    0.089681    0.386591
    4          8             0        1.260907    0.764040    0.698271
    5         15             0        0.047751   -0.045551    1.763451
    6          8             0       -1.159782    0.883438    1.113811
    7         20             0       -0.087954    1.940740   -0.710149
    8          8             0       -0.164469   -1.443059    0.932181
    9         20             0       -2.033194   -0.782086   -0.267479
 ---------------------------------------------------------------------
 Rotational constants (GHZ):      0.9461675      0.8008577      0.7443635
 Standard basis: 6-31+G(d,p) (6D, 7F)
 There are   199 symmetry adapted basis functions of A   symmetry.
 Integral buffers will be    131072 words long.
 Raffenetti 2 integral format.
 Two-electron integral symmetry is turned on.
   199 basis functions,   456 primitive gaussians,   199 cartesian basis functions
    57 alpha electrons       57 beta electrons
       nuclear repulsion energy      1090.5037446519 Hartrees.
 NAtoms=    9 NActive=    9 NUniq=    9 SFac= 7.50D-01 NAtFMM=   80 NAOKFM=F Big=F
 One-electron integrals computed using PRISM.
 NBasis=   199 RedAO= T  NBF=   199
 NBsUse=   199 1.00D-06 NBFU=   199
 Harris functional with IExCor=  402 diagonalized for initial guess.
 ExpMin= 7.10D-03 ExpMax= 3.53D+04 ExpMxC= 5.30D+03 IAcc=3 IRadAn=         5 AccDes= 0.00D+00
 HarFok:  IExCor= 402 AccDes= 0.00D+00 IRadAn=         5 IDoV=1
 ScaDFX=  1.000000  1.000000  1.000000  1.000000
 Initial guess orbital symmetries:
       Occupied  (A) (A) (A) (A) (A) (A) (A) (A) (A) (A) (A) (A)
                 (A) (A) (A) (A) (A) (A) (A) (A) (A) (A) (A) (A)
                 (A) (A) (A) (A) (A) (A) (A) (A) (A) (A) (A) (A)
                 (A) (A) (A) (A) (A) (A) (A) (A) (A) (A) (A) (A)
                 (A) (A) (A) (A) (A) (A) (A) (A) (A)
       Virtual   (A) (A) (A) (A) (A) (A) (A) (A) (A) (A) (A) (A)
                 (A) (A) (A) (A) (A) (A) (A) (A) (A) (A) (A) (A)
                 (A) (A) (A) (A) (A) (A) (A) (A) (A) (A) (A) (A)
                 (A) (A) (A) (A) (A) (A) (A) (A) (A) (A) (A) (A)
                 (A) (A) (A) (A) (A) (A) (A) (A) (A) (A) (A) (A)
                 (A) (A) (A) (A) (A) (A) (A) (A) (A) (A) (A) (A)
                 (A) (A) (A) (A) (A) (A) (A) (A) (A) (A) (A) (A)
                 (A) (A) (A) (A) (A) (A) (A) (A) (A) (A) (A) (A)
                 (A) (A) (A) (A) (A) (A) (A) (A) (A) (A) (A) (A)
                 (A) (A) (A) (A) (A) (A) (A) (A) (A) (A) (A) (A)
                 (A) (A) (A) (A) (A) (A) (A) (A) (A) (A) (A) (A)
                 (A) (A) (A) (A) (A) (A) (A) (A) (A) (A)
 The electronic state of the initial guess is 1-A.
 Requested convergence on RMS density matrix=1.00D-04 within 128 cycles.
 Requested convergence on MAX density matrix=1.00D-02.
 Requested convergence on             energy=1.00D-02.
 No special actions if energy rises.
 EnCoef did     3 forward-backward iterations
 SCF Done:  E(RB+HF-LYP) =  -2750.19417481     A.U. after    9 cycles
             Convg  =    0.4234D-04             -V/T =  2.0029
             S**2   =   0.0000

 **********************************************************************

            Population analysis using the SCF density.

 **********************************************************************

 Orbital symmetries:
       Occupied  (A) (A) (A) (A) (A) (A) (A) (A) (A) (A) (A) (A)
                 (A) (A) (A) (A) (A) (A) (A) (A) (A) (A) (A) (A)
                 (A) (A) (A) (A) (A) (A) (A) (A) (A) (A) (A) (A)
                 (A) (A) (A) (A) (A) (A) (A) (A) (A) (A) (A) (A)
                 (A) (A) (A) (A) (A) (A) (A) (A) (A)
       Virtual   (A) (A) (A) (A) (A) (A) (A) (A) (A) (A) (A) (A)
                 (A) (A) (A) (A) (A) (A) (A) (A) (A) (A) (A) (A)
                 (A) (A) (A) (A) (A) (A) (A) (A) (A) (A) (A) (A)
                 (A) (A) (A) (A) (A) (A) (A) (A) (A) (A) (A) (A)
                 (A) (A) (A) (A) (A) (A) (A) (A) (A) (A) (A) (A)
                 (A) (A) (A) (A) (A) (A) (A) (A) (A) (A) (A) (A)
                 (A) (A) (A) (A) (A) (A) (A) (A) (A) (A) (A) (A)
                 (A) (A) (A) (A) (A) (A) (A) (A) (A) (A) (A) (A)
                 (A) (A) (A) (A) (A) (A) (A) (A) (A) (A) (A) (A)
                 (A) (A) (A) (A) (A) (A) (A) (A) (A) (A) (A) (A)
                 (A) (A) (A) (A) (A) (A) (A) (A) (A) (A) (A) (A)
                 (A) (A) (A) (A) (A) (A) (A) (A) (A) (A)
 The electronic state is 1-A.
 Alpha  occ. eigenvalues -- -145.51633-145.51617-145.48703 -77.27308 -19.29090
 Alpha  occ. eigenvalues --  -19.23584 -19.23500 -19.23300 -19.17362 -15.58447
 Alpha  occ. eigenvalues --  -15.58442 -15.55552 -12.71660 -12.71649 -12.71623
 Alpha  occ. eigenvalues --  -12.71615 -12.71574 -12.71570 -12.68780 -12.68745
 Alpha  occ. eigenvalues --  -12.68646  -6.72406  -4.88811  -4.88697  -4.88163
 Alpha  occ. eigenvalues --   -1.95731  -1.95655  -1.92863  -1.23977  -1.23539
 Alpha  occ. eigenvalues --   -1.23425  -1.23070  -1.23017  -1.22522  -1.21065
 Alpha  occ. eigenvalues --   -1.20540  -1.19969  -1.13362  -1.07587  -1.03129
 Alpha  occ. eigenvalues --   -0.92342  -0.90588  -0.65543  -0.55307  -0.53396
 Alpha  occ. eigenvalues --   -0.51714  -0.49588  -0.46928  -0.44141  -0.42347
 Alpha  occ. eigenvalues --   -0.40317  -0.37818  -0.37656  -0.36843  -0.35237
 Alpha  occ. eigenvalues --   -0.33500  -0.32024
 Alpha virt. eigenvalues --   -0.20908  -0.19059  -0.17419  -0.13465  -0.12273
 Alpha virt. eigenvalues --   -0.11633  -0.10497  -0.10031  -0.08922  -0.08219
 Alpha virt. eigenvalues --   -0.07981  -0.06859  -0.06591  -0.06168  -0.05829
 Alpha virt. eigenvalues --   -0.05028  -0.04877  -0.04699  -0.04537  -0.04325
 Alpha virt. eigenvalues --   -0.04006  -0.03631  -0.03309  -0.03184  -0.02971
 Alpha virt. eigenvalues --   -0.02964  -0.01999  -0.00871   0.00731   0.01602
 Alpha virt. eigenvalues --    0.01793   0.02565   0.03301   0.04139   0.04753
 Alpha virt. eigenvalues --    0.04936   0.05311   0.05713   0.05836   0.06035
 Alpha virt. eigenvalues --    0.06388   0.06754   0.07240   0.07594   0.08117
 Alpha virt. eigenvalues --    0.08951   0.09529   0.09864   0.10449   0.11384
 Alpha virt. eigenvalues --    0.13091   0.14199   0.14824   0.17086   0.17793
 Alpha virt. eigenvalues --    0.18448   0.19751   0.20388   0.21057   0.22374
 Alpha virt. eigenvalues --    0.22993   0.24034   0.24364   0.26030   0.26743
 Alpha virt. eigenvalues --    0.28259   0.29325   0.31426   0.33092   0.33376
 Alpha virt. eigenvalues --    0.34409   0.35327   0.35632   0.37007   0.38656
 Alpha virt. eigenvalues --    0.40212   0.42012   0.43892   0.49200   0.51899
 Alpha virt. eigenvalues --    0.52352   0.57982   0.61343   0.64191   0.65858
 Alpha virt. eigenvalues --    0.78182   0.83724   0.86198   0.90810   0.94392
 Alpha virt. eigenvalues --    1.09176   1.11335   1.13651   1.15690   1.15865
 Alpha virt. eigenvalues --    1.17805   1.19002   1.19238   1.21803   1.21918
 Alpha virt. eigenvalues --    1.23161   1.24302   1.28702   1.31269   1.33700
 Alpha virt. eigenvalues --    1.36831   1.51291   1.53397   1.54922   1.57610
 Alpha virt. eigenvalues --    1.60326   1.63646   1.67896   1.70922   1.73711
 Alpha virt. eigenvalues --    1.75134   1.80587   1.82495   1.84112   1.84824
 Alpha virt. eigenvalues --    1.85772   1.86566   1.88304   1.90437   1.91852
 Alpha virt. eigenvalues --    1.92710   1.97207   1.98892   2.01426   2.10360
 Alpha virt. eigenvalues --    2.15533   2.24716   2.32326   2.48561   2.57912
 Alpha virt. eigenvalues --    3.09313   3.50946   3.99660   4.07033   4.15183
 Alpha virt. eigenvalues --    4.23983   4.36713
          Condensed to atoms (all electrons):
              1          2          3          4          5          6
     1  O    8.860529   0.108542  -0.010442   0.019095  -0.042616   0.028362
     2  Ca   0.108542  18.368825   0.174191  -0.022068  -0.051225   0.013875
     3  O   -0.010442   0.174191   8.558838  -0.112768  -0.066218   0.009905
     4  O    0.019095  -0.022068  -0.112768   8.596250  -0.060524   0.085919
     5  P   -0.042616  -0.051225  -0.066218  -0.060524  14.409018  -0.145196
     6  O    0.028362   0.013875   0.009905   0.085919  -0.145196   8.849075
     7  Ca   0.134227  -0.010402  -0.022449   0.064128  -0.011048   0.053902
     8  O    0.029885   0.054856   0.031016   0.006959  -0.153420   0.037906
     9  Ca   0.133752  -0.054156   0.006787   0.012690   0.019958   0.067674
              7          8          9
     1  O    0.134227   0.029885   0.133752
     2  Ca  -0.010402   0.054856  -0.054156
     3  O   -0.022449   0.031016   0.006787
     4  O    0.064128   0.006959   0.012690
     5  P   -0.011048  -0.153420   0.019958
     6  O    0.053902   0.037906   0.067674
     7  Ca  18.354666   0.016081  -0.071678
     8  O    0.016081   8.931395   0.064339
     9  Ca  -0.071678   0.064339  18.391729
 Mulliken atomic charges:
              1
     1  O   -1.261334
     2  Ca   1.417562
     3  O   -0.568860
     4  O   -0.589680
     5  P    1.101272
     6  O   -1.001422
     7  Ca   1.492574
     8  O   -1.019018
     9  Ca   1.428907
 Sum of Mulliken charges=   1.00000
 Atomic charges with hydrogens summed into heavy atoms:
              1
     1  O   -1.261334
     2  Ca   1.417562
     3  O   -0.568860
     4  O   -0.589680
     5  P    1.101272
     6  O   -1.001422
     7  Ca   1.492574
     8  O   -1.019018
     9  Ca   1.428907
 Sum of Mulliken charges=   1.00000
 Electronic spatial extent (au):  <R**2>=  1781.5191
 Charge=     1.0000 electrons
 Dipole moment (field-independent basis, Debye):
    X=    -6.9626    Y=    -0.1853    Z=    -8.5264  Tot=    11.0097
 Quadrupole moment (field-independent basis, Debye-Ang):
   XX=   -58.4080   YY=   -40.9011   ZZ=   -88.3139
   XY=    -0.4278   XZ=    -9.1126   YZ=    -0.4580
 Traceless Quadrupole moment (field-independent basis, Debye-Ang):
   XX=     4.1330   YY=    21.6399   ZZ=   -25.7729
   XY=    -0.4278   XZ=    -9.1126   YZ=    -0.4580
 Octapole moment (field-independent basis, Debye-Ang**2):
  XXX=  -106.7726  YYY=    50.4185  ZZZ=    -6.1255  XYY=     4.0335
  XXY=   -53.9513  XXZ=   -40.5575  XZZ=    18.1012  YZZ=    -1.0828
  YYZ=   -56.6421  XYZ=    12.6964
 Hexadecapole moment (field-independent basis, Debye-Ang**3):
 XXXX=  -741.1971 YYYY=  -407.9240 ZZZZ=  -730.0650 XXXY=    30.2182
 XXXZ=   -27.5983 YYYX=   -19.5855 YYYZ=   -20.1924 ZZZX=   -44.0747
 ZZZY=     1.2787 XXYY=  -182.2304 XXZZ=  -240.0021 YYZZ=  -179.6913
 XXYZ=    16.4074 YYXZ=   -12.8495 ZZXY=    -7.7918
 N-N= 1.090503744652D+03 E-N=-8.681520195698D+03  KE= 2.742206625221D+03
 Merz-Kollman atomic radii used.
 Read replacement radii for each type of atom:
 Rad(20) =   1.188000000000D+00
 Atom Element Radius
    1     8    1.40
    2    20    1.19
    3     8    1.40
    4     8    1.40
    5    15    1.80
    6     8    1.40
    7    20    1.19
    8     8    1.40
    9    20    1.19

 **********************************************************************

            Electrostatic Properties Using The SCF Density

 **********************************************************************

       Atomic Center    1 is at  -0.498889 -0.023677 -1.700679
       Atomic Center    2 is at   1.285723 -1.232660 -0.917029
       Atomic Center    3 is at   2.561262  0.089681  0.386591
       Atomic Center    4 is at   1.260907  0.764040  0.698271
       Atomic Center    5 is at   0.047751 -0.045551  1.763451
       Atomic Center    6 is at  -1.159782  0.883438  1.113811
       Atomic Center    7 is at  -0.087954  1.940740 -0.710149
       Atomic Center    8 is at  -0.164469 -1.443059  0.932181
       Atomic Center    9 is at  -2.033194 -0.782086 -0.267479
     743 points will be used for fitting atomic charges
 Fitting point charges to eletrostatic potential
 Charges from ESP fit, RMS=   0.00540 RRMS=   0.03346:
 Charge=   1.00000 Dipole=    -7.1290    -0.1309    -8.6905 Tot=    11.2412
              1
     1  O   -1.619812
     2  Ca   1.649624
     3  O   -0.638299
     4  O   -0.404212
     5  P    0.546703
     6  O   -0.931225
     7  Ca   1.637874
     8  O   -0.902716
     9  Ca   1.662064
 -----------------------------------------------------------------

              Electrostatic Properties (Atomic Units)

 -----------------------------------------------------------------
    Center     Electric         -------- Electric Field --------
               Potential          X             Y             Z
 -----------------------------------------------------------------
    1 Atom    -22.289666
    2 Atom    -80.054049
    3 Atom    -22.239602
    4 Atom    -22.175747
    5 Atom    -53.943241
    6 Atom    -22.225609
    7 Atom    -80.024593
    8 Atom    -22.231250
    9 Atom    -80.024814
 -----------------------------------------------------------------
 1\1\GINC-N030\SP\RB3LYP\6-31+G(d,p)\Ca3O5P1(1+)\TIMN\12-Jun-2015\0\\# 
 b3lyp/6-31+G(d,p) int=ultrafine pop=(ReadRadii,MK)\\mol_17.29.24.pdbcc
 _plusQ.z58605.zip.xyz\\1,1\O,0,-0.49889,-0.02368,-1.70068\Ca,0,1.28573
 ,-1.23265,-0.91703\O,0,2.56126,0.0897,0.38659\O,0,1.2609,0.76405,0.698
 27\P,0,0.04775,-0.04555,1.76345\O,0,-1.15979,0.88343,1.11381\Ca,0,-0.0
 8797,1.94074,-0.71015\O,0,-0.16446,-1.44306,0.93218\Ca,0,-2.03319,-0.7
 821,-0.26748\\Version=EM64T-G03RevE.01\State=1-A\HF=-2750.1941748\RMSD
 =4.234e-05\Thermal=0.\Dipole=-2.739314,-0.0729108,-3.3545505\PG=C01 [X
 (Ca3O5P1)]\\@


 Fatherhood is pretending the present you love most is soap-on-a-rope.
 -- Bill Cosby
 Job cpu time:  0 days  0 hours  2 minutes 27.7 seconds.
 File lengths (MBytes):  RWF=     36 Int=      0 D2E=      0 Chk=     11 Scr=      1
 Normal termination of Gaussian 03 at Fri Jun 12 18:12:24 2015.
