 Entering Gaussian System, Link 0=/home/timn/tmp/g03.e01/g03
 Input=mol_17.22.50.pdbccc_plusQ.z58200.zip.xyz.gjf
 Output=mol_17.22.50.pdbccc_plusQ.z58200.zip.xyz.out
 Initial command:
 /home/timn/tmp/g03.e01/l1.exe /home/timn/tmp/g03.e01/Gau-14247.inp -scrdir=/home/timn/tmp/g03.e01/
 Default is to use a total of   2 processors:
                                2 via shared-memory
                                1 via Linda
 Entering Link 1 = /home/timn/tmp/g03.e01/l1.exe PID=     14248.
  
 Copyright (c) 1988,1990,1992,1993,1995,1998,2003,2004,2007, Gaussian, Inc.
                  All Rights Reserved.
  
 This is the Gaussian(R) 03 program.  It is based on the
 the Gaussian(R) 98 system (copyright 1998, Gaussian, Inc.),
 the Gaussian(R) 94 system (copyright 1995, Gaussian, Inc.),
 the Gaussian 92(TM) system (copyright 1992, Gaussian, Inc.),
 the Gaussian 90(TM) system (copyright 1990, Gaussian, Inc.),
 the Gaussian 88(TM) system (copyright 1988, Gaussian, Inc.),
 the Gaussian 86(TM) system (copyright 1986, Carnegie Mellon
 University), and the Gaussian 82(TM) system (copyright 1983,
 Carnegie Mellon University). Gaussian is a federally registered
 trademark of Gaussian, Inc.
  
 This software contains proprietary and confidential information,
 including trade secrets, belonging to Gaussian, Inc.
  
 This software is provided under written license and may be
 used, copied, transmitted, or stored only in accord with that
 written license.
  
 The following legend is applicable only to US Government
 contracts under FAR:
  
                    RESTRICTED RIGHTS LEGEND
  
 Use, reproduction and disclosure by the US Government is
 subject to restrictions as set forth in subparagraphs (a)
 and (c) of the Commercial Computer Software - Restricted
 Rights clause in FAR 52.227-19.
  
 Gaussian, Inc.
 340 Quinnipiac St., Bldg. 40, Wallingford CT 06492
  
  
 ---------------------------------------------------------------
 Warning -- This program may not be used in any manner that
 competes with the business of Gaussian, Inc. or will provide
 assistance to any competitor of Gaussian, Inc.  The licensee
 of this program is prohibited from giving any competitor of
 Gaussian, Inc. access to this program.  By using this program,
 the user acknowledges that Gaussian, Inc. is engaged in the
 business of creating and licensing software in the field of
 computational chemistry and represents and warrants to the
 licensee that it is not a competitor of Gaussian, Inc. and that
 it will not use this program in any manner prohibited above.
 ---------------------------------------------------------------
  

 Cite this work as:
 Gaussian 03, Revision E.01,
 M. J. Frisch, G. W. Trucks, H. B. Schlegel, G. E. Scuseria, 
 M. A. Robb, J. R. Cheeseman, J. A. Montgomery, Jr., T. Vreven, 
 K. N. Kudin, J. C. Burant, J. M. Millam, S. S. Iyengar, J. Tomasi, 
 V. Barone, B. Mennucci, M. Cossi, G. Scalmani, N. Rega, 
 G. A. Petersson, H. Nakatsuji, M. Hada, M. Ehara, K. Toyota, 
 R. Fukuda, J. Hasegawa, M. Ishida, T. Nakajima, Y. Honda, O. Kitao, 
 H. Nakai, M. Klene, X. Li, J. E. Knox, H. P. Hratchian, J. B. Cross, 
 V. Bakken, C. Adamo, J. Jaramillo, R. Gomperts, R. E. Stratmann, 
 O. Yazyev, A. J. Austin, R. Cammi, C. Pomelli, J. W. Ochterski, 
 P. Y. Ayala, K. Morokuma, G. A. Voth, P. Salvador, J. J. Dannenberg, 
 V. G. Zakrzewski, S. Dapprich, A. D. Daniels, M. C. Strain, 
 O. Farkas, D. K. Malick, A. D. Rabuck, K. Raghavachari, 
 J. B. Foresman, J. V. Ortiz, Q. Cui, A. G. Baboul, S. Clifford, 
 J. Cioslowski, B. B. Stefanov, G. Liu, A. Liashenko, P. Piskorz, 
 I. Komaromi, R. L. Martin, D. J. Fox, T. Keith, M. A. Al-Laham, 
 C. Y. Peng, A. Nanayakkara, M. Challacombe, P. M. W. Gill, 
 B. Johnson, W. Chen, M. W. Wong, C. Gonzalez, and J. A. Pople, 
 Gaussian, Inc., Wallingford CT, 2004.
 
 ******************************************
 Gaussian 03:  EM64T-G03RevE.01 11-Sep-2007
                12-Jun-2015 
 ******************************************
 %nproc=2
 Will use up to    2 processors via shared memory.
 Default route:  MP2=Direct MaxDisk=2000MB
 ----------------------------------------------------
 # b3lyp/6-31+G(d,p) int=ultrafine pop=(ReadRadii,MK)
 ----------------------------------------------------

 Warning!  SCF SP cutoffs with diffuse functions may be unreliable.
 Consider SCF=Tight

 1/38=1/1;
 2/17=6,18=5,40=1/2;
 3/5=1,6=6,7=111,11=2,16=1,25=1,30=1,74=-5,75=5/1,2,3;
 4//1;
 5/5=2,32=1,38=5/2;
 6/7=2,8=2,9=2,10=2,15=8,20=101,28=1/1,2;
 99/5=1,9=1/99;
 ----------------------------------------
 mol_17.22.50.pdbccc_plusQ.z58200.zip.xyz
 ----------------------------------------
 Symbolic Z-matrix:
 Charge =  1 Multiplicity = 1
 O                    -1.23812   1.28439  -0.44021 
 P                    -1.06455   0.00033  -1.53138 
 Ca                   -1.62631  -0.00241   1.38981 
 O                     0.59074   0.00205  -1.65711 
 O                     2.06735   0.00114   1.10442 
 O                     0.60778  -0.00117   1.52333 
 Ca                    1.05209   1.67263  -0.13698 
 Ca                    1.05591  -1.67072  -0.13941 
 O                    -1.23596  -1.28578  -0.44263 
 
                          Input orientation:                          
 ---------------------------------------------------------------------
 Center     Atomic     Atomic              Coordinates (Angstroms)
 Number     Number      Type              X           Y           Z
 ---------------------------------------------------------------------
    1          8             0       -1.238120    1.284390   -0.440210
    2         15             0       -1.064550    0.000330   -1.531380
    3         20             0       -1.626310   -0.002410    1.389810
    4          8             0        0.590740    0.002050   -1.657110
    5          8             0        2.067350    0.001140    1.104420
    6          8             0        0.607780   -0.001170    1.523330
    7         20             0        1.052090    1.672630   -0.136980
    8         20             0        1.055910   -1.670720   -0.139410
    9          8             0       -1.235960   -1.285780   -0.442630
 ---------------------------------------------------------------------
                    Distance matrix (angstroms):
                    1          2          3          4          5
     1  O    0.000000
     2  P    1.693986   0.000000
     3  Ca   2.270577   2.974716   0.000000
     4  O    2.543614   1.660059   3.768163   0.000000
     5  O    3.867654   4.093439   3.704671   3.131521   0.000000
     6  O    2.985884   3.482520   2.238077   3.180487   1.518498
     7  Ca   2.342593   3.036627   3.508657   2.305315   2.316399
     8  Ca   3.753096   3.037489   3.509427   2.306069   2.316299
     9  O    2.570172   1.693764   2.270958   2.543679   3.867995
                    6          7          8          9
     6  O    0.000000
     7  Ca   2.399093   0.000000
     8  Ca   2.398525   3.343353   0.000000
     9  O    2.985733   3.752437   2.343670   0.000000
 Stoichiometry    Ca3O5P(1+)
 Framework group  C1[X(Ca3O5P)]
 Deg. of freedom    21
 Full point group                 C1
 Largest Abelian subgroup         C1      NOp   1
 Largest concise Abelian subgroup C1      NOp   1
                         Standard orientation:                         
 ---------------------------------------------------------------------
 Center     Atomic     Atomic              Coordinates (Angstroms)
 Number     Number      Type              X           Y           Z
 ---------------------------------------------------------------------
    1          8             0       -1.238117    1.284392   -0.440211
    2         15             0       -1.064549    0.000332   -1.531381
    3         20             0       -1.626309   -0.002407    1.389809
    4          8             0        0.590741    0.002049   -1.657111
    5          8             0        2.067351    0.001137    1.104419
    6          8             0        0.607781   -0.001171    1.523329
    7         20             0        1.052094    1.672628   -0.136981
    8         20             0        1.055908   -1.670722   -0.139411
    9          8             0       -1.235961   -1.285778   -0.442631
 ---------------------------------------------------------------------
 Rotational constants (GHZ):      0.9459077      0.8197359      0.7963790
 Standard basis: 6-31+G(d,p) (6D, 7F)
 There are   199 symmetry adapted basis functions of A   symmetry.
 Integral buffers will be    131072 words long.
 Raffenetti 2 integral format.
 Two-electron integral symmetry is turned on.
   199 basis functions,   456 primitive gaussians,   199 cartesian basis functions
    57 alpha electrons       57 beta electrons
       nuclear repulsion energy      1104.8730474596 Hartrees.
 NAtoms=    9 NActive=    9 NUniq=    9 SFac= 7.50D-01 NAtFMM=   80 NAOKFM=F Big=F
 One-electron integrals computed using PRISM.
 NBasis=   199 RedAO= T  NBF=   199
 NBsUse=   199 1.00D-06 NBFU=   199
 Harris functional with IExCor=  402 diagonalized for initial guess.
 ExpMin= 7.10D-03 ExpMax= 3.53D+04 ExpMxC= 5.30D+03 IAcc=3 IRadAn=         5 AccDes= 0.00D+00
 HarFok:  IExCor= 402 AccDes= 0.00D+00 IRadAn=         5 IDoV=1
 ScaDFX=  1.000000  1.000000  1.000000  1.000000
 Initial guess orbital symmetries:
       Occupied  (A) (A) (A) (A) (A) (A) (A) (A) (A) (A) (A) (A)
                 (A) (A) (A) (A) (A) (A) (A) (A) (A) (A) (A) (A)
                 (A) (A) (A) (A) (A) (A) (A) (A) (A) (A) (A) (A)
                 (A) (A) (A) (A) (A) (A) (A) (A) (A) (A) (A) (A)
                 (A) (A) (A) (A) (A) (A) (A) (A) (A)
       Virtual   (A) (A) (A) (A) (A) (A) (A) (A) (A) (A) (A) (A)
                 (A) (A) (A) (A) (A) (A) (A) (A) (A) (A) (A) (A)
                 (A) (A) (A) (A) (A) (A) (A) (A) (A) (A) (A) (A)
                 (A) (A) (A) (A) (A) (A) (A) (A) (A) (A) (A) (A)
                 (A) (A) (A) (A) (A) (A) (A) (A) (A) (A) (A) (A)
                 (A) (A) (A) (A) (A) (A) (A) (A) (A) (A) (A) (A)
                 (A) (A) (A) (A) (A) (A) (A) (A) (A) (A) (A) (A)
                 (A) (A) (A) (A) (A) (A) (A) (A) (A) (A) (A) (A)
                 (A) (A) (A) (A) (A) (A) (A) (A) (A) (A) (A) (A)
                 (A) (A) (A) (A) (A) (A) (A) (A) (A) (A) (A) (A)
                 (A) (A) (A) (A) (A) (A) (A) (A) (A) (A) (A) (A)
                 (A) (A) (A) (A) (A) (A) (A) (A) (A) (A)
 The electronic state of the initial guess is 1-A.
 Requested convergence on RMS density matrix=1.00D-04 within 128 cycles.
 Requested convergence on MAX density matrix=1.00D-02.
 Requested convergence on             energy=1.00D-02.
 No special actions if energy rises.
 SCF Done:  E(RB+HF-LYP) =  -2750.24881748     A.U. after    7 cycles
             Convg  =    0.5384D-04             -V/T =  2.0029
             S**2   =   0.0000

 **********************************************************************

            Population analysis using the SCF density.

 **********************************************************************

 Orbital symmetries:
       Occupied  (A) (A) (A) (A) (A) (A) (A) (A) (A) (A) (A) (A)
                 (A) (A) (A) (A) (A) (A) (A) (A) (A) (A) (A) (A)
                 (A) (A) (A) (A) (A) (A) (A) (A) (A) (A) (A) (A)
                 (A) (A) (A) (A) (A) (A) (A) (A) (A) (A) (A) (A)
                 (A) (A) (A) (A) (A) (A) (A) (A) (A)
       Virtual   (A) (A) (A) (A) (A) (A) (A) (A) (A) (A) (A) (A)
                 (A) (A) (A) (A) (A) (A) (A) (A) (A) (A) (A) (A)
                 (A) (A) (A) (A) (A) (A) (A) (A) (A) (A) (A) (A)
                 (A) (A) (A) (A) (A) (A) (A) (A) (A) (A) (A) (A)
                 (A) (A) (A) (A) (A) (A) (A) (A) (A) (A) (A) (A)
                 (A) (A) (A) (A) (A) (A) (A) (A) (A) (A) (A) (A)
                 (A) (A) (A) (A) (A) (A) (A) (A) (A) (A) (A) (A)
                 (A) (A) (A) (A) (A) (A) (A) (A) (A) (A) (A) (A)
                 (A) (A) (A) (A) (A) (A) (A) (A) (A) (A) (A) (A)
                 (A) (A) (A) (A) (A) (A) (A) (A) (A) (A) (A) (A)
                 (A) (A) (A) (A) (A) (A) (A) (A) (A) (A) (A) (A)
                 (A) (A) (A) (A) (A) (A) (A) (A) (A) (A)
 The electronic state is 1-A.
 Alpha  occ. eigenvalues -- -145.52387-145.50188-145.50175 -77.25161 -19.25912
 Alpha  occ. eigenvalues --  -19.25460 -19.21791 -19.21789 -19.21342 -15.59145
 Alpha  occ. eigenvalues --  -15.56986 -15.56975 -12.72333 -12.72329 -12.72303
 Alpha  occ. eigenvalues --  -12.70195 -12.70186 -12.70184 -12.70176 -12.70107
 Alpha  occ. eigenvalues --  -12.70096  -6.70249  -4.86603  -4.86594  -4.86034
 Alpha  occ. eigenvalues --   -1.96323  -1.94234  -1.94168  -1.24347  -1.23878
 Alpha  occ. eigenvalues --   -1.23782  -1.22784  -1.22080  -1.21722  -1.21646
 Alpha  occ. eigenvalues --   -1.21527  -1.21228  -1.10034  -1.07331  -1.00859
 Alpha  occ. eigenvalues --   -1.00735  -0.89073  -0.63099  -0.51342  -0.51083
 Alpha  occ. eigenvalues --   -0.50982  -0.49235  -0.48447  -0.46048  -0.43798
 Alpha  occ. eigenvalues --   -0.43561  -0.38837  -0.38649  -0.38616  -0.35296
 Alpha  occ. eigenvalues --   -0.33987  -0.31705
 Alpha virt. eigenvalues --   -0.20301  -0.18389  -0.17632  -0.12783  -0.12604
 Alpha virt. eigenvalues --   -0.10901  -0.09919  -0.09096  -0.08255  -0.07948
 Alpha virt. eigenvalues --   -0.07350  -0.06562  -0.06018  -0.05817  -0.04927
 Alpha virt. eigenvalues --   -0.04869  -0.04857  -0.04686  -0.04488  -0.04309
 Alpha virt. eigenvalues --   -0.04013  -0.03911  -0.03218  -0.02973  -0.02948
 Alpha virt. eigenvalues --   -0.02711  -0.01824  -0.00968   0.00845   0.01988
 Alpha virt. eigenvalues --    0.02246   0.03414   0.04333   0.04540   0.04865
 Alpha virt. eigenvalues --    0.05218   0.05243   0.06159   0.06287   0.07049
 Alpha virt. eigenvalues --    0.07072   0.07097   0.07501   0.07554   0.07790
 Alpha virt. eigenvalues --    0.08500   0.09358   0.10327   0.11196   0.11843
 Alpha virt. eigenvalues --    0.12305   0.14919   0.14935   0.16117   0.17401
 Alpha virt. eigenvalues --    0.18777   0.20628   0.21080   0.21098   0.23268
 Alpha virt. eigenvalues --    0.23563   0.23712   0.24623   0.25780   0.27269
 Alpha virt. eigenvalues --    0.27988   0.29792   0.31567   0.33553   0.33939
 Alpha virt. eigenvalues --    0.34431   0.36042   0.36679   0.38764   0.39281
 Alpha virt. eigenvalues --    0.41190   0.45567   0.46003   0.53542   0.54383
 Alpha virt. eigenvalues --    0.55422   0.62683   0.63193   0.63517   0.66194
 Alpha virt. eigenvalues --    0.81577   0.85405   0.90483   0.93093   0.99237
 Alpha virt. eigenvalues --    1.11576   1.11879   1.15490   1.16003   1.17645
 Alpha virt. eigenvalues --    1.18024   1.19899   1.19988   1.20434   1.22313
 Alpha virt. eigenvalues --    1.22897   1.27535   1.31229   1.33945   1.38888
 Alpha virt. eigenvalues --    1.45494   1.46511   1.49267   1.57038   1.58125
 Alpha virt. eigenvalues --    1.60012   1.64357   1.68030   1.71380   1.73203
 Alpha virt. eigenvalues --    1.76853   1.78156   1.78940   1.81322   1.84851
 Alpha virt. eigenvalues --    1.86381   1.87084   1.89493   1.90268   1.91246
 Alpha virt. eigenvalues --    1.92826   1.93615   1.99377   2.00490   2.11241
 Alpha virt. eigenvalues --    2.21669   2.24632   2.36549   2.52323   2.56763
 Alpha virt. eigenvalues --    3.07051   3.54026   4.03149   4.09910   4.14254
 Alpha virt. eigenvalues --    4.19185   4.32813
          Condensed to atoms (all electrons):
              1          2          3          4          5          6
     1  O    8.964922  -0.177828   0.074708   0.050247  -0.006655   0.029638
     2  P   -0.177828  14.404019   0.026302  -0.171492   0.003298  -0.024510
     3  Ca   0.074708   0.026302  18.362038   0.013777  -0.033310   0.088832
     4  O    0.050247  -0.171492   0.013777   8.935948   0.002127   0.022217
     5  O   -0.006655   0.003298  -0.033310   0.002127   8.577403  -0.100916
     6  O    0.029638  -0.024510   0.088832   0.022217  -0.100916   8.604186
     7  Ca   0.060605   0.017302  -0.045172   0.065951   0.104012   0.038105
     8  Ca   0.004939   0.017324  -0.045061   0.065844   0.104031   0.038197
     9  O    0.043479  -0.177582   0.074742   0.050101  -0.006676   0.029651
              7          8          9
     1  O    0.060605   0.004939   0.043479
     2  P    0.017302   0.017324  -0.177582
     3  Ca  -0.045172  -0.045061   0.074742
     4  O    0.065951   0.065844   0.050101
     5  O    0.104012   0.104031  -0.006676
     6  O    0.038105   0.038197   0.029651
     7  Ca  18.339862  -0.048003   0.004987
     8  Ca  -0.048003  18.339494   0.060512
     9  O    0.004987   0.060512   8.964680
 Mulliken atomic charges:
              1
     1  O   -1.044055
     2  P    1.083167
     3  Ca   1.483144
     4  O   -1.034719
     5  O   -0.643314
     6  O   -0.725401
     7  Ca   1.462350
     8  Ca   1.462722
     9  O   -1.043894
 Sum of Mulliken charges=   1.00000
 Atomic charges with hydrogens summed into heavy atoms:
              1
     1  O   -1.044055
     2  P    1.083167
     3  Ca   1.483144
     4  O   -1.034719
     5  O   -0.643314
     6  O   -0.725401
     7  Ca   1.462350
     8  Ca   1.462722
     9  O   -1.043894
 Sum of Mulliken charges=   1.00000
 Electronic spatial extent (au):  <R**2>=  1729.0475
 Charge=     1.0000 electrons
 Dipole moment (field-independent basis, Debye):
    X=     0.9357    Y=    -0.0069    Z=     6.2000  Tot=     6.2702
 Quadrupole moment (field-independent basis, Debye-Ang):
   XX=   -63.7091   YY=   -44.2225   ZZ=   -80.5602
   XY=    -0.0087   XZ=   -28.3223   YZ=     0.0054
 Traceless Quadrupole moment (field-independent basis, Debye-Ang):
   XX=    -0.8785   YY=    18.6081   ZZ=   -17.7296
   XY=    -0.0087   XZ=   -28.3223   YZ=     0.0054
 Octapole moment (field-independent basis, Debye-Ang**2):
  XXX=   -20.1745  YYY=     0.1607  ZZZ=    45.1992  XYY=    73.7731
  XXY=    -0.2011  XXZ=    28.1752  XZZ=   -39.2657  YZZ=    -0.0599
  YYZ=     4.8969  XYZ=     0.1087
 Hexadecapole moment (field-independent basis, Debye-Ang**3):
 XXXX=  -745.4743 YYYY=  -401.3681 ZZZZ=  -674.6735 XXXY=    -0.0540
 XXXZ=  -157.7888 YYYX=    -0.0452 YYYZ=     0.0466 ZZZX=  -109.8843
 ZZZY=     0.0246 XXYY=  -182.3275 XXZZ=  -218.9516 YYZZ=  -189.7730
 XXYZ=    -0.0406 YYXZ=   -34.9830 ZZXY=     0.0189
 N-N= 1.104873047460D+03 E-N=-8.710398223694D+03  KE= 2.742230748225D+03
 Merz-Kollman atomic radii used.
 Read replacement radii for each type of atom:
 Rad(20) =   1.188000000000D+00
 Atom Element Radius
    1     8    1.40
    2    15    1.80
    3    20    1.19
    4     8    1.40
    5     8    1.40
    6     8    1.40
    7    20    1.19
    8    20    1.19
    9     8    1.40

 **********************************************************************

            Electrostatic Properties Using The SCF Density

 **********************************************************************

       Atomic Center    1 is at  -1.238117  1.284392 -0.440211
       Atomic Center    2 is at  -1.064549  0.000332 -1.531381
       Atomic Center    3 is at  -1.626309 -0.002407  1.389809
       Atomic Center    4 is at   0.590741  0.002049 -1.657111
       Atomic Center    5 is at   2.067351  0.001137  1.104419
       Atomic Center    6 is at   0.607781 -0.001171  1.523329
       Atomic Center    7 is at   1.052094  1.672628 -0.136981
       Atomic Center    8 is at   1.055908 -1.670722 -0.139411
       Atomic Center    9 is at  -1.235961 -1.285778 -0.442631
     741 points will be used for fitting atomic charges
 Fitting point charges to eletrostatic potential
 Charges from ESP fit, RMS=   0.00662 RRMS=   0.04153:
 Charge=   1.00000 Dipole=     0.8018    -0.0065     6.0169 Tot=     6.0701
              1
     1  O   -0.985732
     2  P    0.536342
     3  Ca   1.647938
     4  O   -0.940535
     5  O   -0.691582
     6  O   -0.930984
     7  Ca   1.674947
     8  Ca   1.674970
     9  O   -0.985364
 -----------------------------------------------------------------

              Electrostatic Properties (Atomic Units)

 -----------------------------------------------------------------
    Center     Electric         -------- Electric Field --------
               Potential          X             Y             Z
 -----------------------------------------------------------------
    1 Atom    -22.248530
    2 Atom    -53.962486
    3 Atom    -80.016265
    4 Atom    -22.248601
    5 Atom    -22.216124
    6 Atom    -22.204659
    7 Atom    -80.039022
    8 Atom    -80.038904
    9 Atom    -22.248458
 -----------------------------------------------------------------
 1\1\GINC-N029\SP\RB3LYP\6-31+G(d,p)\Ca3O5P1(1+)\TIMN\12-Jun-2015\0\\# 
 b3lyp/6-31+G(d,p) int=ultrafine pop=(ReadRadii,MK)\\mol_17.22.50.pdbcc
 c_plusQ.z58200.zip.xyz\\1,1\O,0,-1.23812,1.28439,-0.44021\P,0,-1.06455
 ,0.00033,-1.53138\Ca,0,-1.62631,-0.00241,1.38981\O,0,0.59074,0.00205,-
 1.65711\O,0,2.06735,0.00114,1.10442\O,0,0.60778,-0.00117,1.52333\Ca,0,
 1.05209,1.67263,-0.13698\Ca,0,1.05591,-1.67072,-0.13941\O,0,-1.23596,-
 1.28578,-0.44263\\Version=EM64T-G03RevE.01\State=1-A\HF=-2750.2488175\
 RMSD=5.384e-05\Thermal=0.\Dipole=0.3681257,-0.0027067,2.439276\PG=C01 
 [X(Ca3O5P1)]\\@


 CLIMB THE MOUNTAINS AND GET THEIR GOOD TIDINGS.
 NATURE'S PEACE WILL FLOW INTO YOU AS SUNSHINE FLOWS INTO TREES.
 THE WINDS WILL BLOW THEIR OWN FRESHNESS INTO YOU, 
 AND CARES WILL DROP OFF LIKE AUTUMN LEAVES.

                                         -- JOHN MUIR
 Job cpu time:  0 days  0 hours  2 minutes  0.5 seconds.
 File lengths (MBytes):  RWF=     36 Int=      0 D2E=      0 Chk=     11 Scr=      1
 Normal termination of Gaussian 03 at Fri Jun 12 17:51:05 2015.
