 Entering Gaussian System, Link 0=/home/timn/tmp/g03.e01/g03
 Input=mol_17.26.8.pdbcc_plusQ.z58474.zip.xyz.gjf
 Output=mol_17.26.8.pdbcc_plusQ.z58474.zip.xyz.out
 Initial command:
 /home/timn/tmp/g03.e01/l1.exe /home/timn/tmp/g03.e01/Gau-13180.inp -scrdir=/home/timn/tmp/g03.e01/
 Default is to use a total of   2 processors:
                                2 via shared-memory
                                1 via Linda
 Entering Link 1 = /home/timn/tmp/g03.e01/l1.exe PID=     13181.
  
 Copyright (c) 1988,1990,1992,1993,1995,1998,2003,2004,2007, Gaussian, Inc.
                  All Rights Reserved.
  
 This is the Gaussian(R) 03 program.  It is based on the
 the Gaussian(R) 98 system (copyright 1998, Gaussian, Inc.),
 the Gaussian(R) 94 system (copyright 1995, Gaussian, Inc.),
 the Gaussian 92(TM) system (copyright 1992, Gaussian, Inc.),
 the Gaussian 90(TM) system (copyright 1990, Gaussian, Inc.),
 the Gaussian 88(TM) system (copyright 1988, Gaussian, Inc.),
 the Gaussian 86(TM) system (copyright 1986, Carnegie Mellon
 University), and the Gaussian 82(TM) system (copyright 1983,
 Carnegie Mellon University). Gaussian is a federally registered
 trademark of Gaussian, Inc.
  
 This software contains proprietary and confidential information,
 including trade secrets, belonging to Gaussian, Inc.
  
 This software is provided under written license and may be
 used, copied, transmitted, or stored only in accord with that
 written license.
  
 The following legend is applicable only to US Government
 contracts under FAR:
  
                    RESTRICTED RIGHTS LEGEND
  
 Use, reproduction and disclosure by the US Government is
 subject to restrictions as set forth in subparagraphs (a)
 and (c) of the Commercial Computer Software - Restricted
 Rights clause in FAR 52.227-19.
  
 Gaussian, Inc.
 340 Quinnipiac St., Bldg. 40, Wallingford CT 06492
  
  
 ---------------------------------------------------------------
 Warning -- This program may not be used in any manner that
 competes with the business of Gaussian, Inc. or will provide
 assistance to any competitor of Gaussian, Inc.  The licensee
 of this program is prohibited from giving any competitor of
 Gaussian, Inc. access to this program.  By using this program,
 the user acknowledges that Gaussian, Inc. is engaged in the
 business of creating and licensing software in the field of
 computational chemistry and represents and warrants to the
 licensee that it is not a competitor of Gaussian, Inc. and that
 it will not use this program in any manner prohibited above.
 ---------------------------------------------------------------
  

 Cite this work as:
 Gaussian 03, Revision E.01,
 M. J. Frisch, G. W. Trucks, H. B. Schlegel, G. E. Scuseria, 
 M. A. Robb, J. R. Cheeseman, J. A. Montgomery, Jr., T. Vreven, 
 K. N. Kudin, J. C. Burant, J. M. Millam, S. S. Iyengar, J. Tomasi, 
 V. Barone, B. Mennucci, M. Cossi, G. Scalmani, N. Rega, 
 G. A. Petersson, H. Nakatsuji, M. Hada, M. Ehara, K. Toyota, 
 R. Fukuda, J. Hasegawa, M. Ishida, T. Nakajima, Y. Honda, O. Kitao, 
 H. Nakai, M. Klene, X. Li, J. E. Knox, H. P. Hratchian, J. B. Cross, 
 V. Bakken, C. Adamo, J. Jaramillo, R. Gomperts, R. E. Stratmann, 
 O. Yazyev, A. J. Austin, R. Cammi, C. Pomelli, J. W. Ochterski, 
 P. Y. Ayala, K. Morokuma, G. A. Voth, P. Salvador, J. J. Dannenberg, 
 V. G. Zakrzewski, S. Dapprich, A. D. Daniels, M. C. Strain, 
 O. Farkas, D. K. Malick, A. D. Rabuck, K. Raghavachari, 
 J. B. Foresman, J. V. Ortiz, Q. Cui, A. G. Baboul, S. Clifford, 
 J. Cioslowski, B. B. Stefanov, G. Liu, A. Liashenko, P. Piskorz, 
 I. Komaromi, R. L. Martin, D. J. Fox, T. Keith, M. A. Al-Laham, 
 C. Y. Peng, A. Nanayakkara, M. Challacombe, P. M. W. Gill, 
 B. Johnson, W. Chen, M. W. Wong, C. Gonzalez, and J. A. Pople, 
 Gaussian, Inc., Wallingford CT, 2004.
 
 ******************************************
 Gaussian 03:  EM64T-G03RevE.01 11-Sep-2007
                12-Jun-2015 
 ******************************************
 %nproc=2
 Will use up to    2 processors via shared memory.
 Default route:  MP2=Direct MaxDisk=2000MB
 ----------------------------------------------------
 # b3lyp/6-31+G(d,p) int=ultrafine pop=(ReadRadii,MK)
 ----------------------------------------------------

 Warning!  SCF SP cutoffs with diffuse functions may be unreliable.
 Consider SCF=Tight

 1/38=1/1;
 2/17=6,18=5,40=1/2;
 3/5=1,6=6,7=111,11=2,16=1,25=1,30=1,74=-5,75=5/1,2,3;
 4//1;
 5/5=2,32=1,38=5/2;
 6/7=2,8=2,9=2,10=2,15=8,20=101,28=1/1,2;
 99/5=1,9=1/99;
 --------------------------------------
 mol_17.26.8.pdbcc_plusQ.z58474.zip.xyz
 --------------------------------------
 Symbolic Z-matrix:
 Charge =  1 Multiplicity = 1
 O                    -1.01308  -0.29825   1.32994 
 O                     0.30228  -1.01115   1.27004 
 P                     0.67389  -0.8299   -0.36917 
 O                     2.13018  -1.4503   -0.44573 
 Ca                    3.22623   0.41034  -0.05423 
 O                     1.03056   0.82803  -0.37734 
 Ca                   -1.08182   1.79281   0.17064 
 O                    -2.79319   0.8848   -0.75013 
 Ca                   -2.51253  -1.16197  -0.25025 
 
                          Input orientation:                          
 ---------------------------------------------------------------------
 Center     Atomic     Atomic              Coordinates (Angstroms)
 Number     Number      Type              X           Y           Z
 ---------------------------------------------------------------------
    1          8             0       -1.013080   -0.298250    1.329940
    2          8             0        0.302280   -1.011150    1.270040
    3         15             0        0.673890   -0.829900   -0.369170
    4          8             0        2.130180   -1.450300   -0.445730
    5         20             0        3.226230    0.410340   -0.054230
    6          8             0        1.030560    0.828030   -0.377340
    7         20             0       -1.081820    1.792810    0.170640
    8          8             0       -2.793190    0.884800   -0.750130
    9         20             0       -2.512530   -1.161970   -0.250250
 ---------------------------------------------------------------------
                    Distance matrix (angstroms):
                    1          2          3          4          5
     1  O    0.000000
     2  O    1.497326   0.000000
     3  P    2.452650   1.690549   0.000000
     4  O    3.789500   2.545179   1.584783   0.000000
     5  Ca   4.515504   3.510528   2.855140   2.194671   0.000000
     6  O    2.891328   2.574264   1.695881   2.530737   2.258281
     7  Ca   2.391910   3.314605   3.201956   4.605933   4.530020
     8  O    2.982464   4.154233   3.886640   5.457557   6.078059
     9  Ca   2.343366   3.202684   3.205883   4.655760   5.953482
                    6          7          8          9
     6  O    0.000000
     7  Ca   2.386049   0.000000
     8  O    3.842299   2.145014   0.000000
     9  Ca   4.065678   3.309804   2.125539   0.000000
 Stoichiometry    Ca3O5P(1+)
 Framework group  C1[X(Ca3O5P)]
 Deg. of freedom    21
 Full point group                 C1
 Largest Abelian subgroup         C1      NOp   1
 Largest concise Abelian subgroup C1      NOp   1
                         Standard orientation:                         
 ---------------------------------------------------------------------
 Center     Atomic     Atomic              Coordinates (Angstroms)
 Number     Number      Type              X           Y           Z
 ---------------------------------------------------------------------
    1          8             0       -1.013080   -0.298251    1.329941
    2          8             0        0.302280   -1.011151    1.270041
    3         15             0        0.673890   -0.829901   -0.369169
    4          8             0        2.130180   -1.450301   -0.445729
    5         20             0        3.226230    0.410339   -0.054229
    6          8             0        1.030560    0.828029   -0.377339
    7         20             0       -1.081820    1.792809    0.170641
    8          8             0       -2.793190    0.884799   -0.750129
    9         20             0       -2.512530   -1.161971   -0.250249
 ---------------------------------------------------------------------
 Rotational constants (GHZ):      1.3963842      0.4869484      0.4053836
 Standard basis: 6-31+G(d,p) (6D, 7F)
 There are   199 symmetry adapted basis functions of A   symmetry.
 Integral buffers will be    131072 words long.
 Raffenetti 2 integral format.
 Two-electron integral symmetry is turned on.
   199 basis functions,   456 primitive gaussians,   199 cartesian basis functions
    57 alpha electrons       57 beta electrons
       nuclear repulsion energy      1004.4468766822 Hartrees.
 NAtoms=    9 NActive=    9 NUniq=    9 SFac= 7.50D-01 NAtFMM=   80 NAOKFM=F Big=F
 One-electron integrals computed using PRISM.
 NBasis=   199 RedAO= T  NBF=   199
 NBsUse=   199 1.00D-06 NBFU=   199
 Harris functional with IExCor=  402 diagonalized for initial guess.
 ExpMin= 7.10D-03 ExpMax= 3.53D+04 ExpMxC= 5.30D+03 IAcc=3 IRadAn=         5 AccDes= 0.00D+00
 HarFok:  IExCor= 402 AccDes= 0.00D+00 IRadAn=         5 IDoV=1
 ScaDFX=  1.000000  1.000000  1.000000  1.000000
 Initial guess orbital symmetries:
       Occupied  (A) (A) (A) (A) (A) (A) (A) (A) (A) (A) (A) (A)
                 (A) (A) (A) (A) (A) (A) (A) (A) (A) (A) (A) (A)
                 (A) (A) (A) (A) (A) (A) (A) (A) (A) (A) (A) (A)
                 (A) (A) (A) (A) (A) (A) (A) (A) (A) (A) (A) (A)
                 (A) (A) (A) (A) (A) (A) (A) (A) (A)
       Virtual   (A) (A) (A) (A) (A) (A) (A) (A) (A) (A) (A) (A)
                 (A) (A) (A) (A) (A) (A) (A) (A) (A) (A) (A) (A)
                 (A) (A) (A) (A) (A) (A) (A) (A) (A) (A) (A) (A)
                 (A) (A) (A) (A) (A) (A) (A) (A) (A) (A) (A) (A)
                 (A) (A) (A) (A) (A) (A) (A) (A) (A) (A) (A) (A)
                 (A) (A) (A) (A) (A) (A) (A) (A) (A) (A) (A) (A)
                 (A) (A) (A) (A) (A) (A) (A) (A) (A) (A) (A) (A)
                 (A) (A) (A) (A) (A) (A) (A) (A) (A) (A) (A) (A)
                 (A) (A) (A) (A) (A) (A) (A) (A) (A) (A) (A) (A)
                 (A) (A) (A) (A) (A) (A) (A) (A) (A) (A) (A) (A)
                 (A) (A) (A) (A) (A) (A) (A) (A) (A) (A) (A) (A)
                 (A) (A) (A) (A) (A) (A) (A) (A) (A) (A)
 The electronic state of the initial guess is 1-A.
 Requested convergence on RMS density matrix=1.00D-04 within 128 cycles.
 Requested convergence on MAX density matrix=1.00D-02.
 Requested convergence on             energy=1.00D-02.
 No special actions if energy rises.
 EnCoef did     5 forward-backward iterations
 SCF Done:  E(RB+HF-LYP) =  -2750.12302173     A.U. after    9 cycles
             Convg  =    0.6904D-04             -V/T =  2.0029
             S**2   =   0.0000

 **********************************************************************

            Population analysis using the SCF density.

 **********************************************************************

 Orbital symmetries:
       Occupied  (A) (A) (A) (A) (A) (A) (A) (A) (A) (A) (A) (A)
                 (A) (A) (A) (A) (A) (A) (A) (A) (A) (A) (A) (A)
                 (A) (A) (A) (A) (A) (A) (A) (A) (A) (A) (A) (A)
                 (A) (A) (A) (A) (A) (A) (A) (A) (A) (A) (A) (A)
                 (A) (A) (A) (A) (A) (A) (A) (A) (A)
       Virtual   (A) (A) (A) (A) (A) (A) (A) (A) (A) (A) (A) (A)
                 (A) (A) (A) (A) (A) (A) (A) (A) (A) (A) (A) (A)
                 (A) (A) (A) (A) (A) (A) (A) (A) (A) (A) (A) (A)
                 (A) (A) (A) (A) (A) (A) (A) (A) (A) (A) (A) (A)
                 (A) (A) (A) (A) (A) (A) (A) (A) (A) (A) (A) (A)
                 (A) (A) (A) (A) (A) (A) (A) (A) (A) (A) (A) (A)
                 (A) (A) (A) (A) (A) (A) (A) (A) (A) (A) (A) (A)
                 (A) (A) (A) (A) (A) (A) (A) (A) (A) (A) (A) (A)
                 (A) (A) (A) (A) (A) (A) (A) (A) (A) (A) (A) (A)
                 (A) (A) (A) (A) (A) (A) (A) (A) (A) (A) (A) (A)
                 (A) (A) (A) (A) (A) (A) (A) (A) (A) (A) (A) (A)
                 (A) (A) (A) (A) (A) (A) (A) (A) (A) (A)
 The electronic state is 1-A.
 Alpha  occ. eigenvalues -- -145.57070-145.47490-145.45556 -77.26969 -19.28251
 Alpha  occ. eigenvalues --  -19.24158 -19.24079 -19.22571 -19.09846 -15.63881
 Alpha  occ. eigenvalues --  -15.54323 -15.52417 -12.77116 -12.77028 -12.77018
 Alpha  occ. eigenvalues --  -12.67555 -12.67495 -12.67427 -12.65645 -12.65616
 Alpha  occ. eigenvalues --  -12.65494  -6.72187  -4.88572  -4.88536  -4.88012
 Alpha  occ. eigenvalues --   -2.00886  -1.91498  -1.89733  -1.28492  -1.28405
 Alpha  occ. eigenvalues --   -1.28008  -1.19390  -1.19170  -1.18536  -1.17640
 Alpha  occ. eigenvalues --   -1.17428  -1.16717  -1.14609  -1.07353  -1.02843
 Alpha  occ. eigenvalues --   -0.91102  -0.83976  -0.65108  -0.54558  -0.52884
 Alpha  occ. eigenvalues --   -0.52275  -0.48262  -0.47276  -0.43234  -0.41038
 Alpha  occ. eigenvalues --   -0.40276  -0.36106  -0.35027  -0.33483  -0.29715
 Alpha  occ. eigenvalues --   -0.28017  -0.27831
 Alpha virt. eigenvalues --   -0.23600  -0.17047  -0.16269  -0.14372  -0.13664
 Alpha virt. eigenvalues --   -0.11437  -0.09847  -0.08794  -0.08418  -0.07778
 Alpha virt. eigenvalues --   -0.07384  -0.06577  -0.05966  -0.05886  -0.05287
 Alpha virt. eigenvalues --   -0.05046  -0.04927  -0.04837  -0.04386  -0.03870
 Alpha virt. eigenvalues --   -0.03682  -0.03596  -0.03508  -0.03022  -0.02719
 Alpha virt. eigenvalues --   -0.02313  -0.02206  -0.00833  -0.00352   0.00275
 Alpha virt. eigenvalues --    0.01463   0.01883   0.02267   0.02813   0.03181
 Alpha virt. eigenvalues --    0.04219   0.04265   0.04897   0.04991   0.05767
 Alpha virt. eigenvalues --    0.06838   0.07351   0.08364   0.09077   0.09268
 Alpha virt. eigenvalues --    0.10330   0.11145   0.11739   0.12580   0.12708
 Alpha virt. eigenvalues --    0.13410   0.14267   0.15895   0.16340   0.16905
 Alpha virt. eigenvalues --    0.17622   0.19475   0.19930   0.20741   0.21714
 Alpha virt. eigenvalues --    0.23481   0.24170   0.24991   0.25382   0.26756
 Alpha virt. eigenvalues --    0.27169   0.28086   0.29268   0.31078   0.32163
 Alpha virt. eigenvalues --    0.32800   0.35097   0.37343   0.37913   0.38725
 Alpha virt. eigenvalues --    0.40514   0.41824   0.43639   0.47391   0.49904
 Alpha virt. eigenvalues --    0.56282   0.56911   0.59194   0.63832   0.67932
 Alpha virt. eigenvalues --    0.69056   0.75862   0.83883   0.87964   0.97445
 Alpha virt. eigenvalues --    1.02938   1.08806   1.11807   1.13926   1.16728
 Alpha virt. eigenvalues --    1.18379   1.19957   1.20962   1.21536   1.23181
 Alpha virt. eigenvalues --    1.24018   1.26346   1.27400   1.28382   1.31685
 Alpha virt. eigenvalues --    1.34628   1.44983   1.49974   1.52044   1.58161
 Alpha virt. eigenvalues --    1.63319   1.65156   1.70250   1.73154   1.74309
 Alpha virt. eigenvalues --    1.75552   1.77321   1.81063   1.83528   1.85654
 Alpha virt. eigenvalues --    1.87782   1.88664   1.89688   1.90854   1.93558
 Alpha virt. eigenvalues --    1.95869   1.98095   2.00832   2.02858   2.05966
 Alpha virt. eigenvalues --    2.24701   2.29973   2.37148   2.52101   2.66999
 Alpha virt. eigenvalues --    3.10391   3.50112   3.97703   4.00850   4.05190
 Alpha virt. eigenvalues --    4.13926   4.40257
          Condensed to atoms (all electrons):
              1          2          3          4          5          6
     1  O    8.587211  -0.061028  -0.100910   0.025383  -0.002305   0.006004
     2  O   -0.061028   8.650630  -0.307292   0.020101   0.000486   0.070628
     3  P   -0.100910  -0.307292  14.779519   0.002940   0.046860  -0.275349
     4  O    0.025383   0.020101   0.002940   8.753724   0.127358  -0.005476
     5  Ca  -0.002305   0.000486   0.046860   0.127358  18.272706   0.073967
     6  O    0.006004   0.070628  -0.275349  -0.005476   0.073967   9.108396
     7  Ca   0.067750   0.004194  -0.007597   0.006683  -0.007670   0.046527
     8  O    0.017058   0.001616  -0.020821   0.000963  -0.000994   0.004327
     9  Ca   0.086404   0.002724   0.004921   0.010376  -0.000514   0.013509
              7          8          9
     1  O    0.067750   0.017058   0.086404
     2  O    0.004194   0.001616   0.002724
     3  P   -0.007597  -0.020821   0.004921
     4  O    0.006683   0.000963   0.010376
     5  Ca  -0.007670  -0.000994  -0.000514
     6  O    0.046527   0.004327   0.013509
     7  Ca  18.337529   0.198986  -0.034665
     8  O    0.198986   8.706314   0.219577
     9  Ca  -0.034665   0.219577  18.334528
 Mulliken atomic charges:
              1
     1  O   -0.625567
     2  O   -0.382060
     3  P    0.877730
     4  O   -0.942053
     5  Ca   1.490106
     6  O   -1.042534
     7  Ca   1.388263
     8  O   -1.127025
     9  Ca   1.363141
 Sum of Mulliken charges=   1.00000
 Atomic charges with hydrogens summed into heavy atoms:
              1
     1  O   -0.625567
     2  O   -0.382060
     3  P    0.877730
     4  O   -0.942053
     5  Ca   1.490106
     6  O   -1.042534
     7  Ca   1.388263
     8  O   -1.127025
     9  Ca   1.363141
 Sum of Mulliken charges=   1.00000
 Electronic spatial extent (au):  <R**2>=  2479.1769
 Charge=     1.0000 electrons
 Dipole moment (field-independent basis, Debye):
    X=     9.9071    Y=     4.1511    Z=     1.1085  Tot=    10.7987
 Quadrupole moment (field-independent basis, Debye-Ang):
   XX=   -14.0803   YY=   -55.1537   ZZ=   -88.1487
   XY=    38.4976   XZ=    -4.1143   YZ=    10.5149
 Traceless Quadrupole moment (field-independent basis, Debye-Ang):
   XX=    38.3806   YY=    -2.6928   ZZ=   -35.6878
   XY=    38.4976   XZ=    -4.1143   YZ=    10.5149
 Octapole moment (field-independent basis, Debye-Ang**2):
  XXX=   259.6308  YYY=    50.6941  ZZZ=    -1.1841  XYY=   -49.2955
  XXY=   -28.8689  XXZ=    27.0778  XZZ=    18.9537  YZZ=     6.3039
  YYZ=     9.6587  XYZ=   -23.9617
 Hexadecapole moment (field-independent basis, Debye-Ang**3):
 XXXX= -1080.4768 YYYY=  -507.3287 ZZZZ=  -298.4242 XXXY=   484.6666
 XXXZ=   -77.1999 YYYX=    75.2429 YYYZ=    27.7168 ZZZX=   -10.3868
 ZZZY=    21.8416 XXYY=  -363.6262 XXZZ=  -375.6987 YYZZ=  -151.9450
 XXYZ=    44.5411 YYXZ=    -4.4690 ZZXY=    32.7686
 N-N= 1.004446876682D+03 E-N=-8.510424749502D+03  KE= 2.742149241499D+03
 Merz-Kollman atomic radii used.
 Read replacement radii for each type of atom:
 Rad(20) =   1.188000000000D+00
 Atom Element Radius
    1     8    1.40
    2     8    1.40
    3    15    1.80
    4     8    1.40
    5    20    1.19
    6     8    1.40
    7    20    1.19
    8     8    1.40
    9    20    1.19

 **********************************************************************

            Electrostatic Properties Using The SCF Density

 **********************************************************************

       Atomic Center    1 is at  -1.013080 -0.298251  1.329941
       Atomic Center    2 is at   0.302280 -1.011151  1.270041
       Atomic Center    3 is at   0.673890 -0.829901 -0.369169
       Atomic Center    4 is at   2.130180 -1.450301 -0.445729
       Atomic Center    5 is at   3.226230  0.410339 -0.054229
       Atomic Center    6 is at   1.030560  0.828029 -0.377339
       Atomic Center    7 is at  -1.081820  1.792809  0.170641
       Atomic Center    8 is at  -2.793190  0.884799 -0.750129
       Atomic Center    9 is at  -2.512530 -1.161971 -0.250249
     748 points will be used for fitting atomic charges
 Fitting point charges to eletrostatic potential
 Charges from ESP fit, RMS=   0.00647 RRMS=   0.04119:
 Charge=   1.00000 Dipole=     9.9940     4.3208     1.2225 Tot=    10.9565
              1
     1  O   -0.773287
     2  O   -0.165169
     3  P    0.159181
     4  O   -0.647485
     5  Ca   1.647647
     6  O   -0.989655
     7  Ca   1.648888
     8  O   -1.455213
     9  Ca   1.575093
 -----------------------------------------------------------------

              Electrostatic Properties (Atomic Units)

 -----------------------------------------------------------------
    Center     Electric         -------- Electric Field --------
               Potential          X             Y             Z
 -----------------------------------------------------------------
    1 Atom    -22.222967
    2 Atom    -22.191579
    3 Atom    -53.945486
    4 Atom    -22.236934
    5 Atom    -79.971754
    6 Atom    -22.225744
    7 Atom    -80.084351
    8 Atom    -22.360963
    9 Atom    -80.066053
 -----------------------------------------------------------------
 1\1\GINC-N033\SP\RB3LYP\6-31+G(d,p)\Ca3O5P1(1+)\TIMN\12-Jun-2015\0\\# 
 b3lyp/6-31+G(d,p) int=ultrafine pop=(ReadRadii,MK)\\mol_17.26.8.pdbcc_
 plusQ.z58474.zip.xyz\\1,1\O,0,-1.01308,-0.29825,1.32994\O,0,0.30228,-1
 .01115,1.27004\P,0,0.67389,-0.8299,-0.36917\O,0,2.13018,-1.4503,-0.445
 73\Ca,0,3.22623,0.41034,-0.05423\O,0,1.03056,0.82803,-0.37734\Ca,0,-1.
 08182,1.79281,0.17064\O,0,-2.79319,0.8848,-0.75013\Ca,0,-2.51253,-1.16
 197,-0.25025\\Version=EM64T-G03RevE.01\State=1-A\HF=-2750.1230217\RMSD
 =6.904e-05\Thermal=0.\Dipole=3.8977716,1.633165,0.4361023\PG=C01 [X(Ca
 3O5P1)]\\@


 ONLY THE DAY DAWNS TO WHICH YOU ARE AWAKE.

                                 -- THOREAU
 Job cpu time:  0 days  0 hours  2 minutes 17.7 seconds.
 File lengths (MBytes):  RWF=     36 Int=      0 D2E=      0 Chk=     11 Scr=      1
 Normal termination of Gaussian 03 at Fri Jun 12 18:02:48 2015.
