 Entering Gaussian System, Link 0=/home/timn/tmp/g03.e01/g03
 Input=mol_17.29.2.pdbcc_plusQ.z58611.zip.xyz.gjf
 Output=mol_17.29.2.pdbcc_plusQ.z58611.zip.xyz.out
 Initial command:
 /home/timn/tmp/g03.e01/l1.exe /home/timn/tmp/g03.e01/Gau-19868.inp -scrdir=/home/timn/tmp/g03.e01/
 Default is to use a total of   2 processors:
                                2 via shared-memory
                                1 via Linda
 Entering Link 1 = /home/timn/tmp/g03.e01/l1.exe PID=     19869.
  
 Copyright (c) 1988,1990,1992,1993,1995,1998,2003,2004,2007, Gaussian, Inc.
                  All Rights Reserved.
  
 This is the Gaussian(R) 03 program.  It is based on the
 the Gaussian(R) 98 system (copyright 1998, Gaussian, Inc.),
 the Gaussian(R) 94 system (copyright 1995, Gaussian, Inc.),
 the Gaussian 92(TM) system (copyright 1992, Gaussian, Inc.),
 the Gaussian 90(TM) system (copyright 1990, Gaussian, Inc.),
 the Gaussian 88(TM) system (copyright 1988, Gaussian, Inc.),
 the Gaussian 86(TM) system (copyright 1986, Carnegie Mellon
 University), and the Gaussian 82(TM) system (copyright 1983,
 Carnegie Mellon University). Gaussian is a federally registered
 trademark of Gaussian, Inc.
  
 This software contains proprietary and confidential information,
 including trade secrets, belonging to Gaussian, Inc.
  
 This software is provided under written license and may be
 used, copied, transmitted, or stored only in accord with that
 written license.
  
 The following legend is applicable only to US Government
 contracts under FAR:
  
                    RESTRICTED RIGHTS LEGEND
  
 Use, reproduction and disclosure by the US Government is
 subject to restrictions as set forth in subparagraphs (a)
 and (c) of the Commercial Computer Software - Restricted
 Rights clause in FAR 52.227-19.
  
 Gaussian, Inc.
 340 Quinnipiac St., Bldg. 40, Wallingford CT 06492
  
  
 ---------------------------------------------------------------
 Warning -- This program may not be used in any manner that
 competes with the business of Gaussian, Inc. or will provide
 assistance to any competitor of Gaussian, Inc.  The licensee
 of this program is prohibited from giving any competitor of
 Gaussian, Inc. access to this program.  By using this program,
 the user acknowledges that Gaussian, Inc. is engaged in the
 business of creating and licensing software in the field of
 computational chemistry and represents and warrants to the
 licensee that it is not a competitor of Gaussian, Inc. and that
 it will not use this program in any manner prohibited above.
 ---------------------------------------------------------------
  

 Cite this work as:
 Gaussian 03, Revision E.01,
 M. J. Frisch, G. W. Trucks, H. B. Schlegel, G. E. Scuseria, 
 M. A. Robb, J. R. Cheeseman, J. A. Montgomery, Jr., T. Vreven, 
 K. N. Kudin, J. C. Burant, J. M. Millam, S. S. Iyengar, J. Tomasi, 
 V. Barone, B. Mennucci, M. Cossi, G. Scalmani, N. Rega, 
 G. A. Petersson, H. Nakatsuji, M. Hada, M. Ehara, K. Toyota, 
 R. Fukuda, J. Hasegawa, M. Ishida, T. Nakajima, Y. Honda, O. Kitao, 
 H. Nakai, M. Klene, X. Li, J. E. Knox, H. P. Hratchian, J. B. Cross, 
 V. Bakken, C. Adamo, J. Jaramillo, R. Gomperts, R. E. Stratmann, 
 O. Yazyev, A. J. Austin, R. Cammi, C. Pomelli, J. W. Ochterski, 
 P. Y. Ayala, K. Morokuma, G. A. Voth, P. Salvador, J. J. Dannenberg, 
 V. G. Zakrzewski, S. Dapprich, A. D. Daniels, M. C. Strain, 
 O. Farkas, D. K. Malick, A. D. Rabuck, K. Raghavachari, 
 J. B. Foresman, J. V. Ortiz, Q. Cui, A. G. Baboul, S. Clifford, 
 J. Cioslowski, B. B. Stefanov, G. Liu, A. Liashenko, P. Piskorz, 
 I. Komaromi, R. L. Martin, D. J. Fox, T. Keith, M. A. Al-Laham, 
 C. Y. Peng, A. Nanayakkara, M. Challacombe, P. M. W. Gill, 
 B. Johnson, W. Chen, M. W. Wong, C. Gonzalez, and J. A. Pople, 
 Gaussian, Inc., Wallingford CT, 2004.
 
 ******************************************
 Gaussian 03:  EM64T-G03RevE.01 11-Sep-2007
                12-Jun-2015 
 ******************************************
 %nproc=2
 Will use up to    2 processors via shared memory.
 Default route:  MP2=Direct MaxDisk=2000MB
 ----------------------------------------------------
 # b3lyp/6-31+G(d,p) int=ultrafine pop=(ReadRadii,MK)
 ----------------------------------------------------

 Warning!  SCF SP cutoffs with diffuse functions may be unreliable.
 Consider SCF=Tight

 1/38=1/1;
 2/17=6,18=5,40=1/2;
 3/5=1,6=6,7=111,11=2,16=1,25=1,30=1,74=-5,75=5/1,2,3;
 4//1;
 5/5=2,32=1,38=5/2;
 6/7=2,8=2,9=2,10=2,15=8,20=101,28=1/1,2;
 99/5=1,9=1/99;
 --------------------------------------
 mol_17.29.2.pdbcc_plusQ.z58611.zip.xyz
 --------------------------------------
 Symbolic Z-matrix:
 Charge =  1 Multiplicity = 1
 Ca                    2.01621  -1.74561  -0.0188 
 O                     2.87499   0.17661   0.25491 
 Ca                    1.71345   1.94638   0.10543 
 P                    -0.4452   -0.06888  -0.94483 
 O                    -2.11372  -0.30051  -1.21408 
 O                    -3.11446   0.67164  -0.62341 
 O                    -0.2508   -1.36319   0.08454 
 Ca                   -2.18375  -0.27289   1.15249 
 O                    -0.426     1.12489   0.17179 
 
                          Input orientation:                          
 ---------------------------------------------------------------------
 Center     Atomic     Atomic              Coordinates (Angstroms)
 Number     Number      Type              X           Y           Z
 ---------------------------------------------------------------------
    1         20             0        2.016210   -1.745610   -0.018800
    2          8             0        2.874990    0.176610    0.254910
    3         20             0        1.713450    1.946380    0.105430
    4         15             0       -0.445200   -0.068880   -0.944830
    5          8             0       -2.113720   -0.300510   -1.214080
    6          8             0       -3.114460    0.671640   -0.623410
    7          8             0       -0.250800   -1.363190    0.084540
    8         20             0       -2.183750   -0.272890    1.152490
    9          8             0       -0.426000    1.124890    0.171790
 ---------------------------------------------------------------------
                    Distance matrix (angstroms):
                    1          2          3          4          5
     1  Ca   0.000000
     2  O    2.123052   0.000000
     3  Ca   3.706466   2.122170   0.000000
     4  P    3.118893   3.538828   3.134340   0.000000
     5  O    4.535783   5.222337   4.629995   1.705904   0.000000
     6  O    5.703720   6.073715   5.046274   2.788661   1.515073
     7  O    2.301360   3.488635   3.848632   1.665122   2.507224
     8  Ca   4.602226   5.157378   4.605395   2.731836   2.367767
     9  O    3.773657   3.435503   2.292705   1.634716   2.607834
                    6          7          8          9
     6  O    0.000000
     7  O    3.583612   0.000000
     8  Ca   2.216344   2.462837   0.000000
     9  O    2.839999   2.495766   2.450560   0.000000
 Stoichiometry    Ca3O5P(1+)
 Framework group  C1[X(Ca3O5P)]
 Deg. of freedom    21
 Full point group                 C1
 Largest Abelian subgroup         C1      NOp   1
 Largest concise Abelian subgroup C1      NOp   1
                         Standard orientation:                         
 ---------------------------------------------------------------------
 Center     Atomic     Atomic              Coordinates (Angstroms)
 Number     Number      Type              X           Y           Z
 ---------------------------------------------------------------------
    1         20             0        2.016212   -1.745604   -0.018800
    2          8             0        2.874987    0.176619    0.254910
    3         20             0        1.713442    1.946385    0.105430
    4         15             0       -0.445202   -0.068881   -0.944830
    5          8             0       -2.113722   -0.300515   -1.214080
    6          8             0       -3.114464    0.671632   -0.623410
    7          8             0       -0.250799   -1.363190    0.084540
    8         20             0       -2.183752   -0.272895    1.152490
    9          8             0       -0.426006    1.124890    0.171790
 ---------------------------------------------------------------------
 Rotational constants (GHZ):      1.1280456      0.5309617      0.4302466
 Standard basis: 6-31+G(d,p) (6D, 7F)
 There are   199 symmetry adapted basis functions of A   symmetry.
 Integral buffers will be    131072 words long.
 Raffenetti 2 integral format.
 Two-electron integral symmetry is turned on.
   199 basis functions,   456 primitive gaussians,   199 cartesian basis functions
    57 alpha electrons       57 beta electrons
       nuclear repulsion energy      1004.8847702330 Hartrees.
 NAtoms=    9 NActive=    9 NUniq=    9 SFac= 7.50D-01 NAtFMM=   80 NAOKFM=F Big=F
 One-electron integrals computed using PRISM.
 NBasis=   199 RedAO= T  NBF=   199
 NBsUse=   199 1.00D-06 NBFU=   199
 Harris functional with IExCor=  402 diagonalized for initial guess.
 ExpMin= 7.10D-03 ExpMax= 3.53D+04 ExpMxC= 5.30D+03 IAcc=3 IRadAn=         5 AccDes= 0.00D+00
 HarFok:  IExCor= 402 AccDes= 0.00D+00 IRadAn=         5 IDoV=1
 ScaDFX=  1.000000  1.000000  1.000000  1.000000
 Initial guess orbital symmetries:
       Occupied  (A) (A) (A) (A) (A) (A) (A) (A) (A) (A) (A) (A)
                 (A) (A) (A) (A) (A) (A) (A) (A) (A) (A) (A) (A)
                 (A) (A) (A) (A) (A) (A) (A) (A) (A) (A) (A) (A)
                 (A) (A) (A) (A) (A) (A) (A) (A) (A) (A) (A) (A)
                 (A) (A) (A) (A) (A) (A) (A) (A) (A)
       Virtual   (A) (A) (A) (A) (A) (A) (A) (A) (A) (A) (A) (A)
                 (A) (A) (A) (A) (A) (A) (A) (A) (A) (A) (A) (A)
                 (A) (A) (A) (A) (A) (A) (A) (A) (A) (A) (A) (A)
                 (A) (A) (A) (A) (A) (A) (A) (A) (A) (A) (A) (A)
                 (A) (A) (A) (A) (A) (A) (A) (A) (A) (A) (A) (A)
                 (A) (A) (A) (A) (A) (A) (A) (A) (A) (A) (A) (A)
                 (A) (A) (A) (A) (A) (A) (A) (A) (A) (A) (A) (A)
                 (A) (A) (A) (A) (A) (A) (A) (A) (A) (A) (A) (A)
                 (A) (A) (A) (A) (A) (A) (A) (A) (A) (A) (A) (A)
                 (A) (A) (A) (A) (A) (A) (A) (A) (A) (A) (A) (A)
                 (A) (A) (A) (A) (A) (A) (A) (A) (A) (A) (A) (A)
                 (A) (A) (A) (A) (A) (A) (A) (A) (A) (A)
 The electronic state of the initial guess is 1-A.
 Requested convergence on RMS density matrix=1.00D-04 within 128 cycles.
 Requested convergence on MAX density matrix=1.00D-02.
 Requested convergence on             energy=1.00D-02.
 No special actions if energy rises.
 EnCoef did     4 forward-backward iterations
 EnCoef did     1 forward-backward iterations
 SCF Done:  E(RB+HF-LYP) =  -2750.11774712     A.U. after    9 cycles
             Convg  =    0.4753D-04             -V/T =  2.0029
             S**2   =   0.0000

 **********************************************************************

            Population analysis using the SCF density.

 **********************************************************************

 Orbital symmetries:
       Occupied  (A) (A) (A) (A) (A) (A) (A) (A) (A) (A) (A) (A)
                 (A) (A) (A) (A) (A) (A) (A) (A) (A) (A) (A) (A)
                 (A) (A) (A) (A) (A) (A) (A) (A) (A) (A) (A) (A)
                 (A) (A) (A) (A) (A) (A) (A) (A) (A) (A) (A) (A)
                 (A) (A) (A) (A) (A) (A) (A) (A) (A)
       Virtual   (A) (A) (A) (A) (A) (A) (A) (A) (A) (A) (A) (A)
                 (A) (A) (A) (A) (A) (A) (A) (A) (A) (A) (A) (A)
                 (A) (A) (A) (A) (A) (A) (A) (A) (A) (A) (A) (A)
                 (A) (A) (A) (A) (A) (A) (A) (A) (A) (A) (A) (A)
                 (A) (A) (A) (A) (A) (A) (A) (A) (A) (A) (A) (A)
                 (A) (A) (A) (A) (A) (A) (A) (A) (A) (A) (A) (A)
                 (A) (A) (A) (A) (A) (A) (A) (A) (A) (A) (A) (A)
                 (A) (A) (A) (A) (A) (A) (A) (A) (A) (A) (A) (A)
                 (A) (A) (A) (A) (A) (A) (A) (A) (A) (A) (A) (A)
                 (A) (A) (A) (A) (A) (A) (A) (A) (A) (A) (A) (A)
                 (A) (A) (A) (A) (A) (A) (A) (A) (A) (A) (A) (A)
                 (A) (A) (A) (A) (A) (A) (A) (A) (A) (A)
 The electronic state is 1-A.
 Alpha  occ. eigenvalues -- -145.52027-145.50135-145.49999 -77.26818 -19.27039
 Alpha  occ. eigenvalues --  -19.23362 -19.23085 -19.21554 -19.13356 -15.58786
 Alpha  occ. eigenvalues --  -15.57007 -15.56882 -12.72005 -12.71996 -12.71905
 Alpha  occ. eigenvalues --  -12.70262 -12.70187 -12.70136 -12.70077 -12.70065
 Alpha  occ. eigenvalues --  -12.69948  -6.72117  -4.88490  -4.88432  -4.87948
 Alpha  occ. eigenvalues --   -1.95841  -1.94210  -1.94095  -1.24332  -1.23291
 Alpha  occ. eigenvalues --   -1.22954  -1.22081  -1.21964  -1.21851  -1.21617
 Alpha  occ. eigenvalues --   -1.21250  -1.20760  -1.12235  -1.06807  -1.02501
 Alpha  occ. eigenvalues --   -0.89735  -0.87635  -0.64499  -0.53847  -0.52074
 Alpha  occ. eigenvalues --   -0.51862  -0.46759  -0.45781  -0.42943  -0.42774
 Alpha  occ. eigenvalues --   -0.38457  -0.35820  -0.33768  -0.32242  -0.31971
 Alpha  occ. eigenvalues --   -0.31708  -0.30413
 Alpha virt. eigenvalues --   -0.20010  -0.18998  -0.18429  -0.12840  -0.12140
 Alpha virt. eigenvalues --   -0.11162  -0.10331  -0.10084  -0.09329  -0.08690
 Alpha virt. eigenvalues --   -0.07752  -0.07643  -0.07112  -0.06323  -0.05695
 Alpha virt. eigenvalues --   -0.05061  -0.04874  -0.04575  -0.04311  -0.04196
 Alpha virt. eigenvalues --   -0.03961  -0.03756  -0.03498  -0.03189  -0.03141
 Alpha virt. eigenvalues --   -0.02920  -0.01605  -0.01000   0.00063   0.01439
 Alpha virt. eigenvalues --    0.01915   0.02494   0.03484   0.03937   0.04125
 Alpha virt. eigenvalues --    0.04579   0.05241   0.05531   0.06149   0.06404
 Alpha virt. eigenvalues --    0.06688   0.07098   0.07686   0.08303   0.08719
 Alpha virt. eigenvalues --    0.09587   0.09963   0.10046   0.11190   0.12148
 Alpha virt. eigenvalues --    0.12635   0.13358   0.13923   0.15351   0.17089
 Alpha virt. eigenvalues --    0.18506   0.19215   0.20270   0.21193   0.21671
 Alpha virt. eigenvalues --    0.22688   0.23723   0.24070   0.25040   0.26024
 Alpha virt. eigenvalues --    0.26233   0.26844   0.28291   0.28700   0.31193
 Alpha virt. eigenvalues --    0.31772   0.34732   0.38053   0.38408   0.40012
 Alpha virt. eigenvalues --    0.40328   0.42819   0.45601   0.49169   0.52336
 Alpha virt. eigenvalues --    0.53181   0.57991   0.59052   0.64379   0.67557
 Alpha virt. eigenvalues --    0.71081   0.74272   0.86311   0.90760   0.91940
 Alpha virt. eigenvalues --    0.96091   1.09626   1.12168   1.14428   1.15823
 Alpha virt. eigenvalues --    1.16276   1.17819   1.19678   1.20742   1.21862
 Alpha virt. eigenvalues --    1.23112   1.24845   1.26840   1.27474   1.30782
 Alpha virt. eigenvalues --    1.33377   1.45927   1.48261   1.54971   1.56471
 Alpha virt. eigenvalues --    1.60566   1.64724   1.68837   1.74925   1.75877
 Alpha virt. eigenvalues --    1.78279   1.79144   1.81835   1.82590   1.83637
 Alpha virt. eigenvalues --    1.84095   1.84627   1.85914   1.88471   1.91502
 Alpha virt. eigenvalues --    1.92985   1.95323   1.95839   2.00516   2.03258
 Alpha virt. eigenvalues --    2.24024   2.25453   2.38463   2.52916   2.58728
 Alpha virt. eigenvalues --    3.09610   3.50835   3.95613   3.98352   4.09415
 Alpha virt. eigenvalues --    4.10625   4.28683
          Condensed to atoms (all electrons):
              1          2          3          4          5          6
     1  Ca  18.286936   0.223303  -0.013751  -0.065315   0.006898   0.004612
     2  O    0.223303   8.761086   0.220486  -0.056811   0.003891   0.000377
     3  Ca  -0.013751   0.220486  18.278140  -0.017913   0.004231   0.001008
     4  P   -0.065315  -0.056811  -0.017913  15.325558  -0.097246  -0.083627
     5  O    0.006898   0.003891   0.004231  -0.097246   8.411669   0.066901
     6  O    0.004612   0.000377   0.001008  -0.083627   0.066901   8.316104
     7  O    0.107321   0.011985   0.015114  -0.456979   0.004503   0.023818
     8  Ca  -0.015407   0.001513  -0.011561   0.031569   0.058657   0.153556
     9  O    0.025862   0.012699   0.093972  -0.358834   0.032340   0.009840
              7          8          9
     1  Ca   0.107321  -0.015407   0.025862
     2  O    0.011985   0.001513   0.012699
     3  Ca   0.015114  -0.011561   0.093972
     4  P   -0.456979   0.031569  -0.358834
     5  O    0.004503   0.058657   0.032340
     6  O    0.023818   0.153556   0.009840
     7  O    9.110394   0.053148   0.079476
     8  Ca   0.053148  18.293318   0.034962
     9  O    0.079476   0.034962   9.007599
 Mulliken atomic charges:
              1
     1  Ca   1.439542
     2  O   -1.178529
     3  Ca   1.430275
     4  P    0.779598
     5  O   -0.491845
     6  O   -0.492589
     7  O   -0.948780
     8  Ca   1.400245
     9  O   -0.937916
 Sum of Mulliken charges=   1.00000
 Atomic charges with hydrogens summed into heavy atoms:
              1
     1  Ca   1.439542
     2  O   -1.178529
     3  Ca   1.430275
     4  P    0.779598
     5  O   -0.491845
     6  O   -0.492589
     7  O   -0.948780
     8  Ca   1.400245
     9  O   -0.937916
 Sum of Mulliken charges=   1.00000
 Electronic spatial extent (au):  <R**2>=  2430.4041
 Charge=     1.0000 electrons
 Dipole moment (field-independent basis, Debye):
    X=     4.9715    Y=    -1.7053    Z=     8.6780  Tot=    10.1455
 Quadrupole moment (field-independent basis, Debye-Ang):
   XX=   -75.2111   YY=   -34.6811   ZZ=   -68.0788
   XY=     4.3899   XZ=   -29.7755   YZ=    -0.7790
 Traceless Quadrupole moment (field-independent basis, Debye-Ang):
   XX=   -15.8874   YY=    24.6426   ZZ=    -8.7551
   XY=     4.3899   XZ=   -29.7755   YZ=    -0.7790
 Octapole moment (field-independent basis, Debye-Ang**2):
  XXX=   -31.1849  YYY=    20.0553  ZZZ=    41.4063  XYY=   113.4163
  XXY=   -46.9482  XXZ=    63.0326  XZZ=   -20.1524  YZZ=    -3.2182
  YYZ=     9.4489  XYZ=     7.1869
 Hexadecapole moment (field-independent basis, Debye-Ang**3):
 XXXX= -2124.9636 YYYY=  -429.0467 ZZZZ=  -293.0589 XXXY=     3.8991
 XXXZ=  -255.1147 YYYX=    25.3046 YYYZ=     6.0073 ZZZX=   -85.6490
 ZZZY=    -5.1946 XXYY=  -199.0551 XXZZ=  -304.6486 YYZZ=  -144.6782
 XXYZ=    -3.4852 YYXZ=   -16.8814 ZZXY=     8.2619
 N-N= 1.004884770233D+03 E-N=-8.510951993476D+03  KE= 2.742148596507D+03
 Merz-Kollman atomic radii used.
 Read replacement radii for each type of atom:
 Rad(20) =   1.188000000000D+00
 Atom Element Radius
    1    20    1.19
    2     8    1.40
    3    20    1.19
    4    15    1.80
    5     8    1.40
    6     8    1.40
    7     8    1.40
    8    20    1.19
    9     8    1.40

 **********************************************************************

            Electrostatic Properties Using The SCF Density

 **********************************************************************

       Atomic Center    1 is at   2.016212 -1.745604 -0.018800
       Atomic Center    2 is at   2.874987  0.176619  0.254910
       Atomic Center    3 is at   1.713442  1.946385  0.105430
       Atomic Center    4 is at  -0.445202 -0.068881 -0.944830
       Atomic Center    5 is at  -2.113722 -0.300515 -1.214080
       Atomic Center    6 is at  -3.114464  0.671632 -0.623410
       Atomic Center    7 is at  -0.250799 -1.363190  0.084540
       Atomic Center    8 is at  -2.183752 -0.272895  1.152490
       Atomic Center    9 is at  -0.426006  1.124890  0.171790
     765 points will be used for fitting atomic charges
 Fitting point charges to eletrostatic potential
 Charges from ESP fit, RMS=   0.00702 RRMS=   0.04465:
 Charge=   1.00000 Dipole=     5.0132    -1.8993     8.7397 Tot=    10.2529
              1
     1  Ca   1.707910
     2  O   -1.555562
     3  Ca   1.690560
     4  P    0.131408
     5  O   -0.129804
     6  O   -0.614822
     7  O   -1.004475
     8  Ca   1.636652
     9  O   -0.861867
 -----------------------------------------------------------------

              Electrostatic Properties (Atomic Units)

 -----------------------------------------------------------------
    Center     Electric         -------- Electric Field --------
               Potential          X             Y             Z
 -----------------------------------------------------------------
    1 Atom    -80.040618
    2 Atom    -22.326710
    3 Atom    -80.039476
    4 Atom    -53.945324
    5 Atom    -22.200181
    6 Atom    -22.259521
    7 Atom    -22.228812
    8 Atom    -80.021343
    9 Atom    -22.231501
 -----------------------------------------------------------------
 1\1\GINC-N027\SP\RB3LYP\6-31+G(d,p)\Ca3O5P1(1+)\TIMN\12-Jun-2015\0\\# 
 b3lyp/6-31+G(d,p) int=ultrafine pop=(ReadRadii,MK)\\mol_17.29.2.pdbcc_
 plusQ.z58611.zip.xyz\\1,1\Ca,0,2.01621,-1.74561,-0.0188\O,0,2.87499,0.
 17661,0.25491\Ca,0,1.71345,1.94638,0.10543\P,0,-0.4452,-0.06888,-0.944
 83\O,0,-2.11372,-0.30051,-1.21408\O,0,-3.11446,0.67164,-0.62341\O,0,-0
 .2508,-1.36319,0.08454\Ca,0,-2.18375,-0.27289,1.15249\O,0,-0.426,1.124
 89,0.17179\\Version=EM64T-G03RevE.01\State=1-A\HF=-2750.1177471\RMSD=4
 .753e-05\Thermal=0.\Dipole=1.9559253,-0.6709383,3.4141706\PG=C01 [X(Ca
 3O5P1)]\\@


 PICNIC:  A SNACK IN THE GRASS.
 Job cpu time:  0 days  0 hours  2 minutes 15.1 seconds.
 File lengths (MBytes):  RWF=     36 Int=      0 D2E=      0 Chk=     11 Scr=      1
 Normal termination of Gaussian 03 at Fri Jun 12 18:12:57 2015.
