 Entering Gaussian System, Link 0=/home/timn/tmp/g03.e01/g03
 Input=mol_17.22.46.pdbc_plusQ.z58196.zip.xyz.gjf
 Output=mol_17.22.46.pdbc_plusQ.z58196.zip.xyz.out
 Initial command:
 /home/timn/tmp/g03.e01/l1.exe /home/timn/tmp/g03.e01/Gau-18849.inp -scrdir=/home/timn/tmp/g03.e01/
 Default is to use a total of   2 processors:
                                2 via shared-memory
                                1 via Linda
 Entering Link 1 = /home/timn/tmp/g03.e01/l1.exe PID=     18850.
  
 Copyright (c) 1988,1990,1992,1993,1995,1998,2003,2004,2007, Gaussian, Inc.
                  All Rights Reserved.
  
 This is the Gaussian(R) 03 program.  It is based on the
 the Gaussian(R) 98 system (copyright 1998, Gaussian, Inc.),
 the Gaussian(R) 94 system (copyright 1995, Gaussian, Inc.),
 the Gaussian 92(TM) system (copyright 1992, Gaussian, Inc.),
 the Gaussian 90(TM) system (copyright 1990, Gaussian, Inc.),
 the Gaussian 88(TM) system (copyright 1988, Gaussian, Inc.),
 the Gaussian 86(TM) system (copyright 1986, Carnegie Mellon
 University), and the Gaussian 82(TM) system (copyright 1983,
 Carnegie Mellon University). Gaussian is a federally registered
 trademark of Gaussian, Inc.
  
 This software contains proprietary and confidential information,
 including trade secrets, belonging to Gaussian, Inc.
  
 This software is provided under written license and may be
 used, copied, transmitted, or stored only in accord with that
 written license.
  
 The following legend is applicable only to US Government
 contracts under FAR:
  
                    RESTRICTED RIGHTS LEGEND
  
 Use, reproduction and disclosure by the US Government is
 subject to restrictions as set forth in subparagraphs (a)
 and (c) of the Commercial Computer Software - Restricted
 Rights clause in FAR 52.227-19.
  
 Gaussian, Inc.
 340 Quinnipiac St., Bldg. 40, Wallingford CT 06492
  
  
 ---------------------------------------------------------------
 Warning -- This program may not be used in any manner that
 competes with the business of Gaussian, Inc. or will provide
 assistance to any competitor of Gaussian, Inc.  The licensee
 of this program is prohibited from giving any competitor of
 Gaussian, Inc. access to this program.  By using this program,
 the user acknowledges that Gaussian, Inc. is engaged in the
 business of creating and licensing software in the field of
 computational chemistry and represents and warrants to the
 licensee that it is not a competitor of Gaussian, Inc. and that
 it will not use this program in any manner prohibited above.
 ---------------------------------------------------------------
  

 Cite this work as:
 Gaussian 03, Revision E.01,
 M. J. Frisch, G. W. Trucks, H. B. Schlegel, G. E. Scuseria, 
 M. A. Robb, J. R. Cheeseman, J. A. Montgomery, Jr., T. Vreven, 
 K. N. Kudin, J. C. Burant, J. M. Millam, S. S. Iyengar, J. Tomasi, 
 V. Barone, B. Mennucci, M. Cossi, G. Scalmani, N. Rega, 
 G. A. Petersson, H. Nakatsuji, M. Hada, M. Ehara, K. Toyota, 
 R. Fukuda, J. Hasegawa, M. Ishida, T. Nakajima, Y. Honda, O. Kitao, 
 H. Nakai, M. Klene, X. Li, J. E. Knox, H. P. Hratchian, J. B. Cross, 
 V. Bakken, C. Adamo, J. Jaramillo, R. Gomperts, R. E. Stratmann, 
 O. Yazyev, A. J. Austin, R. Cammi, C. Pomelli, J. W. Ochterski, 
 P. Y. Ayala, K. Morokuma, G. A. Voth, P. Salvador, J. J. Dannenberg, 
 V. G. Zakrzewski, S. Dapprich, A. D. Daniels, M. C. Strain, 
 O. Farkas, D. K. Malick, A. D. Rabuck, K. Raghavachari, 
 J. B. Foresman, J. V. Ortiz, Q. Cui, A. G. Baboul, S. Clifford, 
 J. Cioslowski, B. B. Stefanov, G. Liu, A. Liashenko, P. Piskorz, 
 I. Komaromi, R. L. Martin, D. J. Fox, T. Keith, M. A. Al-Laham, 
 C. Y. Peng, A. Nanayakkara, M. Challacombe, P. M. W. Gill, 
 B. Johnson, W. Chen, M. W. Wong, C. Gonzalez, and J. A. Pople, 
 Gaussian, Inc., Wallingford CT, 2004.
 
 ******************************************
 Gaussian 03:  EM64T-G03RevE.01 11-Sep-2007
                12-Jun-2015 
 ******************************************
 %nproc=2
 Will use up to    2 processors via shared memory.
 Default route:  MP2=Direct MaxDisk=2000MB
 ----------------------------------------------------
 # b3lyp/6-31+G(d,p) int=ultrafine pop=(ReadRadii,MK)
 ----------------------------------------------------

 Warning!  SCF SP cutoffs with diffuse functions may be unreliable.
 Consider SCF=Tight

 1/38=1/1;
 2/17=6,18=5,40=1/2;
 3/5=1,6=6,7=111,11=2,16=1,25=1,30=1,74=-5,75=5/1,2,3;
 4//1;
 5/5=2,32=1,38=5/2;
 6/7=2,8=2,9=2,10=2,15=8,20=101,28=1/1,2;
 99/5=1,9=1/99;
 --------------------------------------
 mol_17.22.46.pdbc_plusQ.z58196.zip.xyz
 --------------------------------------
 Symbolic Z-matrix:
 Charge =  1 Multiplicity = 1
 O                    -3.46118   3.11      0. 
 O                    -4.236     1.72916   0. 
 O                    -2.33907   0.18977   0. 
 P                    -2.59902   1.71857   0. 
 O                    -1.15872   2.29257   0. 
 Ca                    0.        0.25908   0. 
 Ca                    3.94963  -0.68445   0. 
 O                     1.7597   -1.11322   0. 
 Ca                    1.77374  -3.34687   0. 
 
                          Input orientation:                          
 ---------------------------------------------------------------------
 Center     Atomic     Atomic              Coordinates (Angstroms)
 Number     Number      Type              X           Y           Z
 ---------------------------------------------------------------------
    1          8             0       -3.461180    3.110000    0.000000
    2          8             0       -4.236000    1.729160    0.000000
    3          8             0       -2.339070    0.189770    0.000000
    4         15             0       -2.599020    1.718570    0.000000
    5          8             0       -1.158720    2.292570    0.000000
    6         20             0        0.000000    0.259080    0.000000
    7         20             0        3.949630   -0.684450    0.000000
    8          8             0        1.759700   -1.113220    0.000000
    9         20             0        1.773740   -3.346870    0.000000
 ---------------------------------------------------------------------
                    Distance matrix (angstroms):
                    1          2          3          4          5
     1  O    0.000000
     2  O    1.583371   0.000000
     3  O    3.128398   2.442962   0.000000
     4  P    1.636886   1.637014   1.550743   0.000000
     5  O    2.443259   3.128431   2.411430   1.550464   0.000000
     6  Ca   4.484140   4.483841   2.340097   2.980774   2.340452
     7  Ca   8.325741   8.534052   6.349174   6.975623   5.912520
     8  O    6.715145   6.635325   4.300895   5.197834   4.485151
     9  Ca   8.312374   7.866578   5.424300   6.691765   6.356304
                    6          7          8          9
     6  Ca   0.000000
     7  Ca   4.060767   0.000000
     8  O    2.231536   2.231510   0.000000
     9  Ca   4.018585   3.438456   2.233694   0.000000
 Stoichiometry    Ca3O5P(1+)
 Framework group  CS[SG(Ca3O5P)]
 Deg. of freedom    15
 Full point group                 CS
 Largest Abelian subgroup         CS      NOp   2
 Largest concise Abelian subgroup C1      NOp   1
                         Standard orientation:                         
 ---------------------------------------------------------------------
 Center     Atomic     Atomic              Coordinates (Angstroms)
 Number     Number      Type              X           Y           Z
 ---------------------------------------------------------------------
    1          8             0       -3.461186    3.109993    0.000000
    2          8             0       -4.236003    1.729152    0.000000
    3          8             0       -2.339070    0.189765    0.000000
    4         15             0       -2.599023    1.718565    0.000000
    5          8             0       -1.158724    2.292568    0.000000
    6         20             0        0.000000    0.259080    0.000000
    7         20             0        3.949632   -0.684442    0.000000
    8          8             0        1.759703   -1.113216    0.000000
    9         20             0        1.773747   -3.346866    0.000000
 ---------------------------------------------------------------------
 Rotational constants (GHZ):      1.6663058      0.2340070      0.2051910
 Standard basis: 6-31+G(d,p) (6D, 7F)
 There are   147 symmetry adapted basis functions of A'  symmetry.
 There are    52 symmetry adapted basis functions of A"  symmetry.
 Integral buffers will be    131072 words long.
 Raffenetti 2 integral format.
 Two-electron integral symmetry is turned on.
   199 basis functions,   456 primitive gaussians,   199 cartesian basis functions
    57 alpha electrons       57 beta electrons
       nuclear repulsion energy       869.7256181329 Hartrees.
 NAtoms=    9 NActive=    9 NUniq=    9 SFac= 7.50D-01 NAtFMM=   80 NAOKFM=F Big=F
 One-electron integrals computed using PRISM.
 NBasis=   199 RedAO= T  NBF=   147    52
 NBsUse=   199 1.00D-06 NBFU=   147    52
 Harris functional with IExCor=  402 diagonalized for initial guess.
 ExpMin= 7.10D-03 ExpMax= 3.53D+04 ExpMxC= 5.30D+03 IAcc=3 IRadAn=         5 AccDes= 0.00D+00
 HarFok:  IExCor= 402 AccDes= 0.00D+00 IRadAn=         5 IDoV=1
 ScaDFX=  1.000000  1.000000  1.000000  1.000000
 Initial guess orbital symmetries:
       Occupied  (A') (A') (A') (A') (A') (A') (A') (A') (A') (A')
                 (A') (A') (A') (A') (A') (A") (A') (A") (A') (A')
                 (A") (A') (A') (A') (A") (A') (A') (A') (A') (A')
                 (A') (A') (A') (A') (A") (A') (A") (A") (A') (A')
                 (A') (A') (A') (A') (A') (A') (A') (A") (A') (A")
                 (A") (A') (A") (A') (A') (A") (A')
       Virtual   (A') (A') (A') (A") (A') (A") (A') (A') (A") (A")
                 (A') (A') (A') (A') (A') (A") (A') (A') (A') (A")
                 (A") (A') (A') (A') (A') (A') (A") (A') (A') (A')
                 (A') (A") (A') (A') (A") (A") (A') (A') (A') (A")
                 (A') (A") (A") (A') (A") (A') (A') (A") (A') (A')
                 (A') (A") (A') (A') (A') (A") (A') (A') (A") (A')
                 (A') (A') (A") (A") (A') (A') (A') (A') (A') (A')
                 (A') (A") (A') (A') (A') (A") (A') (A') (A') (A')
                 (A') (A") (A') (A") (A') (A') (A') (A') (A') (A")
                 (A') (A') (A") (A") (A") (A') (A') (A") (A') (A')
                 (A') (A') (A') (A') (A') (A') (A') (A") (A') (A')
                 (A') (A') (A") (A") (A") (A') (A') (A") (A") (A')
                 (A') (A") (A') (A') (A') (A") (A") (A') (A') (A')
                 (A") (A') (A') (A') (A') (A') (A') (A') (A') (A')
                 (A') (A')
 The electronic state of the initial guess is 1-A'.
 Requested convergence on RMS density matrix=1.00D-04 within 128 cycles.
 Requested convergence on MAX density matrix=1.00D-02.
 Requested convergence on             energy=1.00D-02.
 No special actions if energy rises.
 EnCoef did     3 forward-backward iterations
 EnCoef did   100 forward-backward iterations
 EnCoef did   100 forward-backward iterations
 EnCoef did   100 forward-backward iterations
 SCF Done:  E(RB+HF-LYP) =  -2750.02061791     A.U. after   11 cycles
             Convg  =    0.7841D-04             -V/T =  2.0029
             S**2   =   0.0000

 **********************************************************************

            Population analysis using the SCF density.

 **********************************************************************

 Orbital symmetries:
       Occupied  (A') (A') (A') (A') (A') (A') (A') (A') (A') (A')
                 (A') (A') (A') (A") (A') (A") (A') (A') (A") (A')
                 (A') (A') (A") (A') (A') (A') (A') (A') (A') (A")
                 (A") (A') (A') (A') (A') (A") (A') (A') (A') (A')
                 (A') (A') (A') (A') (A") (A') (A') (A") (A') (A')
                 (A") (A') (A') (A") (A') (A") (A')
       Virtual   (A') (A') (A') (A') (A") (A") (A') (A') (A") (A')
                 (A") (A') (A') (A') (A') (A") (A') (A') (A') (A")
                 (A') (A") (A') (A') (A') (A') (A") (A') (A') (A')
                 (A') (A") (A') (A') (A') (A") (A") (A") (A') (A')
                 (A") (A') (A") (A') (A") (A') (A') (A') (A") (A')
                 (A") (A') (A") (A') (A') (A') (A') (A') (A") (A')
                 (A') (A") (A") (A') (A') (A') (A') (A') (A") (A')
                 (A') (A') (A') (A') (A') (A") (A') (A') (A') (A')
                 (A') (A") (A") (A') (A') (A') (A') (A') (A') (A')
                 (A') (A") (A") (A") (A') (A") (A") (A') (A') (A')
                 (A') (A') (A') (A') (A') (A') (A') (A") (A') (A')
                 (A') (A') (A') (A') (A") (A") (A") (A") (A") (A")
                 (A') (A') (A') (A') (A') (A") (A") (A') (A') (A")
                 (A') (A') (A') (A') (A') (A') (A') (A') (A') (A')
                 (A') (A')
 The electronic state is 1-A'.
 Alpha  occ. eigenvalues -- -145.53615-145.53578-145.50047 -77.37205 -19.32285
 Alpha  occ. eigenvalues --  -19.32239 -19.25991 -19.25965 -19.21484 -15.60596
 Alpha  occ. eigenvalues --  -15.60566 -15.56994 -12.73788 -12.73786 -12.73757
 Alpha  occ. eigenvalues --  -12.73755 -12.73665 -12.73635 -12.70273 -12.70211
 Alpha  occ. eigenvalues --  -12.70005  -6.81567  -4.98350  -4.97798  -4.97566
 Alpha  occ. eigenvalues --   -1.97724  -1.97675  -1.94383  -1.25378  -1.25212
 Alpha  occ. eigenvalues --   -1.25160  -1.25092  -1.24973  -1.24448  -1.24412
 Alpha  occ. eigenvalues --   -1.22436  -1.22165  -1.21706  -1.12129  -1.07019
 Alpha  occ. eigenvalues --   -0.97616  -0.96323  -0.68084  -0.57395  -0.56921
 Alpha  occ. eigenvalues --   -0.55209  -0.55010  -0.48187  -0.46315  -0.44357
 Alpha  occ. eigenvalues --   -0.43671  -0.42337  -0.42003  -0.40029  -0.39707
 Alpha  occ. eigenvalues --   -0.38335  -0.28897
 Alpha virt. eigenvalues --   -0.22639  -0.19565  -0.16883  -0.16630  -0.16498
 Alpha virt. eigenvalues --   -0.15312  -0.15091  -0.14323  -0.13788  -0.11434
 Alpha virt. eigenvalues --   -0.11378  -0.09504  -0.08517  -0.07810  -0.06459
 Alpha virt. eigenvalues --   -0.06025  -0.05685  -0.05561  -0.04993  -0.04849
 Alpha virt. eigenvalues --   -0.04662  -0.04506  -0.03780  -0.03562  -0.03251
 Alpha virt. eigenvalues --   -0.03095  -0.01921  -0.01798  -0.00837   0.00530
 Alpha virt. eigenvalues --    0.00837   0.01195   0.01398   0.02415   0.02699
 Alpha virt. eigenvalues --    0.02994   0.03039   0.03672   0.03704   0.04055
 Alpha virt. eigenvalues --    0.04802   0.05342   0.05455   0.05491   0.05921
 Alpha virt. eigenvalues --    0.06058   0.06718   0.07713   0.08087   0.08590
 Alpha virt. eigenvalues --    0.10792   0.11441   0.11701   0.11751   0.12815
 Alpha virt. eigenvalues --    0.14326   0.15254   0.16704   0.16727   0.17478
 Alpha virt. eigenvalues --    0.18996   0.19370   0.20638   0.20732   0.21732
 Alpha virt. eigenvalues --    0.23447   0.24145   0.25882   0.27747   0.28560
 Alpha virt. eigenvalues --    0.29277   0.31912   0.32474   0.33298   0.33810
 Alpha virt. eigenvalues --    0.34437   0.37178   0.38268   0.40876   0.44905
 Alpha virt. eigenvalues --    0.48905   0.50329   0.52492   0.52768   0.56683
 Alpha virt. eigenvalues --    0.61753   0.65885   0.73662   0.91358   0.97827
 Alpha virt. eigenvalues --    0.99851   1.06207   1.07166   1.09256   1.09468
 Alpha virt. eigenvalues --    1.10622   1.12075   1.12898   1.15422   1.18588
 Alpha virt. eigenvalues --    1.19643   1.23345   1.24933   1.26581   1.30639
 Alpha virt. eigenvalues --    1.35010   1.37181   1.44857   1.48152   1.50378
 Alpha virt. eigenvalues --    1.55388   1.58397   1.63422   1.65341   1.67654
 Alpha virt. eigenvalues --    1.68936   1.69116   1.74474   1.76282   1.76645
 Alpha virt. eigenvalues --    1.77560   1.82362   1.83436   1.92366   1.94750
 Alpha virt. eigenvalues --    1.94940   1.96412   1.96861   2.03469   2.12813
 Alpha virt. eigenvalues --    2.16363   2.46820   2.49154   2.59688   2.81632
 Alpha virt. eigenvalues --    3.03401   3.56929   3.85134   3.95943   4.01058
 Alpha virt. eigenvalues --    4.05606   4.13817
          Condensed to atoms (all electrons):
              1          2          3          4          5          6
     1  O    8.568911  -0.181921  -0.228652   0.134881   0.078834   0.004272
     2  O   -0.181921   8.572603   0.081714   0.126278  -0.229722   0.010360
     3  O   -0.228652   0.081714   9.075624   0.203925  -0.323171   0.042826
     4  P    0.134881   0.126278   0.203925  12.683608   0.200445  -0.058670
     5  O    0.078834  -0.229722  -0.323171   0.200445   9.073454   0.044796
     6  Ca   0.004272   0.010360   0.042826  -0.058670   0.044796  18.374771
     7  Ca  -0.004034   0.003210   0.002646  -0.012062  -0.004957  -0.046990
     8  O   -0.000140  -0.000131   0.001459   0.005800   0.001609   0.166740
     9  Ca   0.005759  -0.006270  -0.007918  -0.011705   0.006261  -0.048461
              7          8          9
     1  O   -0.004034  -0.000140   0.005759
     2  O    0.003210  -0.000131  -0.006270
     3  O    0.002646   0.001459  -0.007918
     4  P   -0.012062   0.005800  -0.011705
     5  O   -0.004957   0.001609   0.006261
     6  Ca  -0.046990   0.166740  -0.048461
     7  Ca  19.190112  -0.182275   0.416048
     8  O   -0.182275   9.277217  -0.168729
     9  Ca   0.416048  -0.168729  19.139588
 Mulliken atomic charges:
              1
     1  O   -0.377910
     2  O   -0.376121
     3  O   -0.848453
     4  P    1.727499
     5  O   -0.847549
     6  Ca   1.510356
     7  Ca   0.638302
     8  O   -1.101550
     9  Ca   0.675427
 Sum of Mulliken charges=   1.00000
 Atomic charges with hydrogens summed into heavy atoms:
              1
     1  O   -0.377910
     2  O   -0.376121
     3  O   -0.848453
     4  P    1.727499
     5  O   -0.847549
     6  Ca   1.510356
     7  Ca   0.638302
     8  O   -1.101550
     9  Ca   0.675427
 Sum of Mulliken charges=   1.00000
 Electronic spatial extent (au):  <R**2>=  4535.9738
 Charge=     1.0000 electrons
 Dipole moment (field-independent basis, Debye):
    X=    14.4527    Y=    -9.3707    Z=     0.0000  Tot=    17.2247
 Quadrupole moment (field-independent basis, Debye-Ang):
   XX=   -59.6965   YY=   -62.5619   ZZ=   -82.8474
   XY=    -2.6681   XZ=     0.0000   YZ=     0.0000
 Traceless Quadrupole moment (field-independent basis, Debye-Ang):
   XX=     8.6721   YY=     5.8067   ZZ=   -14.4788
   XY=    -2.6681   XZ=     0.0000   YZ=     0.0000
 Octapole moment (field-independent basis, Debye-Ang**2):
  XXX=   209.0153  YYY=  -150.2720  ZZZ=     0.0000  XYY=    48.8125
  XXY=   -17.5882  XXZ=     0.0000  XZZ=   -24.2507  YZZ=    17.1858
  YYZ=     0.0000  XYZ=     0.0000
 Hexadecapole moment (field-independent basis, Debye-Ang**3):
 XXXX= -3349.1385 YYYY= -1740.5300 ZZZZ=  -148.0023 XXXY=  1137.0337
 XXXZ=     0.0000 YYYX=   923.9803 YYYZ=     0.0000 ZZZX=     0.0000
 ZZZY=     0.0000 XXYY= -1082.3092 XXZZ=  -662.4136 YYZZ=  -379.0844
 XXYZ=     0.0000 YYXZ=     0.0000 ZZXY=   334.5323
 N-N= 8.697256181329D+02 E-N=-8.235892683627D+03  KE= 2.742165155846D+03
 Symmetry A'   KE= 2.474900096209D+03
 Symmetry A"   KE= 2.672650596366D+02
 Merz-Kollman atomic radii used.
 Read replacement radii for each type of atom:
 Rad(20) =   1.188000000000D+00
 Atom Element Radius
    1     8    1.40
    2     8    1.40
    3     8    1.40
    4    15    1.80
    5     8    1.40
    6    20    1.19
    7    20    1.19
    8     8    1.40
    9    20    1.19

 **********************************************************************

            Electrostatic Properties Using The SCF Density

 **********************************************************************

       Atomic Center    1 is at  -3.461186  3.109993  0.000000
       Atomic Center    2 is at  -4.236003  1.729152  0.000000
       Atomic Center    3 is at  -2.339070  0.189765  0.000000
       Atomic Center    4 is at  -2.599023  1.718565  0.000000
       Atomic Center    5 is at  -1.158724  2.292568  0.000000
       Atomic Center    6 is at   0.000000  0.259080  0.000000
       Atomic Center    7 is at   3.949632 -0.684442  0.000000
       Atomic Center    8 is at   1.759703 -1.113216  0.000000
       Atomic Center    9 is at   1.773747 -3.346866  0.000000
     870 points will be used for fitting atomic charges
 Fitting point charges to eletrostatic potential
 Charges from ESP fit, RMS=   0.02051 RRMS=   0.13009:
 Charge=   1.00000 Dipole=    18.9856   -12.6735     0.0000 Tot=    22.8270
              1
     1  O   -0.294574
     2  O   -0.314329
     3  O   -0.870666
     4  P    1.427812
     5  O   -0.914187
     6  Ca   1.726540
     7  Ca   0.814394
     8  O   -1.426344
     9  Ca   0.851353
 -----------------------------------------------------------------

              Electrostatic Properties (Atomic Units)

 -----------------------------------------------------------------
    Center     Electric         -------- Electric Field --------
               Potential          X             Y             Z
 -----------------------------------------------------------------
    1 Atom    -22.156828
    2 Atom    -22.155244
    3 Atom    -22.206520
    4 Atom    -53.835221
    5 Atom    -22.208355
    6 Atom    -80.039728
    7 Atom    -80.010035
    8 Atom    -22.249543
    9 Atom    -80.005294
 -----------------------------------------------------------------
 1\1\GINC-N027\SP\RB3LYP\6-31+G(d,p)\Ca3O5P1(1+)\TIMN\12-Jun-2015\0\\# 
 b3lyp/6-31+G(d,p) int=ultrafine pop=(ReadRadii,MK)\\mol_17.22.46.pdbc_
 plusQ.z58196.zip.xyz\\1,1\O,0,-3.46118,3.11,0.\O,0,-4.236,1.72916,0.\O
 ,0,-2.33907,0.18977,0.\P,0,-2.59902,1.71857,0.\O,0,-1.15872,2.29257,0.
 \Ca,0,0.,0.25908,0.\Ca,0,3.94963,-0.68445,0.\O,0,1.7597,-1.11322,0.\Ca
 ,0,1.77374,-3.34687,0.\\Version=EM64T-G03RevE.01\State=1-A'\HF=-2750.0
 206179\RMSD=7.841e-05\Thermal=0.\Dipole=5.686125,-3.6867172,0.\PG=CS [
 SG(Ca3O5P1)]\\@


 THERE'S NOTHING WRONG WITH FOLLOWING A TRAIN OF THOUGHT...
 AS LONG AS IT ULTIMATELY PULLS INTO THE STATION.
 Job cpu time:  0 days  0 hours  1 minutes 46.7 seconds.
 File lengths (MBytes):  RWF=     36 Int=      0 D2E=      0 Chk=     11 Scr=      1
 Normal termination of Gaussian 03 at Fri Jun 12 17:50:38 2015.
