 Entering Gaussian System, Link 0=/home/timn/tmp/g03.e01/g03
 Input=mol_16.4.51.pdbcc_plusQ.out.z51602.zip.xyz.gjf
 Output=mol_16.4.51.pdbcc_plusQ.out.z51602.zip.xyz.out
 Initial command:
 /home/timn/tmp/g03.e01/l1.exe /home/timn/tmp/g03.e01/Gau-19280.inp -scrdir=/home/timn/tmp/g03.e01/
 Default is to use a total of   2 processors:
                                2 via shared-memory
                                1 via Linda
 Entering Link 1 = /home/timn/tmp/g03.e01/l1.exe PID=     19281.
  
 Copyright (c) 1988,1990,1992,1993,1995,1998,2003,2004,2007, Gaussian, Inc.
                  All Rights Reserved.
  
 This is the Gaussian(R) 03 program.  It is based on the
 the Gaussian(R) 98 system (copyright 1998, Gaussian, Inc.),
 the Gaussian(R) 94 system (copyright 1995, Gaussian, Inc.),
 the Gaussian 92(TM) system (copyright 1992, Gaussian, Inc.),
 the Gaussian 90(TM) system (copyright 1990, Gaussian, Inc.),
 the Gaussian 88(TM) system (copyright 1988, Gaussian, Inc.),
 the Gaussian 86(TM) system (copyright 1986, Carnegie Mellon
 University), and the Gaussian 82(TM) system (copyright 1983,
 Carnegie Mellon University). Gaussian is a federally registered
 trademark of Gaussian, Inc.
  
 This software contains proprietary and confidential information,
 including trade secrets, belonging to Gaussian, Inc.
  
 This software is provided under written license and may be
 used, copied, transmitted, or stored only in accord with that
 written license.
  
 The following legend is applicable only to US Government
 contracts under FAR:
  
                    RESTRICTED RIGHTS LEGEND
  
 Use, reproduction and disclosure by the US Government is
 subject to restrictions as set forth in subparagraphs (a)
 and (c) of the Commercial Computer Software - Restricted
 Rights clause in FAR 52.227-19.
  
 Gaussian, Inc.
 340 Quinnipiac St., Bldg. 40, Wallingford CT 06492
  
  
 ---------------------------------------------------------------
 Warning -- This program may not be used in any manner that
 competes with the business of Gaussian, Inc. or will provide
 assistance to any competitor of Gaussian, Inc.  The licensee
 of this program is prohibited from giving any competitor of
 Gaussian, Inc. access to this program.  By using this program,
 the user acknowledges that Gaussian, Inc. is engaged in the
 business of creating and licensing software in the field of
 computational chemistry and represents and warrants to the
 licensee that it is not a competitor of Gaussian, Inc. and that
 it will not use this program in any manner prohibited above.
 ---------------------------------------------------------------
  

 Cite this work as:
 Gaussian 03, Revision E.01,
 M. J. Frisch, G. W. Trucks, H. B. Schlegel, G. E. Scuseria, 
 M. A. Robb, J. R. Cheeseman, J. A. Montgomery, Jr., T. Vreven, 
 K. N. Kudin, J. C. Burant, J. M. Millam, S. S. Iyengar, J. Tomasi, 
 V. Barone, B. Mennucci, M. Cossi, G. Scalmani, N. Rega, 
 G. A. Petersson, H. Nakatsuji, M. Hada, M. Ehara, K. Toyota, 
 R. Fukuda, J. Hasegawa, M. Ishida, T. Nakajima, Y. Honda, O. Kitao, 
 H. Nakai, M. Klene, X. Li, J. E. Knox, H. P. Hratchian, J. B. Cross, 
 V. Bakken, C. Adamo, J. Jaramillo, R. Gomperts, R. E. Stratmann, 
 O. Yazyev, A. J. Austin, R. Cammi, C. Pomelli, J. W. Ochterski, 
 P. Y. Ayala, K. Morokuma, G. A. Voth, P. Salvador, J. J. Dannenberg, 
 V. G. Zakrzewski, S. Dapprich, A. D. Daniels, M. C. Strain, 
 O. Farkas, D. K. Malick, A. D. Rabuck, K. Raghavachari, 
 J. B. Foresman, J. V. Ortiz, Q. Cui, A. G. Baboul, S. Clifford, 
 J. Cioslowski, B. B. Stefanov, G. Liu, A. Liashenko, P. Piskorz, 
 I. Komaromi, R. L. Martin, D. J. Fox, T. Keith, M. A. Al-Laham, 
 C. Y. Peng, A. Nanayakkara, M. Challacombe, P. M. W. Gill, 
 B. Johnson, W. Chen, M. W. Wong, C. Gonzalez, and J. A. Pople, 
 Gaussian, Inc., Wallingford CT, 2004.
 
 ******************************************
 Gaussian 03:  EM64T-G03RevE.01 11-Sep-2007
                12-Jun-2015 
 ******************************************
 %nproc=2
 Will use up to    2 processors via shared memory.
 Default route:  MP2=Direct MaxDisk=2000MB
 ----------------------------------------------------
 # b3lyp/6-31+G(d,p) int=ultrafine pop=(ReadRadii,MK)
 ----------------------------------------------------

 Warning!  SCF SP cutoffs with diffuse functions may be unreliable.
 Consider SCF=Tight

 1/38=1/1;
 2/17=6,18=5,40=1/2;
 3/5=1,6=6,7=111,11=2,16=1,25=1,30=1,74=-5,75=5/1,2,3;
 4//1;
 5/5=2,32=1,38=5/2;
 6/7=2,8=2,9=2,10=2,15=8,20=101,28=1/1,2;
 99/5=1,9=1/99;
 ------------------------------------------
 mol_16.4.51.pdbcc_plusQ.out.z51602.zip.xyz
 ------------------------------------------
 Symbolic Z-matrix:
 Charge =  1 Multiplicity = 1
 O                     2.01142   0.38618   0.00029 
 O                     0.66912  -1.77946  -0.00041 
 P                     2.08254  -1.16427   0.00009 
 Ca                    0.52461   2.08785  -0.0001 
 O                    -1.23654   0.93132  -0.00007 
 O                    -2.71031   0.61443   0.00016 
 Ca                   -1.57999  -1.27563   0.00005 
 
                          Input orientation:                          
 ---------------------------------------------------------------------
 Center     Atomic     Atomic              Coordinates (Angstroms)
 Number     Number      Type              X           Y           Z
 ---------------------------------------------------------------------
    1          8             0        2.011420    0.386180    0.000290
    2          8             0        0.669120   -1.779460   -0.000410
    3         15             0        2.082540   -1.164270    0.000090
    4         20             0        0.524610    2.087850   -0.000100
    5          8             0       -1.236540    0.931320   -0.000070
    6          8             0       -2.710310    0.614430    0.000160
    7         20             0       -1.579990   -1.275630    0.000050
 ---------------------------------------------------------------------
                    Distance matrix (angstroms):
                    1          2          3          4          5
     1  O    0.000000
     2  O    2.547895   0.000000
     3  P    1.552080   1.541498   0.000000
     4  Ca   2.259709   3.870009   3.606027   0.000000
     5  O    3.293391   3.313588   3.925276   2.106944   0.000000
     6  O    4.727244   4.141408   5.112258   3.554669   1.507454
     7  Ca   3.957251   2.304852   3.664223   3.967662   2.233514
                    6          7
     6  O    0.000000
     7  Ca   2.202260   0.000000
 Stoichiometry    Ca2O4P(1+)
 Framework group  C1[X(Ca2O4P)]
 Deg. of freedom    15
 Full point group                 C1
 Largest Abelian subgroup         C1      NOp   1
 Largest concise Abelian subgroup C1      NOp   1
                         Standard orientation:                         
 ---------------------------------------------------------------------
 Center     Atomic     Atomic              Coordinates (Angstroms)
 Number     Number      Type              X           Y           Z
 ---------------------------------------------------------------------
    1          8             0        2.011418    0.386190    0.000289
    2          8             0        0.669130   -1.779457   -0.000411
    3         15             0        2.082546   -1.164259    0.000089
    4         20             0        0.524598    2.087852   -0.000101
    5          8             0       -1.236546    0.931312   -0.000071
    6          8             0       -2.710314    0.614413    0.000159
    7         20             0       -1.579983   -1.275640    0.000049
 ---------------------------------------------------------------------
 Rotational constants (GHZ):      1.4272392      1.1011632      0.6215875
 Standard basis: 6-31+G(d,p) (6D, 7F)
 There are   153 symmetry adapted basis functions of A   symmetry.
 Integral buffers will be    131072 words long.
 Raffenetti 2 integral format.
 Two-electron integral symmetry is turned on.
   153 basis functions,   344 primitive gaussians,   153 cartesian basis functions
    43 alpha electrons       43 beta electrons
       nuclear repulsion energy       580.8466748841 Hartrees.
 NAtoms=    7 NActive=    7 NUniq=    7 SFac= 7.50D-01 NAtFMM=   80 NAOKFM=F Big=F
 One-electron integrals computed using PRISM.
 NBasis=   153 RedAO= T  NBF=   153
 NBsUse=   153 1.00D-06 NBFU=   153
 Harris functional with IExCor=  402 diagonalized for initial guess.
 ExpMin= 7.10D-03 ExpMax= 3.53D+04 ExpMxC= 5.30D+03 IAcc=3 IRadAn=         5 AccDes= 0.00D+00
 HarFok:  IExCor= 402 AccDes= 0.00D+00 IRadAn=         5 IDoV=1
 ScaDFX=  1.000000  1.000000  1.000000  1.000000
 Initial guess orbital symmetries:
       Occupied  (A) (A) (A) (A) (A) (A) (A) (A) (A) (A) (A) (A)
                 (A) (A) (A) (A) (A) (A) (A) (A) (A) (A) (A) (A)
                 (A) (A) (A) (A) (A) (A) (A) (A) (A) (A) (A) (A)
                 (A) (A) (A) (A) (A) (A) (A)
       Virtual   (A) (A) (A) (A) (A) (A) (A) (A) (A) (A) (A) (A)
                 (A) (A) (A) (A) (A) (A) (A) (A) (A) (A) (A) (A)
                 (A) (A) (A) (A) (A) (A) (A) (A) (A) (A) (A) (A)
                 (A) (A) (A) (A) (A) (A) (A) (A) (A) (A) (A) (A)
                 (A) (A) (A) (A) (A) (A) (A) (A) (A) (A) (A) (A)
                 (A) (A) (A) (A) (A) (A) (A) (A) (A) (A) (A) (A)
                 (A) (A) (A) (A) (A) (A) (A) (A) (A) (A) (A) (A)
                 (A) (A) (A) (A) (A) (A) (A) (A) (A) (A) (A) (A)
                 (A) (A) (A) (A) (A) (A) (A) (A) (A) (A) (A) (A)
                 (A) (A)
 The electronic state of the initial guess is 1-A.
 Requested convergence on RMS density matrix=1.00D-04 within 128 cycles.
 Requested convergence on MAX density matrix=1.00D-02.
 Requested convergence on             energy=1.00D-02.
 No special actions if energy rises.
 EnCoef did     2 forward-backward iterations
 SCF Done:  E(RB+HF-LYP) =  -1997.28635202     A.U. after    8 cycles
             Convg  =    0.3322D-04             -V/T =  2.0031
             S**2   =   0.0000

 **********************************************************************

            Population analysis using the SCF density.

 **********************************************************************

 Orbital symmetries:
       Occupied  (A) (A) (A) (A) (A) (A) (A) (A) (A) (A) (A) (A)
                 (A) (A) (A) (A) (A) (A) (A) (A) (A) (A) (A) (A)
                 (A) (A) (A) (A) (A) (A) (A) (A) (A) (A) (A) (A)
                 (A) (A) (A) (A) (A) (A) (A)
       Virtual   (A) (A) (A) (A) (A) (A) (A) (A) (A) (A) (A) (A)
                 (A) (A) (A) (A) (A) (A) (A) (A) (A) (A) (A) (A)
                 (A) (A) (A) (A) (A) (A) (A) (A) (A) (A) (A) (A)
                 (A) (A) (A) (A) (A) (A) (A) (A) (A) (A) (A) (A)
                 (A) (A) (A) (A) (A) (A) (A) (A) (A) (A) (A) (A)
                 (A) (A) (A) (A) (A) (A) (A) (A) (A) (A) (A) (A)
                 (A) (A) (A) (A) (A) (A) (A) (A) (A) (A) (A) (A)
                 (A) (A) (A) (A) (A) (A) (A) (A) (A) (A) (A) (A)
                 (A) (A) (A) (A) (A) (A) (A) (A) (A) (A) (A) (A)
                 (A) (A)
 The electronic state is 1-A.
 Alpha  occ. eigenvalues -- -145.56428-145.51700 -77.31027 -19.28834 -19.28830
 Alpha  occ. eigenvalues --  -19.24198 -19.21222 -15.63204 -15.58584 -12.76457
 Alpha  occ. eigenvalues --  -12.76390 -12.76308 -12.71855 -12.71769 -12.71645
 Alpha  occ. eigenvalues --   -6.76502  -4.92943  -4.92727  -4.92280  -2.00199
 Alpha  occ. eigenvalues --   -1.95777  -1.27887  -1.27802  -1.27345  -1.23662
 Alpha  occ. eigenvalues --   -1.23650  -1.23063  -1.14762  -1.09433  -1.07133
 Alpha  occ. eigenvalues --   -0.85574  -0.68640  -0.58204  -0.53606  -0.53496
 Alpha  occ. eigenvalues --   -0.48427  -0.46701  -0.45148  -0.44767  -0.44146
 Alpha  occ. eigenvalues --   -0.41446  -0.31737  -0.29799
 Alpha virt. eigenvalues --   -0.22440  -0.20731  -0.19070  -0.13909  -0.12532
 Alpha virt. eigenvalues --   -0.11791  -0.11498  -0.09615  -0.08245  -0.07707
 Alpha virt. eigenvalues --   -0.06668  -0.06264  -0.05657  -0.05584  -0.05275
 Alpha virt. eigenvalues --   -0.04644  -0.04480  -0.04411  -0.04010  -0.03639
 Alpha virt. eigenvalues --   -0.03420  -0.02657  -0.00129   0.01129   0.01701
 Alpha virt. eigenvalues --    0.02062   0.02395   0.03295   0.03604   0.04412
 Alpha virt. eigenvalues --    0.04796   0.05386   0.05749   0.06267   0.06828
 Alpha virt. eigenvalues --    0.07601   0.08815   0.09018   0.10879   0.13809
 Alpha virt. eigenvalues --    0.13877   0.15829   0.15889   0.16290   0.18185
 Alpha virt. eigenvalues --    0.18358   0.20595   0.21410   0.23629   0.26065
 Alpha virt. eigenvalues --    0.27101   0.27536   0.31062   0.31182   0.34104
 Alpha virt. eigenvalues --    0.36122   0.37169   0.39671   0.44213   0.46140
 Alpha virt. eigenvalues --    0.52133   0.55707   0.56792   0.60487   0.66096
 Alpha virt. eigenvalues --    0.80665   0.88149   0.93689   0.96606   1.04790
 Alpha virt. eigenvalues --    1.04809   1.05680   1.07298   1.12469   1.13909
 Alpha virt. eigenvalues --    1.13921   1.15911   1.19613   1.21644   1.24098
 Alpha virt. eigenvalues --    1.33498   1.37103   1.41283   1.47982   1.51347
 Alpha virt. eigenvalues --    1.57128   1.60213   1.65125   1.65334   1.70804
 Alpha virt. eigenvalues --    1.71893   1.72171   1.79514   1.83686   1.84341
 Alpha virt. eigenvalues --    1.85609   1.85763   1.86713   1.92873   2.08599
 Alpha virt. eigenvalues --    2.25779   2.26878   2.52359   2.66690   3.09275
 Alpha virt. eigenvalues --    3.38021   3.81168   3.84961   3.89239   4.13491
          Condensed to atoms (all electrons):
              1          2          3          4          5          6
     1  O    8.827794  -0.086640  -0.109749   0.071946   0.013779   0.003572
     2  O   -0.086640   8.833338  -0.101164   0.001086   0.007729  -0.002940
     3  P   -0.109749  -0.101164  14.564747  -0.014041  -0.008911  -0.002514
     4  Ca   0.071946   0.001086  -0.014041  18.222086   0.171423  -0.020250
     5  O    0.013779   0.007729  -0.008911   0.171423   8.491024  -0.049225
     6  O    0.003572  -0.002940  -0.002514  -0.020250  -0.049225   8.504672
     7  Ca   0.000584   0.059653  -0.011649  -0.004895   0.064033   0.175480
              7
     1  O    0.000584
     2  O    0.059653
     3  P   -0.011649
     4  Ca  -0.004895
     5  O    0.064033
     6  O    0.175480
     7  Ca  18.241723
 Mulliken atomic charges:
              1
     1  O   -0.721287
     2  O   -0.711063
     3  P    0.683282
     4  Ca   1.572645
     5  O   -0.689853
     6  O   -0.608796
     7  Ca   1.475071
 Sum of Mulliken charges=   1.00000
 Atomic charges with hydrogens summed into heavy atoms:
              1
     1  O   -0.721287
     2  O   -0.711063
     3  P    0.683282
     4  Ca   1.572645
     5  O   -0.689853
     6  O   -0.608796
     7  Ca   1.475071
 Sum of Mulliken charges=   1.00000
 Electronic spatial extent (au):  <R**2>=  1545.3747
 Charge=     1.0000 electrons
 Dipole moment (field-independent basis, Debye):
    X=     1.9996    Y=     2.4276    Z=    -0.0002  Tot=     3.1451
 Quadrupole moment (field-independent basis, Debye-Ang):
   XX=   -65.8556   YY=   -17.9945   ZZ=   -54.3485
   XY=    29.3426   XZ=    -0.0015   YZ=    -0.0052
 Traceless Quadrupole moment (field-independent basis, Debye-Ang):
   XX=   -19.7894   YY=    28.0717   ZZ=    -8.2823
   XY=    29.3426   XZ=    -0.0015   YZ=    -0.0052
 Octapole moment (field-independent basis, Debye-Ang**2):
  XXX=    12.7558  YYY=    86.7671  ZZZ=    -0.0014  XYY=    -2.9738
  XXY=   -47.7629  XXZ=    -0.0078  XZZ=    -1.1314  YZZ=     2.8641
  YYZ=     0.0010  XYZ=    -0.0018
 Hexadecapole moment (field-independent basis, Debye-Ang**3):
 XXXX= -1184.4810 YYYY=  -470.2730 ZZZZ=   -56.4420 XXXY=   131.2558
 XXXZ=    -0.0088 YYYX=   156.4179 YYYZ=    -0.0219 ZZZX=    -0.0022
 ZZZY=    -0.0069 XXYY=  -244.3910 XXZZ=  -181.9261 YYZZ=  -110.9557
 XXYZ=    -0.0056 YYXZ=    -0.0031 ZZXY=    23.6308
 N-N= 5.808466748841D+02 E-N=-5.880942912639D+03  KE= 1.991045777166D+03
 Merz-Kollman atomic radii used.
 Read replacement radii for each type of atom:
 Rad(20) =   1.188000000000D+00
 Atom Element Radius
    1     8    1.40
    2     8    1.40
    3    15    1.80
    4    20    1.19
    5     8    1.40
    6     8    1.40
    7    20    1.19

 **********************************************************************

            Electrostatic Properties Using The SCF Density

 **********************************************************************

       Atomic Center    1 is at   2.011418  0.386190  0.000289
       Atomic Center    2 is at   0.669130 -1.779457 -0.000411
       Atomic Center    3 is at   2.082546 -1.164259  0.000089
       Atomic Center    4 is at   0.524598  2.087852 -0.000101
       Atomic Center    5 is at  -1.236546  0.931312 -0.000071
       Atomic Center    6 is at  -2.710314  0.614413  0.000159
       Atomic Center    7 is at  -1.579983 -1.275640  0.000049
     714 points will be used for fitting atomic charges
 Fitting point charges to eletrostatic potential
 Charges from ESP fit, RMS=   0.00507 RRMS=   0.03271:
 Charge=   1.00000 Dipole=     2.0702     2.2787    -0.0001 Tot=     3.0786
              1
     1  O   -0.740576
     2  O   -0.676114
     3  P    0.591099
     4  Ca   1.727205
     5  O   -0.927906
     6  O   -0.628189
     7  Ca   1.654480
 -----------------------------------------------------------------

              Electrostatic Properties (Atomic Units)

 -----------------------------------------------------------------
    Center     Electric         -------- Electric Field --------
               Potential          X             Y             Z
 -----------------------------------------------------------------
    1 Atom    -22.170039
    2 Atom    -22.180319
    3 Atom    -53.907434
    4 Atom    -79.975254
    5 Atom    -22.222701
    6 Atom    -22.257734
    7 Atom    -80.024329
 -----------------------------------------------------------------
 1\1\GINC-N026\SP\RB3LYP\6-31+G(d,p)\Ca2O4P1(1+)\TIMN\12-Jun-2015\0\\# 
 b3lyp/6-31+G(d,p) int=ultrafine pop=(ReadRadii,MK)\\mol_16.4.51.pdbcc_
 plusQ.out.z51602.zip.xyz\\1,1\O,0,2.01142,0.38618,0.00029\O,0,0.66912,
 -1.77946,-0.00041\P,0,2.08254,-1.16427,0.00009\Ca,0,0.52461,2.08785,-0
 .0001\O,0,-1.23654,0.93132,-0.00007\O,0,-2.71031,0.61443,0.00016\Ca,0,
 -1.57999,-1.27563,0.00005\\Version=EM64T-G03RevE.01\State=1-A\HF=-1997
 .286352\RMSD=3.322e-05\Thermal=0.\Dipole=0.7867238,0.9550737,-0.000084
 \PG=C01 [X(Ca2O4P1)]\\@


 Other things may change us, but we start and end with family.
 -- Anthony Brandt
 Job cpu time:  0 days  0 hours  0 minutes 55.1 seconds.
 File lengths (MBytes):  RWF=     28 Int=      0 D2E=      0 Chk=     10 Scr=      1
 Normal termination of Gaussian 03 at Fri Jun 12 17:48:55 2015.
