 Entering Gaussian System, Link 0=/home/timn/tmp/g03.e01/g03
 Input=mol_17.27.55.pdbc_plusQ_plusQ.z58521.zip.xyz.gjf
 Output=mol_17.27.55.pdbc_plusQ_plusQ.z58521.zip.xyz.out
 Initial command:
 /home/timn/tmp/g03.e01/l1.exe /home/timn/tmp/g03.e01/Gau-15071.inp -scrdir=/home/timn/tmp/g03.e01/
 Default is to use a total of   2 processors:
                                2 via shared-memory
                                1 via Linda
 Entering Link 1 = /home/timn/tmp/g03.e01/l1.exe PID=     15072.
  
 Copyright (c) 1988,1990,1992,1993,1995,1998,2003,2004,2007, Gaussian, Inc.
                  All Rights Reserved.
  
 This is the Gaussian(R) 03 program.  It is based on the
 the Gaussian(R) 98 system (copyright 1998, Gaussian, Inc.),
 the Gaussian(R) 94 system (copyright 1995, Gaussian, Inc.),
 the Gaussian 92(TM) system (copyright 1992, Gaussian, Inc.),
 the Gaussian 90(TM) system (copyright 1990, Gaussian, Inc.),
 the Gaussian 88(TM) system (copyright 1988, Gaussian, Inc.),
 the Gaussian 86(TM) system (copyright 1986, Carnegie Mellon
 University), and the Gaussian 82(TM) system (copyright 1983,
 Carnegie Mellon University). Gaussian is a federally registered
 trademark of Gaussian, Inc.
  
 This software contains proprietary and confidential information,
 including trade secrets, belonging to Gaussian, Inc.
  
 This software is provided under written license and may be
 used, copied, transmitted, or stored only in accord with that
 written license.
  
 The following legend is applicable only to US Government
 contracts under FAR:
  
                    RESTRICTED RIGHTS LEGEND
  
 Use, reproduction and disclosure by the US Government is
 subject to restrictions as set forth in subparagraphs (a)
 and (c) of the Commercial Computer Software - Restricted
 Rights clause in FAR 52.227-19.
  
 Gaussian, Inc.
 340 Quinnipiac St., Bldg. 40, Wallingford CT 06492
  
  
 ---------------------------------------------------------------
 Warning -- This program may not be used in any manner that
 competes with the business of Gaussian, Inc. or will provide
 assistance to any competitor of Gaussian, Inc.  The licensee
 of this program is prohibited from giving any competitor of
 Gaussian, Inc. access to this program.  By using this program,
 the user acknowledges that Gaussian, Inc. is engaged in the
 business of creating and licensing software in the field of
 computational chemistry and represents and warrants to the
 licensee that it is not a competitor of Gaussian, Inc. and that
 it will not use this program in any manner prohibited above.
 ---------------------------------------------------------------
  

 Cite this work as:
 Gaussian 03, Revision E.01,
 M. J. Frisch, G. W. Trucks, H. B. Schlegel, G. E. Scuseria, 
 M. A. Robb, J. R. Cheeseman, J. A. Montgomery, Jr., T. Vreven, 
 K. N. Kudin, J. C. Burant, J. M. Millam, S. S. Iyengar, J. Tomasi, 
 V. Barone, B. Mennucci, M. Cossi, G. Scalmani, N. Rega, 
 G. A. Petersson, H. Nakatsuji, M. Hada, M. Ehara, K. Toyota, 
 R. Fukuda, J. Hasegawa, M. Ishida, T. Nakajima, Y. Honda, O. Kitao, 
 H. Nakai, M. Klene, X. Li, J. E. Knox, H. P. Hratchian, J. B. Cross, 
 V. Bakken, C. Adamo, J. Jaramillo, R. Gomperts, R. E. Stratmann, 
 O. Yazyev, A. J. Austin, R. Cammi, C. Pomelli, J. W. Ochterski, 
 P. Y. Ayala, K. Morokuma, G. A. Voth, P. Salvador, J. J. Dannenberg, 
 V. G. Zakrzewski, S. Dapprich, A. D. Daniels, M. C. Strain, 
 O. Farkas, D. K. Malick, A. D. Rabuck, K. Raghavachari, 
 J. B. Foresman, J. V. Ortiz, Q. Cui, A. G. Baboul, S. Clifford, 
 J. Cioslowski, B. B. Stefanov, G. Liu, A. Liashenko, P. Piskorz, 
 I. Komaromi, R. L. Martin, D. J. Fox, T. Keith, M. A. Al-Laham, 
 C. Y. Peng, A. Nanayakkara, M. Challacombe, P. M. W. Gill, 
 B. Johnson, W. Chen, M. W. Wong, C. Gonzalez, and J. A. Pople, 
 Gaussian, Inc., Wallingford CT, 2004.
 
 ******************************************
 Gaussian 03:  EM64T-G03RevE.01 11-Sep-2007
                12-Jun-2015 
 ******************************************
 %nproc=2
 Will use up to    2 processors via shared memory.
 Default route:  MP2=Direct MaxDisk=2000MB
 ----------------------------------------------------
 # b3lyp/6-31+G(d,p) int=ultrafine pop=(ReadRadii,MK)
 ----------------------------------------------------

 Warning!  SCF SP cutoffs with diffuse functions may be unreliable.
 Consider SCF=Tight

 1/38=1/1;
 2/17=6,18=5,40=1/2;
 3/5=1,6=6,7=111,11=2,16=1,25=1,30=1,74=-5,75=5/1,2,3;
 4//1;
 5/5=2,32=1,38=5/2;
 6/7=2,8=2,9=2,10=2,15=8,20=101,28=1/1,2;
 99/5=1,9=1/99;
 --------------------------------------------
 mol_17.27.55.pdbc_plusQ_plusQ.z58521.zip.xyz
 --------------------------------------------
 Symbolic Z-matrix:
 Charge =  1 Multiplicity = 1
 O                    -1.62867  -1.26867   0.0005 
 O                    -3.85563  -0.0305   -0.00873 
 P                    -3.16175  -1.40784  -0.01086 
 Ca                   -5.1529    1.82735  -0.00836 
 Ca                    0.63596  -1.14006   0.01837 
 O                     2.61767  -0.52929  -0.75312 
 O                     2.53084  -0.30925   0.80087 
 Ca                    4.51103   0.50161   0.00274 
 O                     6.27886   1.80515  -0.05103 
 
                          Input orientation:                          
 ---------------------------------------------------------------------
 Center     Atomic     Atomic              Coordinates (Angstroms)
 Number     Number      Type              X           Y           Z
 ---------------------------------------------------------------------
    1          8             0       -1.628670   -1.268670    0.000500
    2          8             0       -3.855630   -0.030500   -0.008730
    3         15             0       -3.161750   -1.407840   -0.010860
    4         20             0       -5.152900    1.827350   -0.008360
    5         20             0        0.635960   -1.140060    0.018370
    6          8             0        2.617670   -0.529290   -0.753120
    7          8             0        2.530840   -0.309250    0.800870
    8         20             0        4.511030    0.501610    0.002740
    9          8             0        6.278860    1.805150   -0.051030
 ---------------------------------------------------------------------
                    Distance matrix (angstroms):
                    1          2          3          4          5
     1  O    0.000000
     2  O    2.548039   0.000000
     3  P    1.539426   1.542251   0.000000
     4  Ca   4.691014   2.265947   3.798834   0.000000
     5  Ca   2.268349   4.626688   3.807251   6.505162   0.000000
     6  O    4.375618   6.535023   5.892749   8.154151   2.212558
     7  O    4.343110   6.443613   5.854177   8.016219   2.212040
     8  Ca   6.389821   8.383572   7.906816   9.754448   4.208502
     9  O    8.484106  10.299480   9.972464  11.431861   6.365642
                    6          7          8          9
     6  O    0.000000
     7  O    1.571891   0.000000
     8  Ca   2.284489   2.283781   0.000000
     9  O    4.398506   4.386807   2.197119   0.000000
 Stoichiometry    Ca3O5P(1+)
 Framework group  C1[X(Ca3O5P)]
 Deg. of freedom    21
 Full point group                 C1
 Largest Abelian subgroup         C1      NOp   1
 Largest concise Abelian subgroup C1      NOp   1
                         Standard orientation:                         
 ---------------------------------------------------------------------
 Center     Atomic     Atomic              Coordinates (Angstroms)
 Number     Number      Type              X           Y           Z
 ---------------------------------------------------------------------
    1          8             0       -1.628671   -1.268669    0.000500
    2          8             0       -3.855631   -0.030499   -0.008730
    3         15             0       -3.161751   -1.407839   -0.010860
    4         20             0       -5.152901    1.827351   -0.008360
    5         20             0        0.635959   -1.140059    0.018370
    6          8             0        2.617669   -0.529289   -0.753120
    7          8             0        2.530839   -0.309249    0.800870
    8         20             0        4.511029    0.501610    0.002740
    9          8             0        6.278859    1.805150   -0.051030
 ---------------------------------------------------------------------
 Rotational constants (GHZ):      1.4034461      0.1512063      0.1379451
 Standard basis: 6-31+G(d,p) (6D, 7F)
 There are   199 symmetry adapted basis functions of A   symmetry.
 Integral buffers will be    131072 words long.
 Raffenetti 2 integral format.
 Two-electron integral symmetry is turned on.
   199 basis functions,   456 primitive gaussians,   199 cartesian basis functions
    57 alpha electrons       57 beta electrons
       nuclear repulsion energy       767.2879969677 Hartrees.
 NAtoms=    9 NActive=    9 NUniq=    9 SFac= 7.50D-01 NAtFMM=   80 NAOKFM=F Big=F
 One-electron integrals computed using PRISM.
 NBasis=   199 RedAO= T  NBF=   199
 NBsUse=   199 1.00D-06 NBFU=   199
 Harris functional with IExCor=  402 diagonalized for initial guess.
 ExpMin= 7.10D-03 ExpMax= 3.53D+04 ExpMxC= 5.30D+03 IAcc=3 IRadAn=         5 AccDes= 0.00D+00
 HarFok:  IExCor= 402 AccDes= 0.00D+00 IRadAn=         5 IDoV=1
 ScaDFX=  1.000000  1.000000  1.000000  1.000000
 Initial guess orbital symmetries:
       Occupied  (A) (A) (A) (A) (A) (A) (A) (A) (A) (A) (A) (A)
                 (A) (A) (A) (A) (A) (A) (A) (A) (A) (A) (A) (A)
                 (A) (A) (A) (A) (A) (A) (A) (A) (A) (A) (A) (A)
                 (A) (A) (A) (A) (A) (A) (A) (A) (A) (A) (A) (A)
                 (A) (A) (A) (A) (A) (A) (A) (A) (A)
       Virtual   (A) (A) (A) (A) (A) (A) (A) (A) (A) (A) (A) (A)
                 (A) (A) (A) (A) (A) (A) (A) (A) (A) (A) (A) (A)
                 (A) (A) (A) (A) (A) (A) (A) (A) (A) (A) (A) (A)
                 (A) (A) (A) (A) (A) (A) (A) (A) (A) (A) (A) (A)
                 (A) (A) (A) (A) (A) (A) (A) (A) (A) (A) (A) (A)
                 (A) (A) (A) (A) (A) (A) (A) (A) (A) (A) (A) (A)
                 (A) (A) (A) (A) (A) (A) (A) (A) (A) (A) (A) (A)
                 (A) (A) (A) (A) (A) (A) (A) (A) (A) (A) (A) (A)
                 (A) (A) (A) (A) (A) (A) (A) (A) (A) (A) (A) (A)
                 (A) (A) (A) (A) (A) (A) (A) (A) (A) (A) (A) (A)
                 (A) (A) (A) (A) (A) (A) (A) (A) (A) (A) (A) (A)
                 (A) (A) (A) (A) (A) (A) (A) (A) (A) (A)
 The electronic state of the initial guess is 1-A.
 Requested convergence on RMS density matrix=1.00D-04 within 128 cycles.
 Requested convergence on MAX density matrix=1.00D-02.
 Requested convergence on             energy=1.00D-02.
 No special actions if energy rises.
 EnCoef did     2 forward-backward iterations
 EnCoef did     1 forward-backward iterations
 EnCoef did    96 forward-backward iterations
 EnCoef did   100 forward-backward iterations
 EnCoef did   100 forward-backward iterations
 EnCoef did   100 forward-backward iterations
 Rare condition: small coef for last iteration:  0.000D+00
 EnCoef did   100 forward-backward iterations
 EnCoef did   100 forward-backward iterations
 EnCoef did   100 forward-backward iterations
 EnCoef did   100 forward-backward iterations
 EnCoef did   100 forward-backward iterations
 Rare condition: small coef for last iteration:  0.251D-14
 Restarting incremental Fock formation.
 Rare condition: small coef for last iteration:  0.000D+00
 EnCoef did   100 forward-backward iterations
 Rare condition: small coef for last iteration:  0.000D+00
 EnCoef did   100 forward-backward iterations
 EnCoef did   100 forward-backward iterations
 EnCoef did   100 forward-backward iterations
 EnCoef did   100 forward-backward iterations
 SCF Done:  E(RB+HF-LYP) =  -2750.01014072     A.U. after   31 cycles
             Convg  =    0.8901D-04             -V/T =  2.0029
             S**2   =   0.0000

 **********************************************************************

            Population analysis using the SCF density.

 **********************************************************************

 Orbital symmetries:
       Occupied  (A) (A) (A) (A) (A) (A) (A) (A) (A) (A) (A) (A)
                 (A) (A) (A) (A) (A) (A) (A) (A) (A) (A) (A) (A)
                 (A) (A) (A) (A) (A) (A) (A) (A) (A) (A) (A) (A)
                 (A) (A) (A) (A) (A) (A) (A) (A) (A) (A) (A) (A)
                 (A) (A) (A) (A) (A) (A) (A) (A) (A)
       Virtual   (A) (A) (A) (A) (A) (A) (A) (A) (A) (A) (A) (A)
                 (A) (A) (A) (A) (A) (A) (A) (A) (A) (A) (A) (A)
                 (A) (A) (A) (A) (A) (A) (A) (A) (A) (A) (A) (A)
                 (A) (A) (A) (A) (A) (A) (A) (A) (A) (A) (A) (A)
                 (A) (A) (A) (A) (A) (A) (A) (A) (A) (A) (A) (A)
                 (A) (A) (A) (A) (A) (A) (A) (A) (A) (A) (A) (A)
                 (A) (A) (A) (A) (A) (A) (A) (A) (A) (A) (A) (A)
                 (A) (A) (A) (A) (A) (A) (A) (A) (A) (A) (A) (A)
                 (A) (A) (A) (A) (A) (A) (A) (A) (A) (A) (A) (A)
                 (A) (A) (A) (A) (A) (A) (A) (A) (A) (A) (A) (A)
                 (A) (A) (A) (A) (A) (A) (A) (A) (A) (A) (A) (A)
                 (A) (A) (A) (A) (A) (A) (A) (A) (A) (A)
 The electronic state is 1-A.
 Alpha  occ. eigenvalues -- -145.56828-145.50836-145.43674 -77.32155 -19.29982
 Alpha  occ. eigenvalues --  -19.29977 -19.23496 -19.23490 -19.16143 -15.63721
 Alpha  occ. eigenvalues --  -15.57686 -15.50713 -12.76922 -12.76919 -12.76812
 Alpha  occ. eigenvalues --  -12.70962 -12.70909 -12.70719 -12.63976 -12.63946
 Alpha  occ. eigenvalues --  -12.63695  -6.77625  -4.94070  -4.93850  -4.93403
 Alpha  occ. eigenvalues --   -2.00590  -1.94936  -1.88190  -1.28002  -1.27985
 Alpha  occ. eigenvalues --   -1.27798  -1.22897  -1.22835  -1.22576  -1.16254
 Alpha  occ. eigenvalues --   -1.16082  -1.16061  -1.15711  -1.10793  -1.05676
 Alpha  occ. eigenvalues --   -0.87286  -0.86494  -0.70073  -0.59549  -0.54932
 Alpha  occ. eigenvalues --   -0.54612  -0.48007  -0.46895  -0.46643  -0.45869
 Alpha  occ. eigenvalues --   -0.44044  -0.42178  -0.35549  -0.31564  -0.30130
 Alpha  occ. eigenvalues --   -0.29186  -0.26630
 Alpha virt. eigenvalues --   -0.25719  -0.21750  -0.17624  -0.15481  -0.15478
 Alpha virt. eigenvalues --   -0.13576  -0.12394  -0.12167  -0.10663  -0.08748
 Alpha virt. eigenvalues --   -0.08650  -0.08226  -0.07613  -0.06494  -0.06253
 Alpha virt. eigenvalues --   -0.05754  -0.05698  -0.05164  -0.05095  -0.04638
 Alpha virt. eigenvalues --   -0.04539  -0.03932  -0.03680  -0.03278  -0.02754
 Alpha virt. eigenvalues --   -0.02549  -0.02260  -0.01954  -0.01334  -0.00696
 Alpha virt. eigenvalues --    0.00248   0.01013   0.01954   0.02229   0.02713
 Alpha virt. eigenvalues --    0.02931   0.02968   0.03471   0.03978   0.04015
 Alpha virt. eigenvalues --    0.04219   0.05025   0.05538   0.06384   0.06901
 Alpha virt. eigenvalues --    0.08036   0.08577   0.09248   0.09374   0.10134
 Alpha virt. eigenvalues --    0.10213   0.10529   0.10789   0.11879   0.13301
 Alpha virt. eigenvalues --    0.13717   0.15274   0.16345   0.17356   0.18823
 Alpha virt. eigenvalues --    0.19168   0.20058   0.20112   0.20749   0.21768
 Alpha virt. eigenvalues --    0.22633   0.23487   0.24430   0.27330   0.30456
 Alpha virt. eigenvalues --    0.30613   0.31610   0.32374   0.33348   0.33523
 Alpha virt. eigenvalues --    0.36823   0.38042   0.42195   0.45723   0.47808
 Alpha virt. eigenvalues --    0.49105   0.50875   0.55843   0.58331   0.59233
 Alpha virt. eigenvalues --    0.67729   0.74049   0.86967   0.92327   0.96412
 Alpha virt. eigenvalues --    1.04656   1.06184   1.06275   1.07752   1.10374
 Alpha virt. eigenvalues --    1.11004   1.11319   1.14424   1.15890   1.17037
 Alpha virt. eigenvalues --    1.19815   1.22658   1.23119   1.27582   1.31559
 Alpha virt. eigenvalues --    1.34380   1.38491   1.47913   1.49896   1.51101
 Alpha virt. eigenvalues --    1.54209   1.59426   1.62809   1.63268   1.66481
 Alpha virt. eigenvalues --    1.68096   1.70277   1.73262   1.76381   1.77792
 Alpha virt. eigenvalues --    1.79631   1.80999   1.81007   1.82756   1.84144
 Alpha virt. eigenvalues --    1.85644   1.88156   1.92635   2.03884   2.12739
 Alpha virt. eigenvalues --    2.18261   2.19942   2.20863   2.51390   2.67061
 Alpha virt. eigenvalues --    3.02435   3.38645   3.81003   3.84357   3.91252
 Alpha virt. eigenvalues --    4.01004   4.08386
          Condensed to atoms (all electrons):
              1          2          3          4          5          6
     1  O    8.803424  -0.003398  -0.226953   0.002042   0.072250  -0.001012
     2  O   -0.003398   8.901686  -0.237776  -0.036307   0.010941   0.000062
     3  P   -0.226953  -0.237776  14.913662  -0.036650  -0.036003  -0.000703
     4  Ca   0.002042  -0.036307  -0.036650  19.152428   0.005114  -0.000169
     5  Ca   0.072250   0.010941  -0.036003   0.005114  18.279587   0.125337
     6  O   -0.001012   0.000062  -0.000703  -0.000169   0.125337   8.530659
     7  O   -0.000477   0.000057  -0.000909   0.000412   0.123024  -0.066409
     8  Ca   0.005164   0.002858  -0.016570   0.006097  -0.038317   0.077767
     9  O    0.000001   0.000000  -0.000001   0.000100   0.002647   0.000062
              7          8          9
     1  O   -0.000477   0.005164   0.000001
     2  O    0.000057   0.002858   0.000000
     3  P   -0.000909  -0.016570  -0.000001
     4  Ca   0.000412   0.006097   0.000100
     5  Ca   0.123024  -0.038317   0.002647
     6  O   -0.066409   0.077767   0.000062
     7  O    8.535444   0.076195   0.000035
     8  Ca   0.076195  18.343402   0.207974
     9  O    0.000035   0.207974   8.506740
 Mulliken atomic charges:
              1
     1  O   -0.651041
     2  O   -0.638123
     3  P    0.641903
     4  Ca   0.906933
     5  Ca   1.455420
     6  O   -0.665594
     7  O   -0.667371
     8  Ca   1.335431
     9  O   -0.717558
 Sum of Mulliken charges=   1.00000
 Atomic charges with hydrogens summed into heavy atoms:
              1
     1  O   -0.651041
     2  O   -0.638123
     3  P    0.641903
     4  Ca   0.906933
     5  Ca   1.455420
     6  O   -0.665594
     7  O   -0.667371
     8  Ca   1.335431
     9  O   -0.717558
 Sum of Mulliken charges=   1.00000
 Electronic spatial extent (au):  <R**2>=  6708.8393
 Charge=     1.0000 electrons
 Dipole moment (field-independent basis, Debye):
    X=   -20.2905    Y=    -1.9714    Z=     0.1728  Tot=    20.3867
 Quadrupole moment (field-independent basis, Debye-Ang):
   XX=   -47.8851   YY=   -72.4156   ZZ=   -80.4401
   XY=   -57.6938   XZ=     1.3976   YZ=    -0.2184
 Traceless Quadrupole moment (field-independent basis, Debye-Ang):
   XX=    19.0285   YY=    -5.5020   ZZ=   -13.5265
   XY=   -57.6938   XZ=     1.3976   YZ=    -0.2184
 Octapole moment (field-independent basis, Debye-Ang**2):
  XXX=  -832.7520  YYY=   -37.2805  ZZZ=     0.1020  XYY=  -103.8612
  XXY=   -46.2057  XXZ=     7.3735  XZZ=     9.4313  YZZ=    -5.7623
  YYZ=     1.9486  XYZ=     1.7648
 Hexadecapole moment (field-independent basis, Debye-Ang**3):
 XXXX= -8571.7503 YYYY=  -916.6224 ZZZZ=  -153.4433 XXXY= -2155.9800
 XXXZ=    51.3860 YYYX=  -227.3525 YYYZ=     0.8934 ZZZX=     0.0133
 ZZZY=     0.5963 XXYY= -1590.3466 XXZZ= -1238.1194 YYZZ=  -172.7393
 XXYZ=    12.4204 YYXZ=     9.2216 ZZXY=    20.8795
 N-N= 7.672879969677D+02 E-N=-8.034194723615D+03  KE= 2.742099289687D+03
 Merz-Kollman atomic radii used.
 Read replacement radii for each type of atom:
 Rad(20) =   1.188000000000D+00
 Atom Element Radius
    1     8    1.40
    2     8    1.40
    3    15    1.80
    4    20    1.19
    5    20    1.19
    6     8    1.40
    7     8    1.40
    8    20    1.19
    9     8    1.40

 **********************************************************************

            Electrostatic Properties Using The SCF Density

 **********************************************************************

       Atomic Center    1 is at  -1.628671 -1.268669  0.000500
       Atomic Center    2 is at  -3.855631 -0.030499 -0.008730
       Atomic Center    3 is at  -3.161751 -1.407839 -0.010860
       Atomic Center    4 is at  -5.152901  1.827351 -0.008360
       Atomic Center    5 is at   0.635959 -1.140059  0.018370
       Atomic Center    6 is at   2.617669 -0.529289 -0.753120
       Atomic Center    7 is at   2.530839 -0.309249  0.800870
       Atomic Center    8 is at   4.511029  0.501610  0.002740
       Atomic Center    9 is at   6.278859  1.805150 -0.051030
    1061 points will be used for fitting atomic charges
 Fitting point charges to eletrostatic potential
 Charges from ESP fit, RMS=   0.01044 RRMS=   0.07140:
 Charge=   1.00000 Dipole=   -23.4911    -0.0911     0.1493 Tot=    23.4918
              1
     1  O   -0.628250
     2  O   -0.393338
     3  P    0.312171
     4  Ca   0.942325
     5  Ca   1.741406
     6  O   -0.873423
     7  O   -0.879342
     8  Ca   1.737292
     9  O   -0.958840
 -----------------------------------------------------------------

              Electrostatic Properties (Atomic Units)

 -----------------------------------------------------------------
    Center     Electric         -------- Electric Field --------
               Potential          X             Y             Z
 -----------------------------------------------------------------
    1 Atom    -22.162603
    2 Atom    -22.160866
    3 Atom    -53.893638
    4 Atom    -79.967071
    5 Atom    -80.031568
    6 Atom    -22.236079
    7 Atom    -22.236086
    8 Atom    -80.109673
    9 Atom    -22.335351
 -----------------------------------------------------------------
 1\1\GINC-N029\SP\RB3LYP\6-31+G(d,p)\Ca3O5P1(1+)\TIMN\12-Jun-2015\0\\# 
 b3lyp/6-31+G(d,p) int=ultrafine pop=(ReadRadii,MK)\\mol_17.27.55.pdbc_
 plusQ_plusQ.z58521.zip.xyz\\1,1\O,0,-1.62867,-1.26867,0.0005\O,0,-3.85
 563,-0.0305,-0.00873\P,0,-3.16175,-1.40784,-0.01086\Ca,0,-5.1529,1.827
 35,-0.00836\Ca,0,0.63596,-1.14006,0.01837\O,0,2.61767,-0.52929,-0.7531
 2\O,0,2.53084,-0.30925,0.80087\Ca,0,4.51103,0.50161,0.00274\O,0,6.2788
 6,1.80515,-0.05103\\Version=EM64T-G03RevE.01\State=1-A\HF=-2750.010140
 7\RMSD=8.901e-05\Thermal=0.\Dipole=-7.9828859,-0.7756145,0.0679829\PG=
 C01 [X(Ca3O5P1)]\\@


 In the race for quality, there is no finish line.
                               -- David T. Kearns
 Job cpu time:  0 days  0 hours  5 minutes  6.7 seconds.
 File lengths (MBytes):  RWF=     36 Int=      0 D2E=      0 Chk=     11 Scr=      1
 Normal termination of Gaussian 03 at Fri Jun 12 18:10:28 2015.
