 Entering Gaussian System, Link 0=/home/timn/tmp/g03.e01/g03
 Input=mol_16.4.39.pdbc_plusQ.out.z51589.zip.xyz.gjf
 Output=mol_16.4.39.pdbc_plusQ.out.z51589.zip.xyz.out
 Initial command:
 /home/timn/tmp/g03.e01/l1.exe /home/timn/tmp/g03.e01/Gau-12248.inp -scrdir=/home/timn/tmp/g03.e01/
 Default is to use a total of   2 processors:
                                2 via shared-memory
                                1 via Linda
 Entering Link 1 = /home/timn/tmp/g03.e01/l1.exe PID=     12251.
  
 Copyright (c) 1988,1990,1992,1993,1995,1998,2003,2004,2007, Gaussian, Inc.
                  All Rights Reserved.
  
 This is the Gaussian(R) 03 program.  It is based on the
 the Gaussian(R) 98 system (copyright 1998, Gaussian, Inc.),
 the Gaussian(R) 94 system (copyright 1995, Gaussian, Inc.),
 the Gaussian 92(TM) system (copyright 1992, Gaussian, Inc.),
 the Gaussian 90(TM) system (copyright 1990, Gaussian, Inc.),
 the Gaussian 88(TM) system (copyright 1988, Gaussian, Inc.),
 the Gaussian 86(TM) system (copyright 1986, Carnegie Mellon
 University), and the Gaussian 82(TM) system (copyright 1983,
 Carnegie Mellon University). Gaussian is a federally registered
 trademark of Gaussian, Inc.
  
 This software contains proprietary and confidential information,
 including trade secrets, belonging to Gaussian, Inc.
  
 This software is provided under written license and may be
 used, copied, transmitted, or stored only in accord with that
 written license.
  
 The following legend is applicable only to US Government
 contracts under FAR:
  
                    RESTRICTED RIGHTS LEGEND
  
 Use, reproduction and disclosure by the US Government is
 subject to restrictions as set forth in subparagraphs (a)
 and (c) of the Commercial Computer Software - Restricted
 Rights clause in FAR 52.227-19.
  
 Gaussian, Inc.
 340 Quinnipiac St., Bldg. 40, Wallingford CT 06492
  
  
 ---------------------------------------------------------------
 Warning -- This program may not be used in any manner that
 competes with the business of Gaussian, Inc. or will provide
 assistance to any competitor of Gaussian, Inc.  The licensee
 of this program is prohibited from giving any competitor of
 Gaussian, Inc. access to this program.  By using this program,
 the user acknowledges that Gaussian, Inc. is engaged in the
 business of creating and licensing software in the field of
 computational chemistry and represents and warrants to the
 licensee that it is not a competitor of Gaussian, Inc. and that
 it will not use this program in any manner prohibited above.
 ---------------------------------------------------------------
  

 Cite this work as:
 Gaussian 03, Revision E.01,
 M. J. Frisch, G. W. Trucks, H. B. Schlegel, G. E. Scuseria, 
 M. A. Robb, J. R. Cheeseman, J. A. Montgomery, Jr., T. Vreven, 
 K. N. Kudin, J. C. Burant, J. M. Millam, S. S. Iyengar, J. Tomasi, 
 V. Barone, B. Mennucci, M. Cossi, G. Scalmani, N. Rega, 
 G. A. Petersson, H. Nakatsuji, M. Hada, M. Ehara, K. Toyota, 
 R. Fukuda, J. Hasegawa, M. Ishida, T. Nakajima, Y. Honda, O. Kitao, 
 H. Nakai, M. Klene, X. Li, J. E. Knox, H. P. Hratchian, J. B. Cross, 
 V. Bakken, C. Adamo, J. Jaramillo, R. Gomperts, R. E. Stratmann, 
 O. Yazyev, A. J. Austin, R. Cammi, C. Pomelli, J. W. Ochterski, 
 P. Y. Ayala, K. Morokuma, G. A. Voth, P. Salvador, J. J. Dannenberg, 
 V. G. Zakrzewski, S. Dapprich, A. D. Daniels, M. C. Strain, 
 O. Farkas, D. K. Malick, A. D. Rabuck, K. Raghavachari, 
 J. B. Foresman, J. V. Ortiz, Q. Cui, A. G. Baboul, S. Clifford, 
 J. Cioslowski, B. B. Stefanov, G. Liu, A. Liashenko, P. Piskorz, 
 I. Komaromi, R. L. Martin, D. J. Fox, T. Keith, M. A. Al-Laham, 
 C. Y. Peng, A. Nanayakkara, M. Challacombe, P. M. W. Gill, 
 B. Johnson, W. Chen, M. W. Wong, C. Gonzalez, and J. A. Pople, 
 Gaussian, Inc., Wallingford CT, 2004.
 
 ******************************************
 Gaussian 03:  EM64T-G03RevE.01 11-Sep-2007
                12-Jun-2015 
 ******************************************
 %nproc=2
 Will use up to    2 processors via shared memory.
 Default route:  MP2=Direct MaxDisk=2000MB
 ----------------------------------------------------
 # b3lyp/6-31+G(d,p) int=ultrafine pop=(ReadRadii,MK)
 ----------------------------------------------------

 Warning!  SCF SP cutoffs with diffuse functions may be unreliable.
 Consider SCF=Tight

 1/38=1/1;
 2/17=6,18=5,40=1/2;
 3/5=1,6=6,7=111,11=2,16=1,25=1,30=1,74=-5,75=5/1,2,3;
 4//1;
 5/5=2,32=1,38=5/2;
 6/7=2,8=2,9=2,10=2,15=8,20=101,28=1/1,2;
 99/5=1,9=1/99;
 -----------------------------------------
 mol_16.4.39.pdbc_plusQ.out.z51589.zip.xyz
 -----------------------------------------
 Symbolic Z-matrix:
 Charge =  1 Multiplicity = 1
 O                     0.94962   1.27819  -0.00124 
 O                     3.2468   -0.00109  -0.00074 
 O                     0.94852  -1.27821   0.00265 
 P                     1.77641  -0.00035   0.00006 
 Ca                   -1.25595   1.89429   0.00033 
 O                    -2.19276   0.00057   0.00016 
 Ca                   -1.25724  -1.89381  -0.00071 
 
                          Input orientation:                          
 ---------------------------------------------------------------------
 Center     Atomic     Atomic              Coordinates (Angstroms)
 Number     Number      Type              X           Y           Z
 ---------------------------------------------------------------------
    1          8             0        0.949620    1.278190   -0.001240
    2          8             0        3.246800   -0.001090   -0.000740
    3          8             0        0.948520   -1.278210    0.002650
    4         15             0        1.776410   -0.000350    0.000060
    5         20             0       -1.255950    1.894290    0.000330
    6          8             0       -2.192760    0.000570    0.000160
    7         20             0       -1.257240   -1.893810   -0.000710
 ---------------------------------------------------------------------
                    Distance matrix (angstroms):
                    1          2          3          4          5
     1  O    0.000000
     2  O    2.629371   0.000000
     3  O    2.556403   2.629285   0.000000
     4  P    1.522579   1.470390   1.522608   0.000000
     5  Ca   2.290005   4.885409   3.863218   3.575593   0.000000
     6  O    3.392177   5.439560   3.391596   3.969170   2.112768
     7  Ca   3.864171   4.885567   2.290055   3.576063   3.788100
                    6          7
     6  O    0.000000
     7  Ca   2.112788   0.000000
 Stoichiometry    Ca2O4P(1+)
 Framework group  C1[X(Ca2O4P)]
 Deg. of freedom    15
 Full point group                 C1
 Largest Abelian subgroup         C1      NOp   1
 Largest concise Abelian subgroup C1      NOp   1
                         Standard orientation:                         
 ---------------------------------------------------------------------
 Center     Atomic     Atomic              Coordinates (Angstroms)
 Number     Number      Type              X           Y           Z
 ---------------------------------------------------------------------
    1          8             0        0.949627    1.278186   -0.001239
    2          8             0        3.246802   -0.001101   -0.000739
    3          8             0        0.948518   -1.278214    0.002651
    4         15             0        1.776412   -0.000356    0.000061
    5         20             0       -1.255941    1.894294    0.000331
    6          8             0       -2.192758    0.000577    0.000161
    7         20             0       -1.257244   -1.893806   -0.000709
 ---------------------------------------------------------------------
 Rotational constants (GHZ):      1.4908346      1.0142828      0.6036158
 Standard basis: 6-31+G(d,p) (6D, 7F)
 There are   153 symmetry adapted basis functions of A   symmetry.
 Integral buffers will be    131072 words long.
 Raffenetti 2 integral format.
 Two-electron integral symmetry is turned on.
   153 basis functions,   344 primitive gaussians,   153 cartesian basis functions
    43 alpha electrons       43 beta electrons
       nuclear repulsion energy       585.0553653646 Hartrees.
 NAtoms=    7 NActive=    7 NUniq=    7 SFac= 7.50D-01 NAtFMM=   80 NAOKFM=F Big=F
 One-electron integrals computed using PRISM.
 NBasis=   153 RedAO= T  NBF=   153
 NBsUse=   153 1.00D-06 NBFU=   153
 Harris functional with IExCor=  402 diagonalized for initial guess.
 ExpMin= 7.10D-03 ExpMax= 3.53D+04 ExpMxC= 5.30D+03 IAcc=3 IRadAn=         5 AccDes= 0.00D+00
 HarFok:  IExCor= 402 AccDes= 0.00D+00 IRadAn=         5 IDoV=1
 ScaDFX=  1.000000  1.000000  1.000000  1.000000
 Initial guess orbital symmetries:
       Occupied  (A) (A) (A) (A) (A) (A) (A) (A) (A) (A) (A) (A)
                 (A) (A) (A) (A) (A) (A) (A) (A) (A) (A) (A) (A)
                 (A) (A) (A) (A) (A) (A) (A) (A) (A) (A) (A) (A)
                 (A) (A) (A) (A) (A) (A) (A)
       Virtual   (A) (A) (A) (A) (A) (A) (A) (A) (A) (A) (A) (A)
                 (A) (A) (A) (A) (A) (A) (A) (A) (A) (A) (A) (A)
                 (A) (A) (A) (A) (A) (A) (A) (A) (A) (A) (A) (A)
                 (A) (A) (A) (A) (A) (A) (A) (A) (A) (A) (A) (A)
                 (A) (A) (A) (A) (A) (A) (A) (A) (A) (A) (A) (A)
                 (A) (A) (A) (A) (A) (A) (A) (A) (A) (A) (A) (A)
                 (A) (A) (A) (A) (A) (A) (A) (A) (A) (A) (A) (A)
                 (A) (A) (A) (A) (A) (A) (A) (A) (A) (A) (A) (A)
                 (A) (A) (A) (A) (A) (A) (A) (A) (A) (A) (A) (A)
                 (A) (A)
 The electronic state of the initial guess is 1-A.
 Requested convergence on RMS density matrix=1.00D-04 within 128 cycles.
 Requested convergence on MAX density matrix=1.00D-02.
 Requested convergence on             energy=1.00D-02.
 No special actions if energy rises.
 EnCoef did     1 forward-backward iterations
 EnCoef did     3 forward-backward iterations
 SCF Done:  E(RB+HF-LYP) =  -1997.36495531     A.U. after    9 cycles
             Convg  =    0.4847D-04             -V/T =  2.0032
             S**2   =   0.0000

 **********************************************************************

            Population analysis using the SCF density.

 **********************************************************************

 Orbital symmetries:
       Occupied  (A) (A) (A) (A) (A) (A) (A) (A) (A) (A) (A) (A)
                 (A) (A) (A) (A) (A) (A) (A) (A) (A) (A) (A) (A)
                 (A) (A) (A) (A) (A) (A) (A) (A) (A) (A) (A) (A)
                 (A) (A) (A) (A) (A) (A) (A)
       Virtual   (A) (A) (A) (A) (A) (A) (A) (A) (A) (A) (A) (A)
                 (A) (A) (A) (A) (A) (A) (A) (A) (A) (A) (A) (A)
                 (A) (A) (A) (A) (A) (A) (A) (A) (A) (A) (A) (A)
                 (A) (A) (A) (A) (A) (A) (A) (A) (A) (A) (A) (A)
                 (A) (A) (A) (A) (A) (A) (A) (A) (A) (A) (A) (A)
                 (A) (A) (A) (A) (A) (A) (A) (A) (A) (A) (A) (A)
                 (A) (A) (A) (A) (A) (A) (A) (A) (A) (A) (A) (A)
                 (A) (A) (A) (A) (A) (A) (A) (A) (A) (A) (A) (A)
                 (A) (A) (A) (A) (A) (A) (A) (A) (A) (A) (A) (A)
                 (A) (A)
 The electronic state is 1-A.
 Alpha  occ. eigenvalues -- -145.53594-145.53592 -77.35860 -19.29931 -19.29929
 Alpha  occ. eigenvalues --  -19.27563 -19.15850 -15.60449 -15.60448 -12.73700
 Alpha  occ. eigenvalues --  -12.73698 -12.73625 -12.73623 -12.73534 -12.73532
 Alpha  occ. eigenvalues --   -6.81068  -4.97686  -4.97215  -4.97119  -1.97567
 Alpha  occ. eigenvalues --   -1.97549  -1.25347  -1.25328  -1.25296  -1.25083
 Alpha  occ. eigenvalues --   -1.24705  -1.24173  -1.18400  -1.11387  -1.10401
 Alpha  occ. eigenvalues --   -0.90348  -0.67784  -0.60015  -0.56616  -0.55840
 Alpha  occ. eigenvalues --   -0.50172  -0.48058  -0.47798  -0.45415  -0.42510
 Alpha  occ. eigenvalues --   -0.36651  -0.34565  -0.34387
 Alpha virt. eigenvalues --   -0.22298  -0.20459  -0.16813  -0.14887  -0.13474
 Alpha virt. eigenvalues --   -0.12518  -0.11816  -0.10787  -0.09941  -0.08257
 Alpha virt. eigenvalues --   -0.07256  -0.06248  -0.05558  -0.05269  -0.04859
 Alpha virt. eigenvalues --   -0.04660  -0.04645  -0.04368  -0.03658  -0.01084
 Alpha virt. eigenvalues --   -0.01048  -0.00625   0.00368   0.01677   0.02308
 Alpha virt. eigenvalues --    0.02658   0.02898   0.03367   0.04419   0.04543
 Alpha virt. eigenvalues --    0.05200   0.06554   0.06576   0.06663   0.07208
 Alpha virt. eigenvalues --    0.07471   0.09174   0.09176   0.12103   0.12984
 Alpha virt. eigenvalues --    0.14115   0.14860   0.15423   0.17803   0.20130
 Alpha virt. eigenvalues --    0.20680   0.20803   0.21210   0.21898   0.23116
 Alpha virt. eigenvalues --    0.23957   0.26593   0.28728   0.29014   0.33787
 Alpha virt. eigenvalues --    0.35459   0.37213   0.45323   0.50549   0.53416
 Alpha virt. eigenvalues --    0.54088   0.54933   0.56955   0.64031   0.66958
 Alpha virt. eigenvalues --    0.80795   0.91859   0.92859   0.95139   1.03883
 Alpha virt. eigenvalues --    1.05574   1.05838   1.11443   1.12678   1.13829
 Alpha virt. eigenvalues --    1.15127   1.16985   1.20453   1.21574   1.22154
 Alpha virt. eigenvalues --    1.26599   1.38470   1.38797   1.41338   1.48651
 Alpha virt. eigenvalues --    1.63805   1.64476   1.65458   1.66588   1.69079
 Alpha virt. eigenvalues --    1.73601   1.74073   1.80207   1.80402   1.81522
 Alpha virt. eigenvalues --    1.84682   1.90573   1.93269   1.96186   1.98515
 Alpha virt. eigenvalues --    2.17058   2.18398   2.56332   2.69396   2.77902
 Alpha virt. eigenvalues --    3.35221   3.81862   3.93311   3.93328   3.96390
          Condensed to atoms (all electrons):
              1          2          3          4          5          6
     1  O    9.049218  -0.147144  -0.371988   0.252388   0.091038   0.011540
     2  O   -0.147144   8.434087  -0.147199   0.472320   0.000131  -0.000502
     3  O   -0.371988  -0.147199   9.049448   0.252361  -0.024983   0.011530
     4  P    0.252388   0.472320   0.252361  12.523176  -0.017963  -0.023483
     5  Ca   0.091038   0.000131  -0.024983  -0.017963  18.255861   0.227994
     6  O    0.011540  -0.000502   0.011530  -0.023483   0.227994   8.742492
     7  Ca  -0.024952   0.000112   0.091035  -0.017951  -0.017316   0.227981
              7
     1  O   -0.024952
     2  O    0.000112
     3  O    0.091035
     4  P   -0.017951
     5  Ca  -0.017316
     6  O    0.227981
     7  Ca  18.255819
 Mulliken atomic charges:
              1
     1  O   -0.860101
     2  O   -0.611805
     3  O   -0.860203
     4  P    1.559152
     5  Ca   1.485238
     6  O   -1.197553
     7  Ca   1.485273
 Sum of Mulliken charges=   1.00000
 Atomic charges with hydrogens summed into heavy atoms:
              1
     1  O   -0.860101
     2  O   -0.611805
     3  O   -0.860203
     4  P    1.559152
     5  Ca   1.485238
     6  O   -1.197553
     7  Ca   1.485273
 Sum of Mulliken charges=   1.00000
 Electronic spatial extent (au):  <R**2>=  1591.5148
 Charge=     1.0000 electrons
 Dipole moment (field-independent basis, Debye):
    X=    -8.6780    Y=     0.0009    Z=    -0.0049  Tot=     8.6780
 Quadrupole moment (field-independent basis, Debye-Ang):
   XX=   -74.7286   YY=    -7.7791   ZZ=   -53.5428
   XY=     0.0238   XZ=     0.0084   YZ=     0.0344
 Traceless Quadrupole moment (field-independent basis, Debye-Ang):
   XX=   -29.3784   YY=    37.5711   ZZ=    -8.1927
   XY=     0.0238   XZ=     0.0084   YZ=     0.0344
 Octapole moment (field-independent basis, Debye-Ang**2):
  XXX=   -30.0066  YYY=     0.0504  ZZZ=    -0.0062  XYY=   -94.5673
  XXY=    -0.0538  XXZ=     0.0123  XZZ=    -3.8013  YZZ=     0.0003
  YYZ=    -0.0192  XYZ=    -0.0009
 Hexadecapole moment (field-independent basis, Debye-Ang**3):
 XXXX= -1410.4583 YYYY=  -350.5137 ZZZZ=   -55.9820 XXXY=     0.2315
 XXXZ=     0.0846 YYYX=     0.0505 YYYZ=     0.1259 ZZZX=     0.0115
 ZZZY=     0.0520 XXYY=  -187.3847 XXZZ=  -191.1319 YYZZ=   -97.4729
 XXYZ=     0.0583 YYXZ=     0.0089 ZZXY=     0.0151
 N-N= 5.850553653646D+02 E-N=-5.888524567212D+03  KE= 1.991044812203D+03
 Merz-Kollman atomic radii used.
 Read replacement radii for each type of atom:
 Rad(20) =   1.188000000000D+00
 Atom Element Radius
    1     8    1.40
    2     8    1.40
    3     8    1.40
    4    15    1.80
    5    20    1.19
    6     8    1.40
    7    20    1.19

 **********************************************************************

            Electrostatic Properties Using The SCF Density

 **********************************************************************

       Atomic Center    1 is at   0.949627  1.278186 -0.001239
       Atomic Center    2 is at   3.246802 -0.001101 -0.000739
       Atomic Center    3 is at   0.948518 -1.278214  0.002651
       Atomic Center    4 is at   1.776412 -0.000356  0.000061
       Atomic Center    5 is at  -1.255941  1.894294  0.000331
       Atomic Center    6 is at  -2.192758  0.000577  0.000161
       Atomic Center    7 is at  -1.257244 -1.893806 -0.000709
     685 points will be used for fitting atomic charges
 Fitting point charges to eletrostatic potential
 Charges from ESP fit, RMS=   0.00371 RRMS=   0.02312:
 Charge=   1.00000 Dipole=    -8.8332     0.0008    -0.0083 Tot=     8.8332
              1
     1  O   -0.932109
     2  O   -0.539851
     3  O   -0.932235
     4  P    1.484197
     5  Ca   1.739381
     6  O   -1.558780
     7  Ca   1.739396
 -----------------------------------------------------------------

              Electrostatic Properties (Atomic Units)

 -----------------------------------------------------------------
    Center     Electric         -------- Electric Field --------
               Potential          X             Y             Z
 -----------------------------------------------------------------
    1 Atom    -22.162004
    2 Atom    -22.195916
    3 Atom    -22.162014
    4 Atom    -53.847816
    5 Atom    -80.004852
    6 Atom    -22.292920
    7 Atom    -80.004835
 -----------------------------------------------------------------
 1\1\GINC-N033\SP\RB3LYP\6-31+G(d,p)\Ca2O4P1(1+)\TIMN\12-Jun-2015\0\\# 
 b3lyp/6-31+G(d,p) int=ultrafine pop=(ReadRadii,MK)\\mol_16.4.39.pdbc_p
 lusQ.out.z51589.zip.xyz\\1,1\O,0,0.94962,1.27819,-0.00124\O,0,3.2468,-
 0.00109,-0.00074\O,0,0.94852,-1.27821,0.00265\P,0,1.77641,-0.00035,0.0
 0006\Ca,0,-1.25595,1.89429,0.00033\O,0,-2.19276,0.00057,0.00016\Ca,0,-
 1.25724,-1.89381,-0.00071\\Version=EM64T-G03RevE.01\State=1-A\HF=-1997
 .3649553\RMSD=4.847e-05\Thermal=0.\Dipole=-3.4141729,0.0003349,-0.0019
 082\PG=C01 [X(Ca2O4P1)]\\@


 The hours that make us happy make us wise.
                         -- John Masefield
 Job cpu time:  0 days  0 hours  1 minutes  1.7 seconds.
 File lengths (MBytes):  RWF=     28 Int=      0 D2E=      0 Chk=     10 Scr=      1
 Normal termination of Gaussian 03 at Fri Jun 12 17:48:24 2015.
