 Entering Gaussian System, Link 0=/home/timn/tmp/g03.e01/g03
 Input=mol_17.29.46.pdbccc_plusQ.z58628.zip.xyz.gjf
 Output=mol_17.29.46.pdbccc_plusQ.z58628.zip.xyz.out
 Initial command:
 /home/timn/tmp/g03.e01/l1.exe /home/timn/tmp/g03.e01/Gau-18034.inp -scrdir=/home/timn/tmp/g03.e01/
 Default is to use a total of   2 processors:
                                2 via shared-memory
                                1 via Linda
 Entering Link 1 = /home/timn/tmp/g03.e01/l1.exe PID=     18035.
  
 Copyright (c) 1988,1990,1992,1993,1995,1998,2003,2004,2007, Gaussian, Inc.
                  All Rights Reserved.
  
 This is the Gaussian(R) 03 program.  It is based on the
 the Gaussian(R) 98 system (copyright 1998, Gaussian, Inc.),
 the Gaussian(R) 94 system (copyright 1995, Gaussian, Inc.),
 the Gaussian 92(TM) system (copyright 1992, Gaussian, Inc.),
 the Gaussian 90(TM) system (copyright 1990, Gaussian, Inc.),
 the Gaussian 88(TM) system (copyright 1988, Gaussian, Inc.),
 the Gaussian 86(TM) system (copyright 1986, Carnegie Mellon
 University), and the Gaussian 82(TM) system (copyright 1983,
 Carnegie Mellon University). Gaussian is a federally registered
 trademark of Gaussian, Inc.
  
 This software contains proprietary and confidential information,
 including trade secrets, belonging to Gaussian, Inc.
  
 This software is provided under written license and may be
 used, copied, transmitted, or stored only in accord with that
 written license.
  
 The following legend is applicable only to US Government
 contracts under FAR:
  
                    RESTRICTED RIGHTS LEGEND
  
 Use, reproduction and disclosure by the US Government is
 subject to restrictions as set forth in subparagraphs (a)
 and (c) of the Commercial Computer Software - Restricted
 Rights clause in FAR 52.227-19.
  
 Gaussian, Inc.
 340 Quinnipiac St., Bldg. 40, Wallingford CT 06492
  
  
 ---------------------------------------------------------------
 Warning -- This program may not be used in any manner that
 competes with the business of Gaussian, Inc. or will provide
 assistance to any competitor of Gaussian, Inc.  The licensee
 of this program is prohibited from giving any competitor of
 Gaussian, Inc. access to this program.  By using this program,
 the user acknowledges that Gaussian, Inc. is engaged in the
 business of creating and licensing software in the field of
 computational chemistry and represents and warrants to the
 licensee that it is not a competitor of Gaussian, Inc. and that
 it will not use this program in any manner prohibited above.
 ---------------------------------------------------------------
  

 Cite this work as:
 Gaussian 03, Revision E.01,
 M. J. Frisch, G. W. Trucks, H. B. Schlegel, G. E. Scuseria, 
 M. A. Robb, J. R. Cheeseman, J. A. Montgomery, Jr., T. Vreven, 
 K. N. Kudin, J. C. Burant, J. M. Millam, S. S. Iyengar, J. Tomasi, 
 V. Barone, B. Mennucci, M. Cossi, G. Scalmani, N. Rega, 
 G. A. Petersson, H. Nakatsuji, M. Hada, M. Ehara, K. Toyota, 
 R. Fukuda, J. Hasegawa, M. Ishida, T. Nakajima, Y. Honda, O. Kitao, 
 H. Nakai, M. Klene, X. Li, J. E. Knox, H. P. Hratchian, J. B. Cross, 
 V. Bakken, C. Adamo, J. Jaramillo, R. Gomperts, R. E. Stratmann, 
 O. Yazyev, A. J. Austin, R. Cammi, C. Pomelli, J. W. Ochterski, 
 P. Y. Ayala, K. Morokuma, G. A. Voth, P. Salvador, J. J. Dannenberg, 
 V. G. Zakrzewski, S. Dapprich, A. D. Daniels, M. C. Strain, 
 O. Farkas, D. K. Malick, A. D. Rabuck, K. Raghavachari, 
 J. B. Foresman, J. V. Ortiz, Q. Cui, A. G. Baboul, S. Clifford, 
 J. Cioslowski, B. B. Stefanov, G. Liu, A. Liashenko, P. Piskorz, 
 I. Komaromi, R. L. Martin, D. J. Fox, T. Keith, M. A. Al-Laham, 
 C. Y. Peng, A. Nanayakkara, M. Challacombe, P. M. W. Gill, 
 B. Johnson, W. Chen, M. W. Wong, C. Gonzalez, and J. A. Pople, 
 Gaussian, Inc., Wallingford CT, 2004.
 
 ******************************************
 Gaussian 03:  EM64T-G03RevE.01 11-Sep-2007
                12-Jun-2015 
 ******************************************
 %nproc=2
 Will use up to    2 processors via shared memory.
 Default route:  MP2=Direct MaxDisk=2000MB
 ----------------------------------------------------
 # b3lyp/6-31+G(d,p) int=ultrafine pop=(ReadRadii,MK)
 ----------------------------------------------------

 Warning!  SCF SP cutoffs with diffuse functions may be unreliable.
 Consider SCF=Tight

 1/38=1/1;
 2/17=6,18=5,40=1/2;
 3/5=1,6=6,7=111,11=2,16=1,25=1,30=1,74=-5,75=5/1,2,3;
 4//1;
 5/5=2,32=1,38=5/2;
 6/7=2,8=2,9=2,10=2,15=8,20=101,28=1/1,2;
 99/5=1,9=1/99;
 ----------------------------------------
 mol_17.29.46.pdbccc_plusQ.z58628.zip.xyz
 ----------------------------------------
 Symbolic Z-matrix:
 Charge =  1 Multiplicity = 1
 O                    -3.25755   0.52348   0.00007 
 P                    -3.19794  -1.02689   0.00127 
 O                    -1.72195  -1.46768  -0.00027 
 Ca                    0.60439  -1.30804  -0.0012 
 O                     2.71815  -1.08493   0.78519 
 O                     0.5674    1.10475  -0.00041 
 O                     2.71917  -1.08467  -0.78469 
 Ca                    2.82048   0.9977    0.00093 
 Ca                   -1.4365    1.88412  -0.00064 
 
                          Input orientation:                          
 ---------------------------------------------------------------------
 Center     Atomic     Atomic              Coordinates (Angstroms)
 Number     Number      Type              X           Y           Z
 ---------------------------------------------------------------------
    1          8             0       -3.257550    0.523480    0.000070
    2         15             0       -3.197940   -1.026890    0.001270
    3          8             0       -1.721950   -1.467680   -0.000270
    4         20             0        0.604390   -1.308040   -0.001200
    5          8             0        2.718150   -1.084930    0.785190
    6          8             0        0.567400    1.104750   -0.000410
    7          8             0        2.719170   -1.084670   -0.784690
    8         20             0        2.820480    0.997700    0.000930
    9         20             0       -1.436500    1.884120   -0.000640
 ---------------------------------------------------------------------
                    Distance matrix (angstroms):
                    1          2          3          4          5
     1  O    0.000000
     2  P    1.551516   0.000000
     3  O    2.514515   1.540404   0.000000
     4  Ca   4.274231   3.812711   2.331811   0.000000
     5  O    6.237979   5.968083   4.525255   2.266312   0.000000
     6  O    3.868865   4.326855   3.443620   2.413074   3.168216
     7  O    6.238844   5.969360   4.526097   2.266284   1.569880
     8  Ca   6.096502   6.349830   5.168343   3.198046   2.227753
     9  Ca   2.273228   3.402448   3.363933   3.788815   5.166614
                    6          7          8          9
     6  O    0.000000
     7  O    3.168402   0.000000
     8  Ca   2.255622   2.227942   0.000000
     9  Ca   2.150124   5.167015   4.348290   0.000000
 Stoichiometry    Ca3O5P(1+)
 Framework group  C1[X(Ca3O5P)]
 Deg. of freedom    21
 Full point group                 C1
 Largest Abelian subgroup         C1      NOp   1
 Largest concise Abelian subgroup C1      NOp   1
                         Standard orientation:                         
 ---------------------------------------------------------------------
 Center     Atomic     Atomic              Coordinates (Angstroms)
 Number     Number      Type              X           Y           Z
 ---------------------------------------------------------------------
    1          8             0       -3.257550    0.523484    0.000070
    2         15             0       -3.197941   -1.026887    0.001270
    3          8             0       -1.721952   -1.467678   -0.000270
    4         20             0        0.604389   -1.308039   -0.001200
    5          8             0        2.718149   -1.084931    0.785190
    6          8             0        0.567400    1.104751   -0.000410
    7          8             0        2.719169   -1.084671   -0.784690
    8         20             0        2.820480    0.997699    0.000930
    9         20             0       -1.436499    1.884122   -0.000640
 ---------------------------------------------------------------------
 Rotational constants (GHZ):      1.2685986      0.4176136      0.3220790
 Standard basis: 6-31+G(d,p) (6D, 7F)
 There are   199 symmetry adapted basis functions of A   symmetry.
 Integral buffers will be    131072 words long.
 Raffenetti 2 integral format.
 Two-electron integral symmetry is turned on.
   199 basis functions,   456 primitive gaussians,   199 cartesian basis functions
    57 alpha electrons       57 beta electrons
       nuclear repulsion energy       947.2811744823 Hartrees.
 NAtoms=    9 NActive=    9 NUniq=    9 SFac= 7.50D-01 NAtFMM=   80 NAOKFM=F Big=F
 One-electron integrals computed using PRISM.
 NBasis=   199 RedAO= T  NBF=   199
 NBsUse=   199 1.00D-06 NBFU=   199
 Harris functional with IExCor=  402 diagonalized for initial guess.
 ExpMin= 7.10D-03 ExpMax= 3.53D+04 ExpMxC= 5.30D+03 IAcc=3 IRadAn=         5 AccDes= 0.00D+00
 HarFok:  IExCor= 402 AccDes= 0.00D+00 IRadAn=         5 IDoV=1
 ScaDFX=  1.000000  1.000000  1.000000  1.000000
 Initial guess orbital symmetries:
       Occupied  (A) (A) (A) (A) (A) (A) (A) (A) (A) (A) (A) (A)
                 (A) (A) (A) (A) (A) (A) (A) (A) (A) (A) (A) (A)
                 (A) (A) (A) (A) (A) (A) (A) (A) (A) (A) (A) (A)
                 (A) (A) (A) (A) (A) (A) (A) (A) (A) (A) (A) (A)
                 (A) (A) (A) (A) (A) (A) (A) (A) (A)
       Virtual   (A) (A) (A) (A) (A) (A) (A) (A) (A) (A) (A) (A)
                 (A) (A) (A) (A) (A) (A) (A) (A) (A) (A) (A) (A)
                 (A) (A) (A) (A) (A) (A) (A) (A) (A) (A) (A) (A)
                 (A) (A) (A) (A) (A) (A) (A) (A) (A) (A) (A) (A)
                 (A) (A) (A) (A) (A) (A) (A) (A) (A) (A) (A) (A)
                 (A) (A) (A) (A) (A) (A) (A) (A) (A) (A) (A) (A)
                 (A) (A) (A) (A) (A) (A) (A) (A) (A) (A) (A) (A)
                 (A) (A) (A) (A) (A) (A) (A) (A) (A) (A) (A) (A)
                 (A) (A) (A) (A) (A) (A) (A) (A) (A) (A) (A) (A)
                 (A) (A) (A) (A) (A) (A) (A) (A) (A) (A) (A) (A)
                 (A) (A) (A) (A) (A) (A) (A) (A) (A) (A) (A) (A)
                 (A) (A) (A) (A) (A) (A) (A) (A) (A) (A)
 The electronic state of the initial guess is 1-A.
 Requested convergence on RMS density matrix=1.00D-04 within 128 cycles.
 Requested convergence on MAX density matrix=1.00D-02.
 Requested convergence on             energy=1.00D-02.
 No special actions if energy rises.
 EnCoef did     1 forward-backward iterations
 EnCoef did     4 forward-backward iterations
 SCF Done:  E(RB+HF-LYP) =  -2750.20946263     A.U. after    8 cycles
             Convg  =    0.6678D-04             -V/T =  2.0029
             S**2   =   0.0000

 **********************************************************************

            Population analysis using the SCF density.

 **********************************************************************

 Orbital symmetries:
       Occupied  (A) (A) (A) (A) (A) (A) (A) (A) (A) (A) (A) (A)
                 (A) (A) (A) (A) (A) (A) (A) (A) (A) (A) (A) (A)
                 (A) (A) (A) (A) (A) (A) (A) (A) (A) (A) (A) (A)
                 (A) (A) (A) (A) (A) (A) (A) (A) (A) (A) (A) (A)
                 (A) (A) (A) (A) (A) (A) (A) (A) (A)
       Virtual   (A) (A) (A) (A) (A) (A) (A) (A) (A) (A) (A) (A)
                 (A) (A) (A) (A) (A) (A) (A) (A) (A) (A) (A) (A)
                 (A) (A) (A) (A) (A) (A) (A) (A) (A) (A) (A) (A)
                 (A) (A) (A) (A) (A) (A) (A) (A) (A) (A) (A) (A)
                 (A) (A) (A) (A) (A) (A) (A) (A) (A) (A) (A) (A)
                 (A) (A) (A) (A) (A) (A) (A) (A) (A) (A) (A) (A)
                 (A) (A) (A) (A) (A) (A) (A) (A) (A) (A) (A) (A)
                 (A) (A) (A) (A) (A) (A) (A) (A) (A) (A) (A) (A)
                 (A) (A) (A) (A) (A) (A) (A) (A) (A) (A) (A) (A)
                 (A) (A) (A) (A) (A) (A) (A) (A) (A) (A) (A) (A)
                 (A) (A) (A) (A) (A) (A) (A) (A) (A) (A) (A) (A)
                 (A) (A) (A) (A) (A) (A) (A) (A) (A) (A)
 The electronic state is 1-A.
 Alpha  occ. eigenvalues -- -145.53444-145.47936-145.44931 -77.30017 -19.28054
 Alpha  occ. eigenvalues --  -19.27376 -19.19855 -19.19850 -19.17772 -15.60346
 Alpha  occ. eigenvalues --  -15.54803 -15.51809 -12.73602 -12.73557 -12.73380
 Alpha  occ. eigenvalues --  -12.68011 -12.67984 -12.67912 -12.65051 -12.65014
 Alpha  occ. eigenvalues --  -12.64884  -6.75567  -4.92009  -4.91779  -4.91347
 Alpha  occ. eigenvalues --   -1.97565  -1.92107  -1.89193  -1.25425  -1.25311
 Alpha  occ. eigenvalues --   -1.24419  -1.20420  -1.19705  -1.19309  -1.17170
 Alpha  occ. eigenvalues --   -1.17033  -1.16718  -1.13819  -1.08286  -1.02337
 Alpha  occ. eigenvalues --   -0.92389  -0.83646  -0.67409  -0.56819  -0.52927
 Alpha  occ. eigenvalues --   -0.52650  -0.45514  -0.43656  -0.43295  -0.41903
 Alpha  occ. eigenvalues --   -0.41016  -0.40801  -0.37919  -0.37232  -0.36357
 Alpha  occ. eigenvalues --   -0.30426  -0.28822
 Alpha virt. eigenvalues --   -0.21314  -0.19843  -0.18020  -0.13562  -0.13447
 Alpha virt. eigenvalues --   -0.11660  -0.10863  -0.10478  -0.08645  -0.08277
 Alpha virt. eigenvalues --   -0.07160  -0.06881  -0.06489  -0.06240  -0.05653
 Alpha virt. eigenvalues --   -0.05510  -0.04732  -0.04627  -0.04565  -0.04278
 Alpha virt. eigenvalues --   -0.03757  -0.03628  -0.03453  -0.03309  -0.03121
 Alpha virt. eigenvalues --   -0.02675  -0.02570  -0.02081  -0.01611   0.00549
 Alpha virt. eigenvalues --    0.00834   0.02294   0.03265   0.03716   0.03929
 Alpha virt. eigenvalues --    0.04346   0.04650   0.05419   0.06052   0.06177
 Alpha virt. eigenvalues --    0.06474   0.07079   0.07422   0.07708   0.08316
 Alpha virt. eigenvalues --    0.08473   0.10300   0.11036   0.11259   0.11386
 Alpha virt. eigenvalues --    0.13118   0.13990   0.14958   0.15739   0.17032
 Alpha virt. eigenvalues --    0.17136   0.17985   0.19434   0.19851   0.20811
 Alpha virt. eigenvalues --    0.21310   0.22682   0.23718   0.25498   0.26809
 Alpha virt. eigenvalues --    0.27525   0.29613   0.31212   0.31716   0.31919
 Alpha virt. eigenvalues --    0.33417   0.35064   0.36294   0.37154   0.38475
 Alpha virt. eigenvalues --    0.40735   0.43686   0.46329   0.48202   0.53249
 Alpha virt. eigenvalues --    0.53719   0.55978   0.56737   0.58871   0.62167
 Alpha virt. eigenvalues --    0.69211   0.83970   0.89803   0.94273   1.03772
 Alpha virt. eigenvalues --    1.06303   1.07981   1.08664   1.10243   1.10646
 Alpha virt. eigenvalues --    1.15025   1.18098   1.18422   1.18989   1.20952
 Alpha virt. eigenvalues --    1.21059   1.24211   1.25907   1.29636   1.32882
 Alpha virt. eigenvalues --    1.38119   1.41826   1.43611   1.52424   1.54279
 Alpha virt. eigenvalues --    1.55128   1.65977   1.66837   1.68688   1.70558
 Alpha virt. eigenvalues --    1.71072   1.76939   1.77417   1.77498   1.79981
 Alpha virt. eigenvalues --    1.82562   1.84325   1.85156   1.85575   1.86840
 Alpha virt. eigenvalues --    1.87776   1.92808   1.94618   2.02080   2.09278
 Alpha virt. eigenvalues --    2.16954   2.22066   2.24399   2.53525   2.68592
 Alpha virt. eigenvalues --    3.07207   3.39408   3.84650   3.90124   3.94148
 Alpha virt. eigenvalues --    4.13753   4.14832
          Condensed to atoms (all electrons):
              1          2          3          4          5          6
     1  O    8.746660  -0.043073  -0.083977   0.000421   0.000040   0.003496
     2  P   -0.043073  14.535808  -0.110486   0.007918  -0.000238  -0.005904
     3  O   -0.083977  -0.110486   8.825314   0.043620  -0.000718  -0.011229
     4  Ca   0.000421   0.007918   0.043620  18.337294   0.102722   0.053855
     5  O    0.000040  -0.000238  -0.000718   0.102722   8.483725  -0.004441
     6  O    0.003496  -0.005904  -0.011229   0.053855  -0.004441   9.015090
     7  O    0.000040  -0.000231  -0.000733   0.102808  -0.033223  -0.004442
     8  Ca   0.004224  -0.014862   0.009337  -0.047353   0.103069   0.104960
     9  Ca   0.086507  -0.032802   0.003960  -0.005828  -0.000372   0.193621
              7          8          9
     1  O    0.000040   0.004224   0.086507
     2  P   -0.000231  -0.014862  -0.032802
     3  O   -0.000733   0.009337   0.003960
     4  Ca   0.102808  -0.047353  -0.005828
     5  O   -0.033223   0.103069  -0.000372
     6  O   -0.004442   0.104960   0.193621
     7  O    8.483711   0.103059  -0.000392
     8  Ca   0.103059  18.303941  -0.010031
     9  Ca  -0.000392  -0.010031  18.241814
 Mulliken atomic charges:
              1
     1  O   -0.714338
     2  P    0.663871
     3  O   -0.675087
     4  Ca   1.404543
     5  O   -0.650565
     6  O   -1.345005
     7  O   -0.650598
     8  Ca   1.443657
     9  Ca   1.523524
 Sum of Mulliken charges=   1.00000
 Atomic charges with hydrogens summed into heavy atoms:
              1
     1  O   -0.714338
     2  P    0.663871
     3  O   -0.675087
     4  Ca   1.404543
     5  O   -0.650565
     6  O   -1.345005
     7  O   -0.650598
     8  Ca   1.443657
     9  Ca   1.523524
 Sum of Mulliken charges=   1.00000
 Electronic spatial extent (au):  <R**2>=  2958.1311
 Charge=     1.0000 electrons
 Dipole moment (field-independent basis, Debye):
    X=    -1.2156    Y=    11.9747    Z=    -0.0026  Tot=    12.0362
 Quadrupole moment (field-independent basis, Debye-Ang):
   XX=   -63.6407   YY=   -46.4860   ZZ=   -77.2665
   XY=    16.2950   XZ=     0.0181   YZ=     0.0151
 Traceless Quadrupole moment (field-independent basis, Debye-Ang):
   XX=    -1.1763   YY=    15.9784   ZZ=   -14.8022
   XY=    16.2950   XZ=     0.0181   YZ=     0.0151
 Octapole moment (field-independent basis, Debye-Ang**2):
  XXX=    88.0552  YYY=    77.5210  ZZZ=    -0.0165  XYY=   -19.9222
  XXY=   125.0511  XXZ=     0.0506  XZZ=    -8.9738  YZZ=    12.6633
  YYZ=    -0.0329  XYZ=     0.0507
 Hexadecapole moment (field-independent basis, Debye-Ang**3):
 XXXX= -2477.9256 YYYY=  -627.6867 ZZZZ=  -129.2676 XXXY=   386.3795
 XXXZ=     0.3047 YYYX=   -74.0507 YYYZ=     0.0409 ZZZX=     0.0484
 ZZZY=     0.0386 XXYY=  -482.9424 XXZZ=  -456.9632 YYZZ=  -147.7990
 XXYZ=     0.0799 YYXZ=     0.0667 ZZXY=    13.8715
 N-N= 9.472811744823D+02 E-N=-8.396040991687D+03  KE= 2.742195944976D+03
 Merz-Kollman atomic radii used.
 Read replacement radii for each type of atom:
 Rad(20) =   1.188000000000D+00
 Atom Element Radius
    1     8    1.40
    2    15    1.80
    3     8    1.40
    4    20    1.19
    5     8    1.40
    6     8    1.40
    7     8    1.40
    8    20    1.19
    9    20    1.19

 **********************************************************************

            Electrostatic Properties Using The SCF Density

 **********************************************************************

       Atomic Center    1 is at  -3.257550  0.523484  0.000070
       Atomic Center    2 is at  -3.197941 -1.026887  0.001270
       Atomic Center    3 is at  -1.721952 -1.467678 -0.000270
       Atomic Center    4 is at   0.604389 -1.308039 -0.001200
       Atomic Center    5 is at   2.718149 -1.084931  0.785190
       Atomic Center    6 is at   0.567400  1.104751 -0.000410
       Atomic Center    7 is at   2.719169 -1.084671 -0.784690
       Atomic Center    8 is at   2.820480  0.997699  0.000930
       Atomic Center    9 is at  -1.436499  1.884122 -0.000640
     884 points will be used for fitting atomic charges
 Fitting point charges to eletrostatic potential
 Charges from ESP fit, RMS=   0.00481 RRMS=   0.03256:
 Charge=   1.00000 Dipole=    -1.2671    12.2013    -0.0009 Tot=    12.2669
              1
     1  O   -0.710766
     2  P    0.564987
     3  O   -0.661991
     4  Ca   1.672026
     5  O   -0.773910
     6  O   -1.733085
     7  O   -0.774150
     8  Ca   1.686061
     9  Ca   1.730828
 -----------------------------------------------------------------

              Electrostatic Properties (Atomic Units)

 -----------------------------------------------------------------
    Center     Electric         -------- Electric Field --------
               Potential          X             Y             Z
 -----------------------------------------------------------------
    1 Atom    -22.191180
    2 Atom    -53.919164
    3 Atom    -22.178810
    4 Atom    -80.089611
    5 Atom    -22.270006
    6 Atom    -22.283640
    7 Atom    -22.270014
    8 Atom    -80.060046
    9 Atom    -80.007440
 -----------------------------------------------------------------
 1\1\GINC-N028\SP\RB3LYP\6-31+G(d,p)\Ca3O5P1(1+)\TIMN\12-Jun-2015\0\\# 
 b3lyp/6-31+G(d,p) int=ultrafine pop=(ReadRadii,MK)\\mol_17.29.46.pdbcc
 c_plusQ.z58628.zip.xyz\\1,1\O,0,-3.25755,0.52348,0.00007\P,0,-3.19794,
 -1.02689,0.00127\O,0,-1.72195,-1.46768,-0.00027\Ca,0,0.60439,-1.30804,
 -0.0012\O,0,2.71815,-1.08493,0.78519\O,0,0.5674,1.10475,-0.00041\O,0,2
 .71917,-1.08467,-0.78469\Ca,0,2.82048,0.9977,0.00093\Ca,0,-1.4365,1.88
 412,-0.00064\\Version=EM64T-G03RevE.01\State=1-A\HF=-2750.2094626\RMSD
 =6.678e-05\Thermal=0.\Dipole=-0.4782668,4.7112109,-0.0010139\PG=C01 [X
 (Ca3O5P1)]\\@


 IT WAS A GAME, A VERY INTERESTING GAME ONE COULD
 PLAY.  WHENEVER ONE SOLVED ONE OF THE LITTLE PROBLEMS,
 ONE COULD WRITE A PAPER ABOUT IT.  IT WAS VERY EASY IN
 THOSE DAYS FOR ANY SECOND-RATE PHYSICIST TO DO
 FIRST-RATE WORK.  THERE HAS NOT BEEN SUCH A GLORIOUS
 TIME SINCE.  IT IS VERY DIFFICULT NOW FOR A FIRST-RATE
 PHYSICIST TO DO SECOND-RATE WORK.
     P.A.M. DIRAC, ON THE EARLY DAYS OF QUANTUM MECHANICS
                   DIRECTIONS IN PHYSICS, 1978, P. 7
 Job cpu time:  0 days  0 hours  1 minutes 52.1 seconds.
 File lengths (MBytes):  RWF=     36 Int=      0 D2E=      0 Chk=     11 Scr=      1
 Normal termination of Gaussian 03 at Fri Jun 12 18:12:49 2015.
