 Entering Gaussian System, Link 0=/home/timn/tmp/g03.e01/g03
 Input=mol_17.25.15.pdbc_plusQ.z58322.zip.xyz.gjf
 Output=mol_17.25.15.pdbc_plusQ.z58322.zip.xyz.out
 Initial command:
 /home/timn/tmp/g03.e01/l1.exe /home/timn/tmp/g03.e01/Gau-12872.inp -scrdir=/home/timn/tmp/g03.e01/
 Default is to use a total of   2 processors:
                                2 via shared-memory
                                1 via Linda
 Entering Link 1 = /home/timn/tmp/g03.e01/l1.exe PID=     12873.
  
 Copyright (c) 1988,1990,1992,1993,1995,1998,2003,2004,2007, Gaussian, Inc.
                  All Rights Reserved.
  
 This is the Gaussian(R) 03 program.  It is based on the
 the Gaussian(R) 98 system (copyright 1998, Gaussian, Inc.),
 the Gaussian(R) 94 system (copyright 1995, Gaussian, Inc.),
 the Gaussian 92(TM) system (copyright 1992, Gaussian, Inc.),
 the Gaussian 90(TM) system (copyright 1990, Gaussian, Inc.),
 the Gaussian 88(TM) system (copyright 1988, Gaussian, Inc.),
 the Gaussian 86(TM) system (copyright 1986, Carnegie Mellon
 University), and the Gaussian 82(TM) system (copyright 1983,
 Carnegie Mellon University). Gaussian is a federally registered
 trademark of Gaussian, Inc.
  
 This software contains proprietary and confidential information,
 including trade secrets, belonging to Gaussian, Inc.
  
 This software is provided under written license and may be
 used, copied, transmitted, or stored only in accord with that
 written license.
  
 The following legend is applicable only to US Government
 contracts under FAR:
  
                    RESTRICTED RIGHTS LEGEND
  
 Use, reproduction and disclosure by the US Government is
 subject to restrictions as set forth in subparagraphs (a)
 and (c) of the Commercial Computer Software - Restricted
 Rights clause in FAR 52.227-19.
  
 Gaussian, Inc.
 340 Quinnipiac St., Bldg. 40, Wallingford CT 06492
  
  
 ---------------------------------------------------------------
 Warning -- This program may not be used in any manner that
 competes with the business of Gaussian, Inc. or will provide
 assistance to any competitor of Gaussian, Inc.  The licensee
 of this program is prohibited from giving any competitor of
 Gaussian, Inc. access to this program.  By using this program,
 the user acknowledges that Gaussian, Inc. is engaged in the
 business of creating and licensing software in the field of
 computational chemistry and represents and warrants to the
 licensee that it is not a competitor of Gaussian, Inc. and that
 it will not use this program in any manner prohibited above.
 ---------------------------------------------------------------
  

 Cite this work as:
 Gaussian 03, Revision E.01,
 M. J. Frisch, G. W. Trucks, H. B. Schlegel, G. E. Scuseria, 
 M. A. Robb, J. R. Cheeseman, J. A. Montgomery, Jr., T. Vreven, 
 K. N. Kudin, J. C. Burant, J. M. Millam, S. S. Iyengar, J. Tomasi, 
 V. Barone, B. Mennucci, M. Cossi, G. Scalmani, N. Rega, 
 G. A. Petersson, H. Nakatsuji, M. Hada, M. Ehara, K. Toyota, 
 R. Fukuda, J. Hasegawa, M. Ishida, T. Nakajima, Y. Honda, O. Kitao, 
 H. Nakai, M. Klene, X. Li, J. E. Knox, H. P. Hratchian, J. B. Cross, 
 V. Bakken, C. Adamo, J. Jaramillo, R. Gomperts, R. E. Stratmann, 
 O. Yazyev, A. J. Austin, R. Cammi, C. Pomelli, J. W. Ochterski, 
 P. Y. Ayala, K. Morokuma, G. A. Voth, P. Salvador, J. J. Dannenberg, 
 V. G. Zakrzewski, S. Dapprich, A. D. Daniels, M. C. Strain, 
 O. Farkas, D. K. Malick, A. D. Rabuck, K. Raghavachari, 
 J. B. Foresman, J. V. Ortiz, Q. Cui, A. G. Baboul, S. Clifford, 
 J. Cioslowski, B. B. Stefanov, G. Liu, A. Liashenko, P. Piskorz, 
 I. Komaromi, R. L. Martin, D. J. Fox, T. Keith, M. A. Al-Laham, 
 C. Y. Peng, A. Nanayakkara, M. Challacombe, P. M. W. Gill, 
 B. Johnson, W. Chen, M. W. Wong, C. Gonzalez, and J. A. Pople, 
 Gaussian, Inc., Wallingford CT, 2004.
 
 ******************************************
 Gaussian 03:  EM64T-G03RevE.01 11-Sep-2007
                12-Jun-2015 
 ******************************************
 %nproc=2
 Will use up to    2 processors via shared memory.
 Default route:  MP2=Direct MaxDisk=2000MB
 ----------------------------------------------------
 # b3lyp/6-31+G(d,p) int=ultrafine pop=(ReadRadii,MK)
 ----------------------------------------------------

 Warning!  SCF SP cutoffs with diffuse functions may be unreliable.
 Consider SCF=Tight

 1/38=1/1;
 2/17=6,18=5,40=1/2;
 3/5=1,6=6,7=111,11=2,16=1,25=1,30=1,74=-5,75=5/1,2,3;
 4//1;
 5/5=2,32=1,38=5/2;
 6/7=2,8=2,9=2,10=2,15=8,20=101,28=1/1,2;
 99/5=1,9=1/99;
 --------------------------------------
 mol_17.25.15.pdbc_plusQ.z58322.zip.xyz
 --------------------------------------
 Symbolic Z-matrix:
 Charge =  1 Multiplicity = 1
 O                     1.12757   1.46033  -0.00036 
 O                     3.54328   0.69416  -0.00013 
 P                     2.60444   1.91842  -0.00102 
 Ca                    3.42759  -1.61026  -0.00017 
 Ca                   -0.24463  -0.37922   0.00076 
 O                    -2.32304  -0.30843   1.19082 
 O                    -2.49618  -1.20431   0.00494 
 O                    -2.32347  -0.31947  -1.18924 
 Ca                   -4.14755   0.42175  -0.00224 
 
                          Input orientation:                          
 ---------------------------------------------------------------------
 Center     Atomic     Atomic              Coordinates (Angstroms)
 Number     Number      Type              X           Y           Z
 ---------------------------------------------------------------------
    1          8             0        1.127570    1.460330   -0.000360
    2          8             0        3.543280    0.694160   -0.000130
    3         15             0        2.604440    1.918420   -0.001020
    4         20             0        3.427590   -1.610260   -0.000170
    5         20             0       -0.244630   -0.379220    0.000760
    6          8             0       -2.323040   -0.308430    1.190820
    7          8             0       -2.496180   -1.204310    0.004940
    8          8             0       -2.323470   -0.319470   -1.189240
    9         20             0       -4.147550    0.421750   -0.002240
 ---------------------------------------------------------------------
                    Distance matrix (angstroms):
                    1          2          3          4          5
     1  O    0.000000
     2  O    2.534299   0.000000
     3  P    1.546283   1.542801   0.000000
     4  Ca   3.836485   2.307322   3.623418   0.000000
     5  Ca   2.294968   3.937056   3.660103   3.873069   0.000000
     6  O    4.056369   6.069371   5.537093   6.015228   2.396047
     7  O    4.497988   6.330821   5.980619   5.937666   2.397972
     8  O    4.060887   6.071259   5.541147   6.012879   2.396090
     9  Ca   5.376388   7.695653   6.915880   7.842947   3.984262
                    6          7          8          9
     6  O    0.000000
     7  O    1.496292   0.000000
     8  O    2.380086   1.496274   0.000000
     9  Ca   2.298998   2.317573   2.299053   0.000000
 Stoichiometry    Ca3O5P(1+)
 Framework group  C1[X(Ca3O5P)]
 Deg. of freedom    21
 Full point group                 C1
 Largest Abelian subgroup         C1      NOp   1
 Largest concise Abelian subgroup C1      NOp   1
                         Standard orientation:                         
 ---------------------------------------------------------------------
 Center     Atomic     Atomic              Coordinates (Angstroms)
 Number     Number      Type              X           Y           Z
 ---------------------------------------------------------------------
    1          8             0        1.127570    1.460330   -0.000359
    2          8             0        3.543279    0.694160   -0.000129
    3         15             0        2.604440    1.918420   -0.001019
    4         20             0        3.427589   -1.610260   -0.000169
    5         20             0       -0.244631   -0.379219    0.000761
    6          8             0       -2.323041   -0.308429    1.190821
    7          8             0       -2.496181   -1.204309    0.004941
    8          8             0       -2.323471   -0.319469   -1.189239
    9         20             0       -4.147551    0.421751   -0.002239
 ---------------------------------------------------------------------
 Rotational constants (GHZ):      1.4695064      0.2648462      0.2338093
 Standard basis: 6-31+G(d,p) (6D, 7F)
 There are   199 symmetry adapted basis functions of A   symmetry.
 Integral buffers will be    131072 words long.
 Raffenetti 2 integral format.
 Two-electron integral symmetry is turned on.
   199 basis functions,   456 primitive gaussians,   199 cartesian basis functions
    57 alpha electrons       57 beta electrons
       nuclear repulsion energy       876.7704608255 Hartrees.
 NAtoms=    9 NActive=    9 NUniq=    9 SFac= 7.50D-01 NAtFMM=   80 NAOKFM=F Big=F
 One-electron integrals computed using PRISM.
 NBasis=   199 RedAO= T  NBF=   199
 NBsUse=   199 1.00D-06 NBFU=   199
 Harris functional with IExCor=  402 diagonalized for initial guess.
 ExpMin= 7.10D-03 ExpMax= 3.53D+04 ExpMxC= 5.30D+03 IAcc=3 IRadAn=         5 AccDes= 0.00D+00
 HarFok:  IExCor= 402 AccDes= 0.00D+00 IRadAn=         5 IDoV=1
 ScaDFX=  1.000000  1.000000  1.000000  1.000000
 Initial guess orbital symmetries:
       Occupied  (A) (A) (A) (A) (A) (A) (A) (A) (A) (A) (A) (A)
                 (A) (A) (A) (A) (A) (A) (A) (A) (A) (A) (A) (A)
                 (A) (A) (A) (A) (A) (A) (A) (A) (A) (A) (A) (A)
                 (A) (A) (A) (A) (A) (A) (A) (A) (A) (A) (A) (A)
                 (A) (A) (A) (A) (A) (A) (A) (A) (A)
       Virtual   (A) (A) (A) (A) (A) (A) (A) (A) (A) (A) (A) (A)
                 (A) (A) (A) (A) (A) (A) (A) (A) (A) (A) (A) (A)
                 (A) (A) (A) (A) (A) (A) (A) (A) (A) (A) (A) (A)
                 (A) (A) (A) (A) (A) (A) (A) (A) (A) (A) (A) (A)
                 (A) (A) (A) (A) (A) (A) (A) (A) (A) (A) (A) (A)
                 (A) (A) (A) (A) (A) (A) (A) (A) (A) (A) (A) (A)
                 (A) (A) (A) (A) (A) (A) (A) (A) (A) (A) (A) (A)
                 (A) (A) (A) (A) (A) (A) (A) (A) (A) (A) (A) (A)
                 (A) (A) (A) (A) (A) (A) (A) (A) (A) (A) (A) (A)
                 (A) (A) (A) (A) (A) (A) (A) (A) (A) (A) (A) (A)
                 (A) (A) (A) (A) (A) (A) (A) (A) (A) (A) (A) (A)
                 (A) (A) (A) (A) (A) (A) (A) (A) (A) (A)
 The electronic state of the initial guess is 1-A.
 Requested convergence on RMS density matrix=1.00D-04 within 128 cycles.
 Requested convergence on MAX density matrix=1.00D-02.
 Requested convergence on             energy=1.00D-02.
 No special actions if energy rises.
 Rare condition: small coef for last iteration:  0.000D+00
 EnCoef did   100 forward-backward iterations
 EnCoef did   100 forward-backward iterations
 EnCoef did   100 forward-backward iterations
 EnCoef did     4 forward-backward iterations
 SCF Done:  E(RB+HF-LYP) =  -2750.03293846     A.U. after   16 cycles
             Convg  =    0.5172D-04             -V/T =  2.0029
             S**2   =   0.0000

 **********************************************************************

            Population analysis using the SCF density.

 **********************************************************************

 Orbital symmetries:
       Occupied  (A) (A) (A) (A) (A) (A) (A) (A) (A) (A) (A) (A)
                 (A) (A) (A) (A) (A) (A) (A) (A) (A) (A) (A) (A)
                 (A) (A) (A) (A) (A) (A) (A) (A) (A) (A) (A) (A)
                 (A) (A) (A) (A) (A) (A) (A) (A) (A) (A) (A) (A)
                 (A) (A) (A) (A) (A) (A) (A) (A) (A)
       Virtual   (A) (A) (A) (A) (A) (A) (A) (A) (A) (A) (A) (A)
                 (A) (A) (A) (A) (A) (A) (A) (A) (A) (A) (A) (A)
                 (A) (A) (A) (A) (A) (A) (A) (A) (A) (A) (A) (A)
                 (A) (A) (A) (A) (A) (A) (A) (A) (A) (A) (A) (A)
                 (A) (A) (A) (A) (A) (A) (A) (A) (A) (A) (A) (A)
                 (A) (A) (A) (A) (A) (A) (A) (A) (A) (A) (A) (A)
                 (A) (A) (A) (A) (A) (A) (A) (A) (A) (A) (A) (A)
                 (A) (A) (A) (A) (A) (A) (A) (A) (A) (A) (A) (A)
                 (A) (A) (A) (A) (A) (A) (A) (A) (A) (A) (A) (A)
                 (A) (A) (A) (A) (A) (A) (A) (A) (A) (A) (A) (A)
                 (A) (A) (A) (A) (A) (A) (A) (A) (A) (A) (A) (A)
                 (A) (A) (A) (A) (A) (A) (A) (A) (A) (A)
 The electronic state is 1-A.
 Alpha  occ. eigenvalues -- -145.56217-145.50767-145.48704 -77.27371 -19.38536
 Alpha  occ. eigenvalues --  -19.29089 -19.29080 -19.25156 -19.25019 -15.63054
 Alpha  occ. eigenvalues --  -15.57763 -15.55534 -12.76283 -12.76223 -12.76181
 Alpha  occ. eigenvalues --  -12.70953 -12.70941 -12.70840 -12.68760 -12.68735
 Alpha  occ. eigenvalues --  -12.68648  -6.72903  -4.89349  -4.89126  -4.88678
 Alpha  occ. eigenvalues --   -2.00006  -1.94838  -1.92696  -1.29462  -1.27543
 Alpha  occ. eigenvalues --   -1.27236  -1.23496  -1.22300  -1.22226  -1.22038
 Alpha  occ. eigenvalues --   -1.20331  -1.20288  -1.18554  -1.11272  -1.05789
 Alpha  occ. eigenvalues --   -1.04633  -0.89675  -0.64880  -0.58699  -0.57715
 Alpha  occ. eigenvalues --   -0.56849  -0.54320  -0.50183  -0.49936  -0.44981
 Alpha  occ. eigenvalues --   -0.42927  -0.42671  -0.41064  -0.39888  -0.38405
 Alpha  occ. eigenvalues --   -0.37931  -0.25357
 Alpha virt. eigenvalues --   -0.23453  -0.17324  -0.16525  -0.15267  -0.14037
 Alpha virt. eigenvalues --   -0.13315  -0.13275  -0.11184  -0.10576  -0.09988
 Alpha virt. eigenvalues --   -0.08531  -0.07696  -0.07311  -0.07047  -0.06848
 Alpha virt. eigenvalues --   -0.05518  -0.05137  -0.04982  -0.04792  -0.04566
 Alpha virt. eigenvalues --   -0.04534  -0.03643  -0.03154  -0.03111  -0.02860
 Alpha virt. eigenvalues --   -0.02438  -0.02391  -0.02230  -0.01813  -0.01175
 Alpha virt. eigenvalues --    0.00235   0.00609   0.01494   0.02024   0.02260
 Alpha virt. eigenvalues --    0.02760   0.03699   0.03990   0.04981   0.05378
 Alpha virt. eigenvalues --    0.05758   0.05934   0.06399   0.06494   0.06704
 Alpha virt. eigenvalues --    0.06817   0.06916   0.07688   0.08336   0.09432
 Alpha virt. eigenvalues --    0.09536   0.09858   0.10045   0.12953   0.13810
 Alpha virt. eigenvalues --    0.14096   0.15143   0.15761   0.15893   0.17455
 Alpha virt. eigenvalues --    0.18161   0.18826   0.20069   0.20764   0.20908
 Alpha virt. eigenvalues --    0.22189   0.24175   0.24574   0.27278   0.28538
 Alpha virt. eigenvalues --    0.29305   0.30927   0.31873   0.34081   0.34417
 Alpha virt. eigenvalues --    0.37032   0.38340   0.39896   0.42847   0.44940
 Alpha virt. eigenvalues --    0.48247   0.49965   0.52651   0.59303   0.60128
 Alpha virt. eigenvalues --    0.61648   0.71709   0.81619   0.87421   0.90559
 Alpha virt. eigenvalues --    0.98270   1.03276   1.04478   1.07280   1.08261
 Alpha virt. eigenvalues --    1.09222   1.10707   1.11126   1.13063   1.13318
 Alpha virt. eigenvalues --    1.18940   1.19203   1.19829   1.23202   1.24995
 Alpha virt. eigenvalues --    1.31668   1.36424   1.40296   1.42083   1.45763
 Alpha virt. eigenvalues --    1.50367   1.55736   1.57627   1.67002   1.68547
 Alpha virt. eigenvalues --    1.69050   1.72478   1.73985   1.74704   1.75899
 Alpha virt. eigenvalues --    1.77658   1.82323   1.84707   1.85258   1.88219
 Alpha virt. eigenvalues --    1.88673   1.88869   1.94592   2.11248   2.19882
 Alpha virt. eigenvalues --    2.21665   2.41403   2.56543   2.71327   3.02965
 Alpha virt. eigenvalues --    3.04556   3.42151   3.85193   3.95005   3.97644
 Alpha virt. eigenvalues --    4.03904   4.20926
          Condensed to atoms (all electrons):
              1          2          3          4          5          6
     1  O    8.918443  -0.039471  -0.129297  -0.124379  -0.002621   0.003219
     2  O   -0.039471   8.879064  -0.064820  -0.132079  -0.056049   0.000034
     3  P   -0.129297  -0.064820  14.599372   0.002814  -0.086114  -0.001021
     4  Ca  -0.124379  -0.132079   0.002814  20.076913   0.289358  -0.009857
     5  Ca  -0.002621  -0.056049  -0.086114   0.289358  18.856774   0.080476
     6  O    0.003219   0.000034  -0.001021  -0.009857   0.080476   8.402318
     7  O   -0.003965   0.000015   0.001512  -0.006704   0.010395   0.037323
     8  O    0.003205   0.000034  -0.001019  -0.009873   0.080495   0.000995
     9  Ca   0.030887   0.025230  -0.031554  -0.346924  -0.173692   0.106648
              7          8          9
     1  O   -0.003965   0.003205   0.030887
     2  O    0.000015   0.000034   0.025230
     3  P    0.001512  -0.001019  -0.031554
     4  Ca  -0.006704  -0.009873  -0.346924
     5  Ca   0.010395   0.080495  -0.173692
     6  O    0.037323   0.000995   0.106648
     7  O    7.914031   0.037258   0.035421
     8  O    0.037258   8.402199   0.106834
     9  Ca   0.035421   0.106834  18.685460
 Mulliken atomic charges:
              1
     1  O   -0.656020
     2  O   -0.611958
     3  P    0.710127
     4  Ca   0.260733
     5  Ca   1.000977
     6  O   -0.620134
     7  O   -0.025287
     8  O   -0.620128
     9  Ca   1.561690
 Sum of Mulliken charges=   1.00000
 Atomic charges with hydrogens summed into heavy atoms:
              1
     1  O   -0.656020
     2  O   -0.611958
     3  P    0.710127
     4  Ca   0.260733
     5  Ca   1.000977
     6  O   -0.620134
     7  O   -0.025287
     8  O   -0.620128
     9  Ca   1.561690
 Sum of Mulliken charges=   1.00000
 Electronic spatial extent (au):  <R**2>=  4041.7852
 Charge=     1.0000 electrons
 Dipole moment (field-independent basis, Debye):
    X=    -8.1021    Y=    -0.2177    Z=    -0.0172  Tot=     8.1051
 Quadrupole moment (field-independent basis, Debye-Ang):
   XX=    16.3470   YY=   -83.3980   ZZ=   -90.4506
   XY=   -29.1482   XZ=     0.0631   YZ=    -0.0359
 Traceless Quadrupole moment (field-independent basis, Debye-Ang):
   XX=    68.8475   YY=   -30.8974   ZZ=   -37.9500
   XY=   -29.1482   XZ=     0.0631   YZ=    -0.0359
 Octapole moment (field-independent basis, Debye-Ang**2):
  XXX=  -320.0140  YYY=    20.6867  ZZZ=    -0.0387  XYY=    -1.7829
  XXY=    -9.8233  XXZ=    -0.2619  XZZ=    -1.9037  YZZ=    13.6289
  YYZ=     0.0289  XYZ=     0.1039
 Hexadecapole moment (field-independent basis, Debye-Ang**3):
 XXXX= -2040.9057 YYYY=  -925.8772 ZZZZ=  -260.6174 XXXY=  -452.6433
 XXXZ=     0.8946 YYYX=     7.5443 YYYZ=     0.0050 ZZZX=     0.1150
 ZZZY=    -0.0717 XXYY=  -709.2726 XXZZ=  -749.9191 YYZZ=  -191.8532
 XXYZ=    -0.2405 YYXZ=    -0.0323 ZZXY=     9.4048
 N-N= 8.767704608255D+02 E-N=-8.251196155501D+03  KE= 2.742161858696D+03
 Merz-Kollman atomic radii used.
 Read replacement radii for each type of atom:
 Rad(20) =   1.188000000000D+00
 Atom Element Radius
    1     8    1.40
    2     8    1.40
    3    15    1.80
    4    20    1.19
    5    20    1.19
    6     8    1.40
    7     8    1.40
    8     8    1.40
    9    20    1.19

 **********************************************************************

            Electrostatic Properties Using The SCF Density

 **********************************************************************

       Atomic Center    1 is at   1.127570  1.460330 -0.000359
       Atomic Center    2 is at   3.543279  0.694160 -0.000129
       Atomic Center    3 is at   2.604440  1.918420 -0.001019
       Atomic Center    4 is at   3.427589 -1.610260 -0.000169
       Atomic Center    5 is at  -0.244631 -0.379219  0.000761
       Atomic Center    6 is at  -2.323041 -0.308429  1.190821
       Atomic Center    7 is at  -2.496181 -1.204309  0.004941
       Atomic Center    8 is at  -2.323471 -0.319469 -1.189239
       Atomic Center    9 is at  -4.147551  0.421751 -0.002239
     915 points will be used for fitting atomic charges
 Fitting point charges to eletrostatic potential
 Charges from ESP fit, RMS=   0.01933 RRMS=   0.13518:
 Charge=   1.00000 Dipole=    -8.7013    -2.4581    -0.0144 Tot=     9.0418
              1
     1  O   -0.243674
     2  O   -0.260958
     3  P    0.036922
     4  Ca   0.593300
     5  Ca   0.831687
     6  O   -0.526348
     7  O   -0.265475
     8  O   -0.527675
     9  Ca   1.362221
 -----------------------------------------------------------------

              Electrostatic Properties (Atomic Units)

 -----------------------------------------------------------------
    Center     Electric         -------- Electric Field --------
               Potential          X             Y             Z
 -----------------------------------------------------------------
    1 Atom    -22.213755
    2 Atom    -22.215937
    3 Atom    -53.944383
    4 Atom    -80.038944
    5 Atom    -80.054745
    6 Atom    -22.182216
    7 Atom    -22.091319
    8 Atom    -22.181932
    9 Atom    -79.976719
 -----------------------------------------------------------------
 1\1\GINC-N033\SP\RB3LYP\6-31+G(d,p)\Ca3O5P1(1+)\TIMN\12-Jun-2015\0\\# 
 b3lyp/6-31+G(d,p) int=ultrafine pop=(ReadRadii,MK)\\mol_17.25.15.pdbc_
 plusQ.z58322.zip.xyz\\1,1\O,0,1.12757,1.46033,-0.00036\O,0,3.54328,0.6
 9416,-0.00013\P,0,2.60444,1.91842,-0.00102\Ca,0,3.42759,-1.61026,-0.00
 017\Ca,0,-0.24463,-0.37922,0.00076\O,0,-2.32304,-0.30843,1.19082\O,0,-
 2.49618,-1.20431,0.00494\O,0,-2.32347,-0.31947,-1.18924\Ca,0,-4.14755,
 0.42175,-0.00224\\Version=EM64T-G03RevE.01\State=1-A\HF=-2750.0329385\
 RMSD=5.172e-05\Thermal=0.\Dipole=-3.1876313,-0.0856419,-0.0067589\PG=C
 01 [X(Ca3O5P1)]\\@


 Sacred cows make the best hamburger.
                               -- Mark Twain
 Job cpu time:  0 days  0 hours  3 minutes 16.8 seconds.
 File lengths (MBytes):  RWF=     36 Int=      0 D2E=      0 Chk=     11 Scr=      1
 Normal termination of Gaussian 03 at Fri Jun 12 17:58:12 2015.
