 Entering Gaussian System, Link 0=/home/timn/tmp/g03.e01/g03
 Input=mol_17.27.38.pdbcccc_plusQ.z58504.zip.xyz.gjf
 Output=mol_17.27.38.pdbcccc_plusQ.z58504.zip.xyz.out
 Initial command:
 /home/timn/tmp/g03.e01/l1.exe /home/timn/tmp/g03.e01/Gau-15005.inp -scrdir=/home/timn/tmp/g03.e01/
 Default is to use a total of   2 processors:
                                2 via shared-memory
                                1 via Linda
 Entering Link 1 = /home/timn/tmp/g03.e01/l1.exe PID=     15008.
  
 Copyright (c) 1988,1990,1992,1993,1995,1998,2003,2004,2007, Gaussian, Inc.
                  All Rights Reserved.
  
 This is the Gaussian(R) 03 program.  It is based on the
 the Gaussian(R) 98 system (copyright 1998, Gaussian, Inc.),
 the Gaussian(R) 94 system (copyright 1995, Gaussian, Inc.),
 the Gaussian 92(TM) system (copyright 1992, Gaussian, Inc.),
 the Gaussian 90(TM) system (copyright 1990, Gaussian, Inc.),
 the Gaussian 88(TM) system (copyright 1988, Gaussian, Inc.),
 the Gaussian 86(TM) system (copyright 1986, Carnegie Mellon
 University), and the Gaussian 82(TM) system (copyright 1983,
 Carnegie Mellon University). Gaussian is a federally registered
 trademark of Gaussian, Inc.
  
 This software contains proprietary and confidential information,
 including trade secrets, belonging to Gaussian, Inc.
  
 This software is provided under written license and may be
 used, copied, transmitted, or stored only in accord with that
 written license.
  
 The following legend is applicable only to US Government
 contracts under FAR:
  
                    RESTRICTED RIGHTS LEGEND
  
 Use, reproduction and disclosure by the US Government is
 subject to restrictions as set forth in subparagraphs (a)
 and (c) of the Commercial Computer Software - Restricted
 Rights clause in FAR 52.227-19.
  
 Gaussian, Inc.
 340 Quinnipiac St., Bldg. 40, Wallingford CT 06492
  
  
 ---------------------------------------------------------------
 Warning -- This program may not be used in any manner that
 competes with the business of Gaussian, Inc. or will provide
 assistance to any competitor of Gaussian, Inc.  The licensee
 of this program is prohibited from giving any competitor of
 Gaussian, Inc. access to this program.  By using this program,
 the user acknowledges that Gaussian, Inc. is engaged in the
 business of creating and licensing software in the field of
 computational chemistry and represents and warrants to the
 licensee that it is not a competitor of Gaussian, Inc. and that
 it will not use this program in any manner prohibited above.
 ---------------------------------------------------------------
  

 Cite this work as:
 Gaussian 03, Revision E.01,
 M. J. Frisch, G. W. Trucks, H. B. Schlegel, G. E. Scuseria, 
 M. A. Robb, J. R. Cheeseman, J. A. Montgomery, Jr., T. Vreven, 
 K. N. Kudin, J. C. Burant, J. M. Millam, S. S. Iyengar, J. Tomasi, 
 V. Barone, B. Mennucci, M. Cossi, G. Scalmani, N. Rega, 
 G. A. Petersson, H. Nakatsuji, M. Hada, M. Ehara, K. Toyota, 
 R. Fukuda, J. Hasegawa, M. Ishida, T. Nakajima, Y. Honda, O. Kitao, 
 H. Nakai, M. Klene, X. Li, J. E. Knox, H. P. Hratchian, J. B. Cross, 
 V. Bakken, C. Adamo, J. Jaramillo, R. Gomperts, R. E. Stratmann, 
 O. Yazyev, A. J. Austin, R. Cammi, C. Pomelli, J. W. Ochterski, 
 P. Y. Ayala, K. Morokuma, G. A. Voth, P. Salvador, J. J. Dannenberg, 
 V. G. Zakrzewski, S. Dapprich, A. D. Daniels, M. C. Strain, 
 O. Farkas, D. K. Malick, A. D. Rabuck, K. Raghavachari, 
 J. B. Foresman, J. V. Ortiz, Q. Cui, A. G. Baboul, S. Clifford, 
 J. Cioslowski, B. B. Stefanov, G. Liu, A. Liashenko, P. Piskorz, 
 I. Komaromi, R. L. Martin, D. J. Fox, T. Keith, M. A. Al-Laham, 
 C. Y. Peng, A. Nanayakkara, M. Challacombe, P. M. W. Gill, 
 B. Johnson, W. Chen, M. W. Wong, C. Gonzalez, and J. A. Pople, 
 Gaussian, Inc., Wallingford CT, 2004.
 
 ******************************************
 Gaussian 03:  EM64T-G03RevE.01 11-Sep-2007
                12-Jun-2015 
 ******************************************
 %nproc=2
 Will use up to    2 processors via shared memory.
 Default route:  MP2=Direct MaxDisk=2000MB
 ----------------------------------------------------
 # b3lyp/6-31+G(d,p) int=ultrafine pop=(ReadRadii,MK)
 ----------------------------------------------------

 Warning!  SCF SP cutoffs with diffuse functions may be unreliable.
 Consider SCF=Tight

 1/38=1/1;
 2/17=6,18=5,40=1/2;
 3/5=1,6=6,7=111,11=2,16=1,25=1,30=1,74=-5,75=5/1,2,3;
 4//1;
 5/5=2,32=1,38=5/2;
 6/7=2,8=2,9=2,10=2,15=8,20=101,28=1/1,2;
 99/5=1,9=1/99;
 -----------------------------------------
 mol_17.27.38.pdbcccc_plusQ.z58504.zip.xyz
 -----------------------------------------
 Symbolic Z-matrix:
 Charge =  1 Multiplicity = 1
 O                     1.70487   0.74409  -0.00117 
 O                    -0.69104  -2.00734  -0.78433 
 O                    -0.68853  -2.00642   0.785 
 Ca                    1.36619  -1.71732  -0.00312 
 P                     3.29795   0.49334   0.00397 
 Ca                   -2.39065  -0.71978   0.00234 
 Ca                   -0.0574    2.28215  -0.00232 
 O                    -1.90325   1.36552  -0.78524 
 O                    -1.90107   1.36652   0.78603 
 
                          Input orientation:                          
 ---------------------------------------------------------------------
 Center     Atomic     Atomic              Coordinates (Angstroms)
 Number     Number      Type              X           Y           Z
 ---------------------------------------------------------------------
    1          8             0        1.704870    0.744090   -0.001170
    2          8             0       -0.691040   -2.007340   -0.784330
    3          8             0       -0.688530   -2.006420    0.785000
    4         20             0        1.366190   -1.717320   -0.003120
    5         15             0        3.297950    0.493340    0.003970
    6         20             0       -2.390650   -0.719780    0.002340
    7         20             0       -0.057400    2.282150   -0.002320
    8          8             0       -1.903250    1.365520   -0.785240
    9          8             0       -1.901070    1.366520    0.786030
 ---------------------------------------------------------------------
                    Distance matrix (angstroms):
                    1          2          3          4          5
     1  O    0.000000
     2  O    3.731500   0.000000
     3  O    3.729843   1.569332   0.000000
     4  Ca   2.484602   2.219594   2.219591   0.000000
     5  P    1.612701   4.773558   4.769783   2.935773   0.000000
     6  Ca   4.349277   2.272737   2.272710   3.887025   5.816514
     7  Ca   2.339065   4.405992   4.405682   4.245276   3.802401
     8  O    3.744258   3.584081   3.912950   4.561234   5.332545
     9  O    3.742981   3.913200   3.584268   4.561558   5.329528
                    6          7          8          9
     6  Ca   0.000000
     7  Ca   3.802060   0.000000
     8  O    2.281736   2.204617   0.000000
     9  O    2.281777   2.204312   1.571272   0.000000
 Stoichiometry    Ca3O5P(1+)
 Framework group  C1[X(Ca3O5P)]
 Deg. of freedom    21
 Full point group                 C1
 Largest Abelian subgroup         C1      NOp   1
 Largest concise Abelian subgroup C1      NOp   1
                         Standard orientation:                         
 ---------------------------------------------------------------------
 Center     Atomic     Atomic              Coordinates (Angstroms)
 Number     Number      Type              X           Y           Z
 ---------------------------------------------------------------------
    1          8             0        1.704870    0.744091   -0.001169
    2          8             0       -0.691037   -2.007341   -0.784329
    3          8             0       -0.688527   -2.006421    0.785001
    4         20             0        1.366193   -1.717319   -0.003119
    5         15             0        3.297950    0.493343    0.003971
    6         20             0       -2.390648   -0.719783    0.002341
    7         20             0       -0.057402    2.282149   -0.002319
    8          8             0       -1.903251    1.365517   -0.785239
    9          8             0       -1.901071    1.366517    0.786031
 ---------------------------------------------------------------------
 Rotational constants (GHZ):      0.8550454      0.5898008      0.3691499
 Standard basis: 6-31+G(d,p) (6D, 7F)
 There are   199 symmetry adapted basis functions of A   symmetry.
 Integral buffers will be    131072 words long.
 Raffenetti 2 integral format.
 Two-electron integral symmetry is turned on.
   199 basis functions,   456 primitive gaussians,   199 cartesian basis functions
    57 alpha electrons       57 beta electrons
       nuclear repulsion energy       955.6450423953 Hartrees.
 NAtoms=    9 NActive=    9 NUniq=    9 SFac= 7.50D-01 NAtFMM=   80 NAOKFM=F Big=F
 One-electron integrals computed using PRISM.
 NBasis=   199 RedAO= T  NBF=   199
 NBsUse=   199 1.00D-06 NBFU=   199
 Harris functional with IExCor=  402 diagonalized for initial guess.
 ExpMin= 7.10D-03 ExpMax= 3.53D+04 ExpMxC= 5.30D+03 IAcc=3 IRadAn=         5 AccDes= 0.00D+00
 HarFok:  IExCor= 402 AccDes= 0.00D+00 IRadAn=         5 IDoV=1
 ScaDFX=  1.000000  1.000000  1.000000  1.000000
 Initial guess orbital symmetries:
       Occupied  (A) (A) (A) (A) (A) (A) (A) (A) (A) (A) (A) (A)
                 (A) (A) (A) (A) (A) (A) (A) (A) (A) (A) (A) (A)
                 (A) (A) (A) (A) (A) (A) (A) (A) (A) (A) (A) (A)
                 (A) (A) (A) (A) (A) (A) (A) (A) (A) (A) (A) (A)
                 (A) (A) (A) (A) (A) (A) (A) (A) (A)
       Virtual   (A) (A) (A) (A) (A) (A) (A) (A) (A) (A) (A) (A)
                 (A) (A) (A) (A) (A) (A) (A) (A) (A) (A) (A) (A)
                 (A) (A) (A) (A) (A) (A) (A) (A) (A) (A) (A) (A)
                 (A) (A) (A) (A) (A) (A) (A) (A) (A) (A) (A) (A)
                 (A) (A) (A) (A) (A) (A) (A) (A) (A) (A) (A) (A)
                 (A) (A) (A) (A) (A) (A) (A) (A) (A) (A) (A) (A)
                 (A) (A) (A) (A) (A) (A) (A) (A) (A) (A) (A) (A)
                 (A) (A) (A) (A) (A) (A) (A) (A) (A) (A) (A) (A)
                 (A) (A) (A) (A) (A) (A) (A) (A) (A) (A) (A) (A)
                 (A) (A) (A) (A) (A) (A) (A) (A) (A) (A) (A) (A)
                 (A) (A) (A) (A) (A) (A) (A) (A) (A) (A) (A) (A)
                 (A) (A) (A) (A) (A) (A) (A) (A) (A) (A)
 The electronic state of the initial guess is 1-A.
 Requested convergence on RMS density matrix=1.00D-04 within 128 cycles.
 Requested convergence on MAX density matrix=1.00D-02.
 Requested convergence on             energy=1.00D-02.
 No special actions if energy rises.
 EnCoef did     8 forward-backward iterations
 EnCoef did     5 forward-backward iterations
 EnCoef did     7 forward-backward iterations
 EnCoef did     9 forward-backward iterations
 EnCoef did     3 forward-backward iterations
 SCF Done:  E(RB+HF-LYP) =  -2750.03107829     A.U. after   11 cycles
             Convg  =    0.7268D-04             -V/T =  2.0029
             S**2   =   0.0000

 **********************************************************************

            Population analysis using the SCF density.

 **********************************************************************

 Orbital symmetries:
       Occupied  (A) (A) (A) (A) (A) (A) (A) (A) (A) (A) (A) (A)
                 (A) (A) (A) (A) (A) (A) (A) (A) (A) (A) (A) (A)
                 (A) (A) (A) (A) (A) (A) (A) (A) (A) (A) (A) (A)
                 (A) (A) (A) (A) (A) (A) (A) (A) (A) (A) (A) (A)
                 (A) (A) (A) (A) (A) (A) (A) (A) (A)
       Virtual   (A) (A) (A) (A) (A) (A) (A) (A) (A) (A) (A) (A)
                 (A) (A) (A) (A) (A) (A) (A) (A) (A) (A) (A) (A)
                 (A) (A) (A) (A) (A) (A) (A) (A) (A) (A) (A) (A)
                 (A) (A) (A) (A) (A) (A) (A) (A) (A) (A) (A) (A)
                 (A) (A) (A) (A) (A) (A) (A) (A) (A) (A) (A) (A)
                 (A) (A) (A) (A) (A) (A) (A) (A) (A) (A) (A) (A)
                 (A) (A) (A) (A) (A) (A) (A) (A) (A) (A) (A) (A)
                 (A) (A) (A) (A) (A) (A) (A) (A) (A) (A) (A) (A)
                 (A) (A) (A) (A) (A) (A) (A) (A) (A) (A) (A) (A)
                 (A) (A) (A) (A) (A) (A) (A) (A) (A) (A) (A) (A)
                 (A) (A) (A) (A) (A) (A) (A) (A) (A) (A) (A) (A)
                 (A) (A) (A) (A) (A) (A) (A) (A) (A) (A)
 The electronic state is 1-A.
 Alpha  occ. eigenvalues -- -145.52409-145.50015-145.45809 -77.26739 -19.31841
 Alpha  occ. eigenvalues --  -19.23316 -19.22904 -19.22735 -19.22478 -15.59228
 Alpha  occ. eigenvalues --  -15.56919 -15.52708 -12.72455 -12.72441 -12.72321
 Alpha  occ. eigenvalues --  -12.70147 -12.70142 -12.69984 -12.65944 -12.65896
 Alpha  occ. eigenvalues --  -12.65796  -6.73065  -4.89824  -4.89311  -4.88312
 Alpha  occ. eigenvalues --   -1.96365  -1.94170  -1.90034  -1.24293  -1.23945
 Alpha  occ. eigenvalues --   -1.23903  -1.22055  -1.21911  -1.21840  -1.18183
 Alpha  occ. eigenvalues --   -1.17943  -1.17544  -1.12745  -1.05801  -1.04940
 Alpha  occ. eigenvalues --   -0.86937  -0.86382  -0.69544  -0.53341  -0.52067
 Alpha  occ. eigenvalues --   -0.51737  -0.46552  -0.46009  -0.45772  -0.44529
 Alpha  occ. eigenvalues --   -0.44030  -0.42837  -0.34700  -0.34106  -0.31952
 Alpha  occ. eigenvalues --   -0.31939  -0.30580
 Alpha virt. eigenvalues --   -0.26216  -0.19865  -0.17102  -0.14483  -0.13316
 Alpha virt. eigenvalues --   -0.12578  -0.11443  -0.09765  -0.09250  -0.08743
 Alpha virt. eigenvalues --   -0.07230  -0.07108  -0.06593  -0.06002  -0.05848
 Alpha virt. eigenvalues --   -0.05642  -0.04909  -0.04749  -0.04642  -0.04365
 Alpha virt. eigenvalues --   -0.04275  -0.03978  -0.03721  -0.03675  -0.03320
 Alpha virt. eigenvalues --   -0.03002  -0.02610  -0.02499  -0.02241  -0.01842
 Alpha virt. eigenvalues --    0.00417   0.00989   0.01224   0.01671   0.03192
 Alpha virt. eigenvalues --    0.03918   0.04102   0.04551   0.05165   0.06068
 Alpha virt. eigenvalues --    0.07627   0.08040   0.08443   0.08555   0.09245
 Alpha virt. eigenvalues --    0.09265   0.10179   0.10284   0.11418   0.11817
 Alpha virt. eigenvalues --    0.12857   0.13567   0.14168   0.14815   0.15669
 Alpha virt. eigenvalues --    0.16671   0.17121   0.18893   0.19680   0.20455
 Alpha virt. eigenvalues --    0.20724   0.21845   0.22794   0.22946   0.26363
 Alpha virt. eigenvalues --    0.27060   0.28236   0.31784   0.32178   0.33271
 Alpha virt. eigenvalues --    0.34409   0.35301   0.36979   0.37087   0.37449
 Alpha virt. eigenvalues --    0.38419   0.40112   0.41082   0.43083   0.48910
 Alpha virt. eigenvalues --    0.49586   0.54017   0.54792   0.57271   0.60973
 Alpha virt. eigenvalues --    0.67888   0.69015   0.76784   0.86624   0.89841
 Alpha virt. eigenvalues --    0.95637   1.04487   1.10372   1.11152   1.11384
 Alpha virt. eigenvalues --    1.13548   1.16107   1.18591   1.18961   1.19438
 Alpha virt. eigenvalues --    1.20514   1.21085   1.24025   1.25222   1.26954
 Alpha virt. eigenvalues --    1.35821   1.40852   1.52326   1.52479   1.53602
 Alpha virt. eigenvalues --    1.53619   1.53701   1.55846   1.62305   1.64473
 Alpha virt. eigenvalues --    1.71336   1.73754   1.74788   1.77594   1.80479
 Alpha virt. eigenvalues --    1.84079   1.84500   1.84598   1.86916   1.88668
 Alpha virt. eigenvalues --    1.88762   1.89326   1.95267   2.01752   2.18591
 Alpha virt. eigenvalues --    2.19660   2.20713   2.20871   2.45902   3.02902
 Alpha virt. eigenvalues --    3.04443   3.36510   3.86066   3.98588   4.11700
 Alpha virt. eigenvalues --    4.13258   4.17211
          Condensed to atoms (all electrons):
              1          2          3          4          5          6
     1  O    9.050812   0.001998   0.001956  -0.033292  -0.366189   0.003666
     2  O    0.001998   8.513693  -0.046246   0.112521  -0.003743   0.081500
     3  O    0.001956  -0.046246   8.520115   0.111716  -0.003623   0.081181
     4  Ca  -0.033292   0.112521   0.111716  18.291533   0.175476  -0.022092
     5  P   -0.366189  -0.003743  -0.003623   0.175476  15.155748   0.004006
     6  Ca   0.003666   0.081500   0.081181  -0.022092   0.004006  18.264615
     7  Ca   0.038767   0.003816   0.003683   0.002466  -0.011567  -0.023513
     8  O    0.002350   0.018369  -0.014410   0.003507  -0.001815   0.078881
     9  O    0.002325  -0.014405   0.018411   0.003346  -0.001783   0.078366
              7          8          9
     1  O    0.038767   0.002350   0.002325
     2  O    0.003816   0.018369  -0.014405
     3  O    0.003683  -0.014410   0.018411
     4  Ca   0.002466   0.003507   0.003346
     5  P   -0.011567  -0.001815  -0.001783
     6  Ca  -0.023513   0.078881   0.078366
     7  Ca  18.238237   0.119099   0.118106
     8  O    0.119099   8.487820  -0.033174
     9  O    0.118106  -0.033174   8.498107
 Mulliken atomic charges:
              1
     1  O   -0.702392
     2  O   -0.667504
     3  O   -0.672783
     4  Ca   1.354818
     5  P    0.053490
     6  Ca   1.453389
     7  Ca   1.510904
     8  O   -0.660627
     9  O   -0.669297
 Sum of Mulliken charges=   1.00000
 Atomic charges with hydrogens summed into heavy atoms:
              1
     1  O   -0.702392
     2  O   -0.667504
     3  O   -0.672783
     4  Ca   1.354818
     5  P    0.053490
     6  Ca   1.453389
     7  Ca   1.510904
     8  O   -0.660627
     9  O   -0.669297
 Sum of Mulliken charges=   1.00000
 Electronic spatial extent (au):  <R**2>=  2635.6418
 Charge=     1.0000 electrons
 Dipole moment (field-independent basis, Debye):
    X=     3.4517    Y=     2.5809    Z=    -0.0775  Tot=     4.3106
 Quadrupole moment (field-independent basis, Debye-Ang):
   XX=   -54.1210   YY=   -51.2976   ZZ=   -81.1228
   XY=     2.6705   XZ=    -0.0094   YZ=    -0.0225
 Traceless Quadrupole moment (field-independent basis, Debye-Ang):
   XX=     8.0594   YY=    10.8829   ZZ=   -18.9424
   XY=     2.6705   XZ=    -0.0094   YZ=    -0.0225
 Octapole moment (field-independent basis, Debye-Ang**2):
  XXX=  -100.3854  YYY=    92.3669  ZZZ=    -0.1085  XYY=    39.9977
  XXY=   -89.0017  XXZ=    -0.0872  XZZ=     7.6905  YZZ=     4.4357
  YYZ=    -0.3466  XYZ=     0.1515
 Hexadecapole moment (field-independent basis, Debye-Ang**3):
 XXXX= -1628.9539 YYYY=  -901.7681 ZZZZ=  -175.2762 XXXY=   100.4283
 XXXZ=    -0.7351 YYYX=   -85.0802 YYYZ=    -0.1304 ZZZX=    -0.1321
 ZZZY=    -0.0355 XXYY=  -525.0680 XXZZ=  -326.8799 YYZZ=  -234.3976
 XXYZ=    -0.2888 YYXZ=    -0.1829 ZZXY=     6.4252
 N-N= 9.556450423953D+02 E-N=-8.412170196804D+03  KE= 2.742134113680D+03
 Merz-Kollman atomic radii used.
 Read replacement radii for each type of atom:
 Rad(20) =   1.188000000000D+00
 Atom Element Radius
    1     8    1.40
    2     8    1.40
    3     8    1.40
    4    20    1.19
    5    15    1.80
    6    20    1.19
    7    20    1.19
    8     8    1.40
    9     8    1.40

 **********************************************************************

            Electrostatic Properties Using The SCF Density

 **********************************************************************

       Atomic Center    1 is at   1.704870  0.744091 -0.001169
       Atomic Center    2 is at  -0.691037 -2.007341 -0.784329
       Atomic Center    3 is at  -0.688527 -2.006421  0.785001
       Atomic Center    4 is at   1.366193 -1.717319 -0.003119
       Atomic Center    5 is at   3.297950  0.493343  0.003971
       Atomic Center    6 is at  -2.390648 -0.719783  0.002341
       Atomic Center    7 is at  -0.057402  2.282149 -0.002319
       Atomic Center    8 is at  -1.903251  1.365517 -0.785239
       Atomic Center    9 is at  -1.901071  1.366517  0.786031
     903 points will be used for fitting atomic charges
 Fitting point charges to eletrostatic potential
 Charges from ESP fit, RMS=   0.00856 RRMS=   0.05950:
 Charge=   1.00000 Dipole=     3.8067     2.3757    -0.0756 Tot=     4.4878
              1
     1  O   -0.775801
     2  O   -0.774077
     3  O   -0.779774
     4  Ca   1.486182
     5  P    0.030608
     6  Ca   1.713295
     7  Ca   1.733176
     8  O   -0.812677
     9  O   -0.820932
 -----------------------------------------------------------------

              Electrostatic Properties (Atomic Units)

 -----------------------------------------------------------------
    Center     Electric         -------- Electric Field --------
               Potential          X             Y             Z
 -----------------------------------------------------------------
    1 Atom    -22.143176
    2 Atom    -22.240811
    3 Atom    -22.248627
    4 Atom    -80.040479
    5 Atom    -53.947301
    6 Atom    -80.083012
    7 Atom    -80.016063
    8 Atom    -22.232422
    9 Atom    -22.244900
 -----------------------------------------------------------------
 1\1\GINC-N029\SP\RB3LYP\6-31+G(d,p)\Ca3O5P1(1+)\TIMN\12-Jun-2015\0\\# 
 b3lyp/6-31+G(d,p) int=ultrafine pop=(ReadRadii,MK)\\mol_17.27.38.pdbcc
 cc_plusQ.z58504.zip.xyz\\1,1\O,0,1.70487,0.74409,-0.00117\O,0,-0.69104
 ,-2.00734,-0.78433\O,0,-0.68853,-2.00642,0.785\Ca,0,1.36619,-1.71732,-
 0.00312\P,0,3.29795,0.49334,0.00397\Ca,0,-2.39065,-0.71978,0.00234\Ca,
 0,-0.0574,2.28215,-0.00232\O,0,-1.90325,1.36552,-0.78524\O,0,-1.90107,
 1.36652,0.78603\\Version=EM64T-G03RevE.01\State=1-A\HF=-2750.0310783\R
 MSD=7.268e-05\Thermal=0.\Dipole=1.3579874,1.0154026,-0.0305062\PG=C01 
 [X(Ca3O5P1)]\\@


 I do not feel obliged to believe that the same God who
 has endowed us with sense, reason, and intellect has
 intended us to forgo their use.
                   --Galileo Galilei
 Job cpu time:  0 days  0 hours  2 minutes 36.2 seconds.
 File lengths (MBytes):  RWF=     36 Int=      0 D2E=      0 Chk=     11 Scr=      1
 Normal termination of Gaussian 03 at Fri Jun 12 18:07:06 2015.
