 Entering Gaussian System, Link 0=/home/timn/tmp/g03.e01/g03
 Input=mol_17.25.27.pdb_plusQ.z58332.zip.xyz.gjf
 Output=mol_17.25.27.pdb_plusQ.z58332.zip.xyz.out
 Initial command:
 /home/timn/tmp/g03.e01/l1.exe /home/timn/tmp/g03.e01/Gau-12918.inp -scrdir=/home/timn/tmp/g03.e01/
 Default is to use a total of   2 processors:
                                2 via shared-memory
                                1 via Linda
 Entering Link 1 = /home/timn/tmp/g03.e01/l1.exe PID=     12919.
  
 Copyright (c) 1988,1990,1992,1993,1995,1998,2003,2004,2007, Gaussian, Inc.
                  All Rights Reserved.
  
 This is the Gaussian(R) 03 program.  It is based on the
 the Gaussian(R) 98 system (copyright 1998, Gaussian, Inc.),
 the Gaussian(R) 94 system (copyright 1995, Gaussian, Inc.),
 the Gaussian 92(TM) system (copyright 1992, Gaussian, Inc.),
 the Gaussian 90(TM) system (copyright 1990, Gaussian, Inc.),
 the Gaussian 88(TM) system (copyright 1988, Gaussian, Inc.),
 the Gaussian 86(TM) system (copyright 1986, Carnegie Mellon
 University), and the Gaussian 82(TM) system (copyright 1983,
 Carnegie Mellon University). Gaussian is a federally registered
 trademark of Gaussian, Inc.
  
 This software contains proprietary and confidential information,
 including trade secrets, belonging to Gaussian, Inc.
  
 This software is provided under written license and may be
 used, copied, transmitted, or stored only in accord with that
 written license.
  
 The following legend is applicable only to US Government
 contracts under FAR:
  
                    RESTRICTED RIGHTS LEGEND
  
 Use, reproduction and disclosure by the US Government is
 subject to restrictions as set forth in subparagraphs (a)
 and (c) of the Commercial Computer Software - Restricted
 Rights clause in FAR 52.227-19.
  
 Gaussian, Inc.
 340 Quinnipiac St., Bldg. 40, Wallingford CT 06492
  
  
 ---------------------------------------------------------------
 Warning -- This program may not be used in any manner that
 competes with the business of Gaussian, Inc. or will provide
 assistance to any competitor of Gaussian, Inc.  The licensee
 of this program is prohibited from giving any competitor of
 Gaussian, Inc. access to this program.  By using this program,
 the user acknowledges that Gaussian, Inc. is engaged in the
 business of creating and licensing software in the field of
 computational chemistry and represents and warrants to the
 licensee that it is not a competitor of Gaussian, Inc. and that
 it will not use this program in any manner prohibited above.
 ---------------------------------------------------------------
  

 Cite this work as:
 Gaussian 03, Revision E.01,
 M. J. Frisch, G. W. Trucks, H. B. Schlegel, G. E. Scuseria, 
 M. A. Robb, J. R. Cheeseman, J. A. Montgomery, Jr., T. Vreven, 
 K. N. Kudin, J. C. Burant, J. M. Millam, S. S. Iyengar, J. Tomasi, 
 V. Barone, B. Mennucci, M. Cossi, G. Scalmani, N. Rega, 
 G. A. Petersson, H. Nakatsuji, M. Hada, M. Ehara, K. Toyota, 
 R. Fukuda, J. Hasegawa, M. Ishida, T. Nakajima, Y. Honda, O. Kitao, 
 H. Nakai, M. Klene, X. Li, J. E. Knox, H. P. Hratchian, J. B. Cross, 
 V. Bakken, C. Adamo, J. Jaramillo, R. Gomperts, R. E. Stratmann, 
 O. Yazyev, A. J. Austin, R. Cammi, C. Pomelli, J. W. Ochterski, 
 P. Y. Ayala, K. Morokuma, G. A. Voth, P. Salvador, J. J. Dannenberg, 
 V. G. Zakrzewski, S. Dapprich, A. D. Daniels, M. C. Strain, 
 O. Farkas, D. K. Malick, A. D. Rabuck, K. Raghavachari, 
 J. B. Foresman, J. V. Ortiz, Q. Cui, A. G. Baboul, S. Clifford, 
 J. Cioslowski, B. B. Stefanov, G. Liu, A. Liashenko, P. Piskorz, 
 I. Komaromi, R. L. Martin, D. J. Fox, T. Keith, M. A. Al-Laham, 
 C. Y. Peng, A. Nanayakkara, M. Challacombe, P. M. W. Gill, 
 B. Johnson, W. Chen, M. W. Wong, C. Gonzalez, and J. A. Pople, 
 Gaussian, Inc., Wallingford CT, 2004.
 
 ******************************************
 Gaussian 03:  EM64T-G03RevE.01 11-Sep-2007
                12-Jun-2015 
 ******************************************
 %nproc=2
 Will use up to    2 processors via shared memory.
 Default route:  MP2=Direct MaxDisk=2000MB
 ----------------------------------------------------
 # b3lyp/6-31+G(d,p) int=ultrafine pop=(ReadRadii,MK)
 ----------------------------------------------------

 Warning!  SCF SP cutoffs with diffuse functions may be unreliable.
 Consider SCF=Tight

 1/38=1/1;
 2/17=6,18=5,40=1/2;
 3/5=1,6=6,7=111,11=2,16=1,25=1,30=1,74=-5,75=5/1,2,3;
 4//1;
 5/5=2,32=1,38=5/2;
 6/7=2,8=2,9=2,10=2,15=8,20=101,28=1/1,2;
 99/5=1,9=1/99;
 -------------------------------------
 mol_17.25.27.pdb_plusQ.z58332.zip.xyz
 -------------------------------------
 Symbolic Z-matrix:
 Charge =  1 Multiplicity = 1
 O                    -2.36091  -0.31374   0. 
 O                    -2.65922   2.03745   0. 
 O                    -1.82183   3.20276   0. 
 O                    -0.61806   2.41649   0. 
 P                    -1.41077   0.88935   0. 
 Ca                    2.23758   1.16174   0. 
 O                     0.        0.18583   0. 
 Ca                   -0.95263  -2.2363    0. 
 Ca                    2.75713  -2.60397   0. 
 
                          Input orientation:                          
 ---------------------------------------------------------------------
 Center     Atomic     Atomic              Coordinates (Angstroms)
 Number     Number      Type              X           Y           Z
 ---------------------------------------------------------------------
    1          8             0       -2.360910   -0.313740    0.000000
    2          8             0       -2.659220    2.037450    0.000000
    3          8             0       -1.821830    3.202760    0.000000
    4          8             0       -0.618060    2.416490    0.000000
    5         15             0       -1.410770    0.889350    0.000000
    6         20             0        2.237580    1.161740    0.000000
    7          8             0        0.000000    0.185830    0.000000
    8         20             0       -0.952630   -2.236300    0.000000
    9         20             0        2.757130   -2.603970    0.000000
 ---------------------------------------------------------------------
                    Distance matrix (angstroms):
                    1          2          3          4          5
     1  O    0.000000
     2  O    2.370039   0.000000
     3  O    3.557581   1.434981   0.000000
     4  O    3.239087   2.076055   1.437805   0.000000
     5  P    1.533033   1.696102   2.349646   1.720624   0.000000
     6  Ca   4.829405   4.974487   4.543630   3.119147   3.658504
     7  O    2.413186   3.240362   3.524334   2.314701   1.576456
     8  Ca   2.383168   4.601890   5.508074   4.664804   3.159047
     9  Ca   5.607093   7.132996   7.394930   6.049539   5.438260
                    6          7          8          9
     6  Ca   0.000000
     7  O    2.441140   0.000000
     8  Ca   4.660914   2.602733   0.000000
     9  Ca   3.801382   3.922340   3.727935   0.000000
 Stoichiometry    Ca3O5P(1+)
 Framework group  CS[SG(Ca3O5P)]
 Deg. of freedom    15
 Full point group                 CS
 Largest Abelian subgroup         CS      NOp   2
 Largest concise Abelian subgroup C1      NOp   1
                         Standard orientation:                         
 ---------------------------------------------------------------------
 Center     Atomic     Atomic              Coordinates (Angstroms)
 Number     Number      Type              X           Y           Z
 ---------------------------------------------------------------------
    1          8             0       -2.360907   -0.313752    0.000000
    2          8             0       -2.659230    2.037437    0.000000
    3          8             0       -1.821846    3.202751    0.000000
    4          8             0       -0.618071    2.416487    0.000000
    5         15             0       -1.410774    0.889343    0.000000
    6         20             0        2.237575    1.161752    0.000000
    7          8             0        0.000000    0.185830    0.000000
    8         20             0       -0.952618   -2.236305    0.000000
    9         20             0        2.757144   -2.603956    0.000000
 ---------------------------------------------------------------------
 Rotational constants (GHZ):      0.9351810      0.4218250      0.2907008
 Standard basis: 6-31+G(d,p) (6D, 7F)
 There are   147 symmetry adapted basis functions of A'  symmetry.
 There are    52 symmetry adapted basis functions of A"  symmetry.
 Integral buffers will be    131072 words long.
 Raffenetti 2 integral format.
 Two-electron integral symmetry is turned on.
   199 basis functions,   456 primitive gaussians,   199 cartesian basis functions
    57 alpha electrons       57 beta electrons
       nuclear repulsion energy       919.2470355225 Hartrees.
 NAtoms=    9 NActive=    9 NUniq=    9 SFac= 7.50D-01 NAtFMM=   80 NAOKFM=F Big=F
 One-electron integrals computed using PRISM.
 NBasis=   199 RedAO= T  NBF=   147    52
 NBsUse=   199 1.00D-06 NBFU=   147    52
 Harris functional with IExCor=  402 diagonalized for initial guess.
 ExpMin= 7.10D-03 ExpMax= 3.53D+04 ExpMxC= 5.30D+03 IAcc=3 IRadAn=         5 AccDes= 0.00D+00
 HarFok:  IExCor= 402 AccDes= 0.00D+00 IRadAn=         5 IDoV=1
 ScaDFX=  1.000000  1.000000  1.000000  1.000000
 Initial guess orbital symmetries:
       Occupied  (A') (A') (A') (A') (A') (A') (A') (A') (A') (A')
                 (A') (A') (A') (A') (A") (A') (A') (A") (A') (A')
                 (A") (A') (A') (A') (A") (A') (A') (A') (A') (A')
                 (A') (A') (A') (A') (A") (A') (A") (A") (A') (A')
                 (A') (A') (A') (A') (A') (A') (A") (A') (A") (A")
                 (A') (A') (A') (A") (A") (A') (A')
       Virtual   (A') (A") (A') (A") (A') (A') (A') (A') (A") (A")
                 (A') (A') (A') (A') (A') (A') (A") (A') (A') (A')
                 (A") (A") (A') (A') (A') (A') (A') (A") (A') (A')
                 (A') (A") (A') (A') (A") (A') (A') (A') (A") (A")
                 (A") (A') (A') (A") (A') (A') (A") (A') (A') (A')
                 (A') (A") (A') (A") (A") (A') (A') (A") (A') (A')
                 (A') (A') (A") (A') (A') (A") (A') (A') (A') (A')
                 (A") (A') (A') (A') (A') (A') (A") (A') (A') (A')
                 (A') (A') (A") (A") (A') (A') (A') (A') (A') (A')
                 (A') (A') (A") (A") (A") (A") (A') (A') (A') (A")
                 (A') (A') (A') (A') (A') (A') (A") (A') (A") (A')
                 (A') (A') (A') (A") (A") (A") (A') (A') (A') (A")
                 (A') (A') (A') (A") (A") (A') (A') (A") (A') (A")
                 (A') (A') (A') (A') (A') (A') (A') (A') (A') (A')
                 (A') (A')
 The electronic state of the initial guess is 1-A'.
 Requested convergence on RMS density matrix=1.00D-04 within 128 cycles.
 Requested convergence on MAX density matrix=1.00D-02.
 Requested convergence on             energy=1.00D-02.
 No special actions if energy rises.
 EnCoef did     3 forward-backward iterations
 EnCoef did     3 forward-backward iterations
 SCF Done:  E(RB+HF-LYP) =  -2749.84642188     A.U. after   13 cycles
             Convg  =    0.9607D-04             -V/T =  2.0028
             S**2   =   0.0000

 **********************************************************************

            Population analysis using the SCF density.

 **********************************************************************

 Orbital symmetries:
       Occupied  (A') (A') (A') (A') (A') (A') (A') (A') (A') (A')
                 (A') (A') (A") (A') (A') (A") (A') (A') (A") (A')
                 (A') (A') (A") (A') (A') (A') (A') (A') (A') (A")
                 (A') (A') (A") (A') (A') (A") (A') (A') (A') (A')
                 (A') (A') (A') (A') (A') (A") (A') (A') (A") (A")
                 (A') (A') (A") (A') (A") (A') (A')
       Virtual   (A') (A') (A") (A") (A') (A') (A') (A') (A") (A")
                 (A') (A') (A') (A') (A') (A') (A") (A') (A') (A")
                 (A') (A') (A") (A') (A") (A') (A') (A') (A') (A')
                 (A') (A") (A') (A') (A") (A') (A') (A") (A") (A')
                 (A") (A') (A") (A") (A') (A') (A') (A') (A') (A")
                 (A") (A') (A') (A') (A") (A') (A') (A") (A') (A')
                 (A") (A') (A') (A') (A") (A') (A') (A') (A") (A')
                 (A') (A') (A') (A') (A') (A") (A') (A') (A') (A')
                 (A") (A') (A") (A') (A') (A') (A') (A') (A') (A')
                 (A') (A') (A") (A") (A') (A") (A") (A') (A') (A")
                 (A') (A') (A') (A') (A') (A') (A") (A') (A") (A')
                 (A') (A') (A') (A") (A") (A') (A") (A") (A') (A')
                 (A') (A') (A') (A") (A") (A') (A') (A") (A') (A")
                 (A') (A') (A') (A') (A') (A') (A') (A') (A') (A')
                 (A') (A')
 The electronic state is 1-A'.
 Alpha  occ. eigenvalues -- -145.54500-145.52729-145.52348 -77.41102 -19.42719
 Alpha  occ. eigenvalues --  -19.39158 -19.38681 -19.30341 -19.29138 -15.61552
 Alpha  occ. eigenvalues --  -15.59692 -15.59309 -12.74726 -12.74714 -12.74637
 Alpha  occ. eigenvalues --  -12.72908 -12.72871 -12.72764 -12.72495 -12.72472
 Alpha  occ. eigenvalues --  -12.72412  -6.85504  -5.02168  -5.01719  -5.01606
 Alpha  occ. eigenvalues --   -1.98670  -1.96787  -1.96350  -1.36600  -1.26071
 Alpha  occ. eigenvalues --   -1.25967  -1.25650  -1.24378  -1.24376  -1.23981
 Alpha  occ. eigenvalues --   -1.23771  -1.23659  -1.23527  -1.17405  -1.15541
 Alpha  occ. eigenvalues --   -1.09506  -1.00627  -0.71392  -0.70867  -0.64909
 Alpha  occ. eigenvalues --   -0.64356  -0.60011  -0.56014  -0.54810  -0.50705
 Alpha  occ. eigenvalues --   -0.50444  -0.49516  -0.46119  -0.44798  -0.41463
 Alpha  occ. eigenvalues --   -0.31529  -0.25749
 Alpha virt. eigenvalues --   -0.22500  -0.20100  -0.19949  -0.17405  -0.15974
 Alpha virt. eigenvalues --   -0.15655  -0.15095  -0.13744  -0.13548  -0.12149
 Alpha virt. eigenvalues --   -0.10772  -0.10426  -0.09771  -0.08505  -0.07816
 Alpha virt. eigenvalues --   -0.06507  -0.06236  -0.06204  -0.06032  -0.05285
 Alpha virt. eigenvalues --   -0.05187  -0.05048  -0.04637  -0.04187  -0.03803
 Alpha virt. eigenvalues --   -0.03711  -0.03579  -0.03346  -0.02180  -0.01406
 Alpha virt. eigenvalues --   -0.00324  -0.00184  -0.00092   0.00639   0.01136
 Alpha virt. eigenvalues --    0.01663   0.02630   0.03002   0.03214   0.03281
 Alpha virt. eigenvalues --    0.03865   0.04270   0.05073   0.05318   0.05397
 Alpha virt. eigenvalues --    0.05954   0.06408   0.06948   0.07817   0.08279
 Alpha virt. eigenvalues --    0.08438   0.08449   0.08927   0.09176   0.10349
 Alpha virt. eigenvalues --    0.11370   0.11872   0.12557   0.14432   0.15673
 Alpha virt. eigenvalues --    0.16611   0.17544   0.18217   0.19519   0.19970
 Alpha virt. eigenvalues --    0.20437   0.20804   0.21001   0.23389   0.23873
 Alpha virt. eigenvalues --    0.24442   0.27446   0.27756   0.30953   0.32099
 Alpha virt. eigenvalues --    0.33168   0.34029   0.37605   0.38157   0.43100
 Alpha virt. eigenvalues --    0.46251   0.46346   0.47779   0.48156   0.50019
 Alpha virt. eigenvalues --    0.52751   0.60058   0.63788   0.77317   0.89010
 Alpha virt. eigenvalues --    0.91512   0.95796   0.96168   1.02562   1.04304
 Alpha virt. eigenvalues --    1.04733   1.07108   1.09286   1.10042   1.11414
 Alpha virt. eigenvalues --    1.15108   1.17393   1.20337   1.23746   1.29352
 Alpha virt. eigenvalues --    1.30309   1.33135   1.35615   1.36664   1.41580
 Alpha virt. eigenvalues --    1.47104   1.52464   1.54270   1.62143   1.64287
 Alpha virt. eigenvalues --    1.64831   1.66311   1.70070   1.73642   1.76384
 Alpha virt. eigenvalues --    1.78761   1.79526   1.80079   1.88781   1.91519
 Alpha virt. eigenvalues --    2.02789   2.04198   2.16942   2.22570   2.27632
 Alpha virt. eigenvalues --    2.39121   2.46176   2.54802   2.78823   3.01397
 Alpha virt. eigenvalues --    3.07616   3.53496   3.85266   3.98400   4.03136
 Alpha virt. eigenvalues --    4.07406   4.32072
          Condensed to atoms (all electrons):
              1          2          3          4          5          6
     1  O    9.082168   0.001069   0.020968  -0.212710   0.090903   0.003313
     2  O    0.001069   8.688737  -0.086425   0.034177   0.141342  -0.000284
     3  O    0.020968  -0.086425   7.789650  -0.003875  -0.017463  -0.018341
     4  O   -0.212710   0.034177  -0.003875   8.660355   0.120496  -0.014617
     5  P    0.090903   0.141342  -0.017463   0.120496  12.856974   0.035344
     6  Ca   0.003313  -0.000284  -0.018341  -0.014617   0.035344  19.531142
     7  O   -0.127005  -0.322970   0.110411  -0.085343  -0.185297  -0.144609
     8  Ca  -0.011005   0.009078  -0.007620  -0.006114   0.092019  -0.088174
     9  Ca  -0.005162  -0.001188   0.006672   0.001212   0.022979   0.227821
              7          8          9
     1  O   -0.127005  -0.011005  -0.005162
     2  O   -0.322970   0.009078  -0.001188
     3  O    0.110411  -0.007620   0.006672
     4  O   -0.085343  -0.006114   0.001212
     5  P   -0.185297   0.092019   0.022979
     6  Ca  -0.144609  -0.088174   0.227821
     7  O    9.834042  -0.133950  -0.046044
     8  Ca  -0.133950  19.192688   0.274058
     9  Ca  -0.046044   0.274058  19.016907
 Mulliken atomic charges:
              1
     1  O   -0.842540
     2  O   -0.463536
     3  O    0.206022
     4  O   -0.493581
     5  P    1.842704
     6  Ca   0.468405
     7  O   -0.899237
     8  Ca   0.679019
     9  Ca   0.502745
 Sum of Mulliken charges=   1.00000
 Atomic charges with hydrogens summed into heavy atoms:
              1
     1  O   -0.842540
     2  O   -0.463536
     3  O    0.206022
     4  O   -0.493581
     5  P    1.842704
     6  Ca   0.468405
     7  O   -0.899237
     8  Ca   0.679019
     9  Ca   0.502745
 Sum of Mulliken charges=   1.00000
 Electronic spatial extent (au):  <R**2>=  3263.8575
 Charge=     1.0000 electrons
 Dipole moment (field-independent basis, Debye):
    X=     7.2311    Y=    -6.6985    Z=     0.0000  Tot=     9.8569
 Quadrupole moment (field-independent basis, Debye-Ang):
   XX=   -67.3020   YY=   -61.5669   ZZ=   -89.6103
   XY=    -8.6170   XZ=     0.0000   YZ=     0.0000
 Traceless Quadrupole moment (field-independent basis, Debye-Ang):
   XX=     5.5244   YY=    11.2595   ZZ=   -16.7839
   XY=    -8.6170   XZ=     0.0000   YZ=     0.0000
 Octapole moment (field-independent basis, Debye-Ang**2):
  XXX=    34.4316  YYY=    -8.5162  ZZZ=     0.0000  XYY=    50.2382
  XXY=   -74.2966  XXZ=     0.0000  XZZ=   -24.4720  YZZ=    15.8425
  YYZ=     0.0000  XYZ=     0.0000
 Hexadecapole moment (field-independent basis, Debye-Ang**3):
 XXXX= -2192.3096 YYYY= -2178.8487 ZZZZ=  -183.5126 XXXY=   113.1127
 XXXZ=     0.0000 YYYX=   216.9892 YYYZ=     0.0000 ZZZX=     0.0000
 ZZZY=     0.0000 XXYY=  -407.9310 XXZZ=  -407.9919 YYZZ=  -409.5480
 XXYZ=     0.0000 YYXZ=     0.0000 ZZXY=   114.0001
 N-N= 9.192470355225D+02 E-N=-8.330642548889D+03  KE= 2.742098259342D+03
 Symmetry A'   KE= 2.473369932748D+03
 Symmetry A"   KE= 2.687283265940D+02
 Merz-Kollman atomic radii used.
 Read replacement radii for each type of atom:
 Rad(20) =   1.188000000000D+00
 Atom Element Radius
    1     8    1.40
    2     8    1.40
    3     8    1.40
    4     8    1.40
    5    15    1.80
    6    20    1.19
    7     8    1.40
    8    20    1.19
    9    20    1.19

 **********************************************************************

            Electrostatic Properties Using The SCF Density

 **********************************************************************

       Atomic Center    1 is at  -2.360907 -0.313752  0.000000
       Atomic Center    2 is at  -2.659230  2.037437  0.000000
       Atomic Center    3 is at  -1.821846  3.202751  0.000000
       Atomic Center    4 is at  -0.618071  2.416487  0.000000
       Atomic Center    5 is at  -1.410774  0.889343  0.000000
       Atomic Center    6 is at   2.237575  1.161752  0.000000
       Atomic Center    7 is at   0.000000  0.185830  0.000000
       Atomic Center    8 is at  -0.952618 -2.236305  0.000000
       Atomic Center    9 is at   2.757144 -2.603956  0.000000
     826 points will be used for fitting atomic charges
 Fitting point charges to eletrostatic potential
 Charges from ESP fit, RMS=   0.03283 RRMS=   0.20389:
 Charge=   1.00000 Dipole=    10.5612    -9.1063     0.0000 Tot=    13.9450
              1
     1  O   -0.368529
     2  O   -0.299616
     3  O   -0.203929
     4  O    0.125470
     5  P    1.035405
     6  Ca   0.512035
     7  O   -0.813738
     8  Ca   0.603738
     9  Ca   0.409165
 -----------------------------------------------------------------

              Electrostatic Properties (Atomic Units)

 -----------------------------------------------------------------
    Center     Electric         -------- Electric Field --------
               Potential          X             Y             Z
 -----------------------------------------------------------------
    1 Atom    -22.175130
    2 Atom    -22.087830
    3 Atom    -22.051600
    4 Atom    -22.082310
    5 Atom    -53.795451
    6 Atom    -80.021289
    7 Atom    -22.162032
    8 Atom    -80.015754
    9 Atom    -80.000231
 -----------------------------------------------------------------
 1\1\GINC-N033\SP\RB3LYP\6-31+G(d,p)\Ca3O5P1(1+)\TIMN\12-Jun-2015\0\\# 
 b3lyp/6-31+G(d,p) int=ultrafine pop=(ReadRadii,MK)\\mol_17.25.27.pdb_p
 lusQ.z58332.zip.xyz\\1,1\O,0,-2.36091,-0.31374,0.\O,0,-2.65922,2.03745
 ,0.\O,0,-1.82183,3.20276,0.\O,0,-0.61806,2.41649,0.\P,0,-1.41077,0.889
 35,0.\Ca,0,2.23758,1.16174,0.\O,0,0.,0.18583,0.\Ca,0,-0.95263,-2.2363,
 0.\Ca,0,2.75713,-2.60397,0.\\Version=EM64T-G03RevE.01\State=1-A'\HF=-2
 749.8464219\RMSD=9.607e-05\Thermal=0.\Dipole=2.8449299,-2.6354033,0.\P
 G=CS [SG(Ca3O5P1)]\\@


 I LOVE MANKIND - IT'S PEOPLE I CAN'T STAND.
     -- LINUS OF PEANUTS
 Job cpu time:  0 days  0 hours  2 minutes 20.4 seconds.
 File lengths (MBytes):  RWF=     36 Int=      0 D2E=      0 Chk=     11 Scr=      1
 Normal termination of Gaussian 03 at Fri Jun 12 17:58:00 2015.
