 Entering Gaussian System, Link 0=/home/timn/tmp/g03.e01/g03
 Input=mol_17.27.46.pdbcccc_plusQ.z58512.zip.xyz.gjf
 Output=mol_17.27.46.pdbcccc_plusQ.z58512.zip.xyz.out
 Initial command:
 /home/timn/tmp/g03.e01/l1.exe /home/timn/tmp/g03.e01/Gau-14544.inp -scrdir=/home/timn/tmp/g03.e01/
 Default is to use a total of   2 processors:
                                2 via shared-memory
                                1 via Linda
 Entering Link 1 = /home/timn/tmp/g03.e01/l1.exe PID=     14546.
  
 Copyright (c) 1988,1990,1992,1993,1995,1998,2003,2004,2007, Gaussian, Inc.
                  All Rights Reserved.
  
 This is the Gaussian(R) 03 program.  It is based on the
 the Gaussian(R) 98 system (copyright 1998, Gaussian, Inc.),
 the Gaussian(R) 94 system (copyright 1995, Gaussian, Inc.),
 the Gaussian 92(TM) system (copyright 1992, Gaussian, Inc.),
 the Gaussian 90(TM) system (copyright 1990, Gaussian, Inc.),
 the Gaussian 88(TM) system (copyright 1988, Gaussian, Inc.),
 the Gaussian 86(TM) system (copyright 1986, Carnegie Mellon
 University), and the Gaussian 82(TM) system (copyright 1983,
 Carnegie Mellon University). Gaussian is a federally registered
 trademark of Gaussian, Inc.
  
 This software contains proprietary and confidential information,
 including trade secrets, belonging to Gaussian, Inc.
  
 This software is provided under written license and may be
 used, copied, transmitted, or stored only in accord with that
 written license.
  
 The following legend is applicable only to US Government
 contracts under FAR:
  
                    RESTRICTED RIGHTS LEGEND
  
 Use, reproduction and disclosure by the US Government is
 subject to restrictions as set forth in subparagraphs (a)
 and (c) of the Commercial Computer Software - Restricted
 Rights clause in FAR 52.227-19.
  
 Gaussian, Inc.
 340 Quinnipiac St., Bldg. 40, Wallingford CT 06492
  
  
 ---------------------------------------------------------------
 Warning -- This program may not be used in any manner that
 competes with the business of Gaussian, Inc. or will provide
 assistance to any competitor of Gaussian, Inc.  The licensee
 of this program is prohibited from giving any competitor of
 Gaussian, Inc. access to this program.  By using this program,
 the user acknowledges that Gaussian, Inc. is engaged in the
 business of creating and licensing software in the field of
 computational chemistry and represents and warrants to the
 licensee that it is not a competitor of Gaussian, Inc. and that
 it will not use this program in any manner prohibited above.
 ---------------------------------------------------------------
  

 Cite this work as:
 Gaussian 03, Revision E.01,
 M. J. Frisch, G. W. Trucks, H. B. Schlegel, G. E. Scuseria, 
 M. A. Robb, J. R. Cheeseman, J. A. Montgomery, Jr., T. Vreven, 
 K. N. Kudin, J. C. Burant, J. M. Millam, S. S. Iyengar, J. Tomasi, 
 V. Barone, B. Mennucci, M. Cossi, G. Scalmani, N. Rega, 
 G. A. Petersson, H. Nakatsuji, M. Hada, M. Ehara, K. Toyota, 
 R. Fukuda, J. Hasegawa, M. Ishida, T. Nakajima, Y. Honda, O. Kitao, 
 H. Nakai, M. Klene, X. Li, J. E. Knox, H. P. Hratchian, J. B. Cross, 
 V. Bakken, C. Adamo, J. Jaramillo, R. Gomperts, R. E. Stratmann, 
 O. Yazyev, A. J. Austin, R. Cammi, C. Pomelli, J. W. Ochterski, 
 P. Y. Ayala, K. Morokuma, G. A. Voth, P. Salvador, J. J. Dannenberg, 
 V. G. Zakrzewski, S. Dapprich, A. D. Daniels, M. C. Strain, 
 O. Farkas, D. K. Malick, A. D. Rabuck, K. Raghavachari, 
 J. B. Foresman, J. V. Ortiz, Q. Cui, A. G. Baboul, S. Clifford, 
 J. Cioslowski, B. B. Stefanov, G. Liu, A. Liashenko, P. Piskorz, 
 I. Komaromi, R. L. Martin, D. J. Fox, T. Keith, M. A. Al-Laham, 
 C. Y. Peng, A. Nanayakkara, M. Challacombe, P. M. W. Gill, 
 B. Johnson, W. Chen, M. W. Wong, C. Gonzalez, and J. A. Pople, 
 Gaussian, Inc., Wallingford CT, 2004.
 
 ******************************************
 Gaussian 03:  EM64T-G03RevE.01 11-Sep-2007
                12-Jun-2015 
 ******************************************
 %nproc=2
 Will use up to    2 processors via shared memory.
 Default route:  MP2=Direct MaxDisk=2000MB
 ----------------------------------------------------
 # b3lyp/6-31+G(d,p) int=ultrafine pop=(ReadRadii,MK)
 ----------------------------------------------------

 Warning!  SCF SP cutoffs with diffuse functions may be unreliable.
 Consider SCF=Tight

 1/38=1/1;
 2/17=6,18=5,40=1/2;
 3/5=1,6=6,7=111,11=2,16=1,25=1,30=1,74=-5,75=5/1,2,3;
 4//1;
 5/5=2,32=1,38=5/2;
 6/7=2,8=2,9=2,10=2,15=8,20=101,28=1/1,2;
 99/5=1,9=1/99;
 -----------------------------------------
 mol_17.27.46.pdbcccc_plusQ.z58512.zip.xyz
 -----------------------------------------
 Symbolic Z-matrix:
 Charge =  1 Multiplicity = 1
 O                     0.64022   0.41556  -1.5011 
 O                     0.42278   1.04532   1.40403 
 Ca                   -0.81999  -0.88881   1.51523 
 Ca                   -0.7244    1.91619  -0.33688 
 P                     0.11795  -1.14128  -1.42658 
 Ca                    2.16326   0.23394   0.31228 
 O                     0.83534  -1.60506  -0.01166 
 O                    -1.55266  -1.0143   -0.87937 
 O                    -2.11398   0.14508  -0.06364 
 
                          Input orientation:                          
 ---------------------------------------------------------------------
 Center     Atomic     Atomic              Coordinates (Angstroms)
 Number     Number      Type              X           Y           Z
 ---------------------------------------------------------------------
    1          8             0        0.640220    0.415560   -1.501100
    2          8             0        0.422780    1.045320    1.404030
    3         20             0       -0.819990   -0.888810    1.515230
    4         20             0       -0.724400    1.916190   -0.336880
    5         15             0        0.117950   -1.141280   -1.426580
    6         20             0        2.163260    0.233940    0.312280
    7          8             0        0.835340   -1.605060   -0.011660
    8          8             0       -1.552660   -1.014300   -0.879370
    9          8             0       -2.113980    0.145080   -0.063640
 ---------------------------------------------------------------------
                    Distance matrix (angstroms):
                    1          2          3          4          5
     1  O    0.000000
     2  O    2.980547   0.000000
     3  Ca   3.596087   2.301674   0.000000
     4  Ca   2.338693   2.259470   3.362659   0.000000
     5  P    1.643797   3.589776   3.098018   3.353375   0.000000
     6  Ca   2.375076   2.208965   3.406969   3.404402   3.016315
     7  O    2.517818   3.032969   2.363160   3.864940   1.652797
     8  O    2.690682   3.654903   2.507322   3.093232   1.762527
     9  O    3.118504   3.065883   2.288268   2.267691   2.914419
                    6          7          8          9
     6  Ca   0.000000
     7  O    2.291338   0.000000
     8  O    4.097096   2.608536   0.000000
     9  O    4.294647   3.429895   1.524683   0.000000
 Stoichiometry    Ca3O5P(1+)
 Framework group  C1[X(Ca3O5P)]
 Deg. of freedom    21
 Full point group                 C1
 Largest Abelian subgroup         C1      NOp   1
 Largest concise Abelian subgroup C1      NOp   1
                         Standard orientation:                         
 ---------------------------------------------------------------------
 Center     Atomic     Atomic              Coordinates (Angstroms)
 Number     Number      Type              X           Y           Z
 ---------------------------------------------------------------------
    1          8             0        0.640216    0.415562   -1.501100
    2          8             0        0.422774    1.045321    1.404030
    3         20             0       -0.819989   -0.888813    1.515230
    4         20             0       -0.724409    1.916188   -0.336880
    5         15             0        0.117952   -1.141280   -1.426580
    6         20             0        2.163257    0.233947    0.312280
    7          8             0        0.835343   -1.605057   -0.011660
    8          8             0       -1.552659   -1.014305   -0.879370
    9          8             0       -2.113983    0.145073   -0.063640
 ---------------------------------------------------------------------
 Rotational constants (GHZ):      0.9319438      0.8297551      0.7599503
 Standard basis: 6-31+G(d,p) (6D, 7F)
 There are   199 symmetry adapted basis functions of A   symmetry.
 Integral buffers will be    131072 words long.
 Raffenetti 2 integral format.
 Two-electron integral symmetry is turned on.
   199 basis functions,   456 primitive gaussians,   199 cartesian basis functions
    57 alpha electrons       57 beta electrons
       nuclear repulsion energy      1094.3660671392 Hartrees.
 NAtoms=    9 NActive=    9 NUniq=    9 SFac= 7.50D-01 NAtFMM=   80 NAOKFM=F Big=F
 One-electron integrals computed using PRISM.
 NBasis=   199 RedAO= T  NBF=   199
 NBsUse=   199 1.00D-06 NBFU=   199
 Harris functional with IExCor=  402 diagonalized for initial guess.
 ExpMin= 7.10D-03 ExpMax= 3.53D+04 ExpMxC= 5.30D+03 IAcc=3 IRadAn=         5 AccDes= 0.00D+00
 HarFok:  IExCor= 402 AccDes= 0.00D+00 IRadAn=         5 IDoV=1
 ScaDFX=  1.000000  1.000000  1.000000  1.000000
 Initial guess orbital symmetries:
       Occupied  (A) (A) (A) (A) (A) (A) (A) (A) (A) (A) (A) (A)
                 (A) (A) (A) (A) (A) (A) (A) (A) (A) (A) (A) (A)
                 (A) (A) (A) (A) (A) (A) (A) (A) (A) (A) (A) (A)
                 (A) (A) (A) (A) (A) (A) (A) (A) (A) (A) (A) (A)
                 (A) (A) (A) (A) (A) (A) (A) (A) (A)
       Virtual   (A) (A) (A) (A) (A) (A) (A) (A) (A) (A) (A) (A)
                 (A) (A) (A) (A) (A) (A) (A) (A) (A) (A) (A) (A)
                 (A) (A) (A) (A) (A) (A) (A) (A) (A) (A) (A) (A)
                 (A) (A) (A) (A) (A) (A) (A) (A) (A) (A) (A) (A)
                 (A) (A) (A) (A) (A) (A) (A) (A) (A) (A) (A) (A)
                 (A) (A) (A) (A) (A) (A) (A) (A) (A) (A) (A) (A)
                 (A) (A) (A) (A) (A) (A) (A) (A) (A) (A) (A) (A)
                 (A) (A) (A) (A) (A) (A) (A) (A) (A) (A) (A) (A)
                 (A) (A) (A) (A) (A) (A) (A) (A) (A) (A) (A) (A)
                 (A) (A) (A) (A) (A) (A) (A) (A) (A) (A) (A) (A)
                 (A) (A) (A) (A) (A) (A) (A) (A) (A) (A) (A) (A)
                 (A) (A) (A) (A) (A) (A) (A) (A) (A) (A)
 The electronic state of the initial guess is 1-A.
 Requested convergence on RMS density matrix=1.00D-04 within 128 cycles.
 Requested convergence on MAX density matrix=1.00D-02.
 Requested convergence on             energy=1.00D-02.
 No special actions if energy rises.
 EnCoef did     3 forward-backward iterations
 SCF Done:  E(RB+HF-LYP) =  -2750.21035872     A.U. after    8 cycles
             Convg  =    0.9265D-04             -V/T =  2.0029
             S**2   =   0.0000

 **********************************************************************

            Population analysis using the SCF density.

 **********************************************************************

 Orbital symmetries:
       Occupied  (A) (A) (A) (A) (A) (A) (A) (A) (A) (A) (A) (A)
                 (A) (A) (A) (A) (A) (A) (A) (A) (A) (A) (A) (A)
                 (A) (A) (A) (A) (A) (A) (A) (A) (A) (A) (A) (A)
                 (A) (A) (A) (A) (A) (A) (A) (A) (A) (A) (A) (A)
                 (A) (A) (A) (A) (A) (A) (A) (A) (A)
       Virtual   (A) (A) (A) (A) (A) (A) (A) (A) (A) (A) (A) (A)
                 (A) (A) (A) (A) (A) (A) (A) (A) (A) (A) (A) (A)
                 (A) (A) (A) (A) (A) (A) (A) (A) (A) (A) (A) (A)
                 (A) (A) (A) (A) (A) (A) (A) (A) (A) (A) (A) (A)
                 (A) (A) (A) (A) (A) (A) (A) (A) (A) (A) (A) (A)
                 (A) (A) (A) (A) (A) (A) (A) (A) (A) (A) (A) (A)
                 (A) (A) (A) (A) (A) (A) (A) (A) (A) (A) (A) (A)
                 (A) (A) (A) (A) (A) (A) (A) (A) (A) (A) (A) (A)
                 (A) (A) (A) (A) (A) (A) (A) (A) (A) (A) (A) (A)
                 (A) (A) (A) (A) (A) (A) (A) (A) (A) (A) (A) (A)
                 (A) (A) (A) (A) (A) (A) (A) (A) (A) (A) (A) (A)
                 (A) (A) (A) (A) (A) (A) (A) (A) (A) (A)
 The electronic state is 1-A.
 Alpha  occ. eigenvalues -- -145.50968-145.50030-145.49672 -77.27042 -19.28850
 Alpha  occ. eigenvalues --  -19.25349 -19.23431 -19.23034 -19.16660 -15.57804
 Alpha  occ. eigenvalues --  -15.56855 -15.56463 -12.71013 -12.70976 -12.70927
 Alpha  occ. eigenvalues --  -12.70048 -12.70038 -12.69993 -12.69683 -12.69626
 Alpha  occ. eigenvalues --  -12.69613  -6.72136  -4.88563  -4.88424  -4.87901
 Alpha  occ. eigenvalues --   -1.95105  -1.94139  -1.93675  -1.23170  -1.22842
 Alpha  occ. eigenvalues --   -1.22455  -1.22336  -1.21696  -1.21427  -1.21271
 Alpha  occ. eigenvalues --   -1.21085  -1.20716  -1.13177  -1.07399  -1.02698
 Alpha  occ. eigenvalues --   -0.93097  -0.91569  -0.65297  -0.55840  -0.52713
 Alpha  occ. eigenvalues --   -0.51419  -0.48525  -0.47291  -0.44384  -0.42317
 Alpha  occ. eigenvalues --   -0.39784  -0.38426  -0.37056  -0.36741  -0.35859
 Alpha  occ. eigenvalues --   -0.34626  -0.32791
 Alpha virt. eigenvalues --   -0.20650  -0.18458  -0.17447  -0.13977  -0.12920
 Alpha virt. eigenvalues --   -0.11313  -0.10747  -0.09643  -0.08859  -0.08056
 Alpha virt. eigenvalues --   -0.07442  -0.06426  -0.06170  -0.05806  -0.05312
 Alpha virt. eigenvalues --   -0.04946  -0.04918  -0.04692  -0.04371  -0.04093
 Alpha virt. eigenvalues --   -0.03853  -0.03690  -0.03223  -0.03134  -0.02704
 Alpha virt. eigenvalues --   -0.02348  -0.01749  -0.00696   0.01026   0.01766
 Alpha virt. eigenvalues --    0.02068   0.02712   0.03385   0.04041   0.04339
 Alpha virt. eigenvalues --    0.05339   0.05696   0.05887   0.06075   0.06430
 Alpha virt. eigenvalues --    0.06834   0.07149   0.07561   0.07624   0.08027
 Alpha virt. eigenvalues --    0.09479   0.09797   0.10249   0.11288   0.11721
 Alpha virt. eigenvalues --    0.12841   0.13889   0.15414   0.15597   0.17154
 Alpha virt. eigenvalues --    0.19390   0.20454   0.20736   0.21140   0.22432
 Alpha virt. eigenvalues --    0.23553   0.23633   0.24869   0.25317   0.26015
 Alpha virt. eigenvalues --    0.27692   0.30006   0.30969   0.32452   0.34075
 Alpha virt. eigenvalues --    0.34854   0.35478   0.37297   0.38220   0.39150
 Alpha virt. eigenvalues --    0.40497   0.42769   0.45136   0.48434   0.52166
 Alpha virt. eigenvalues --    0.53944   0.58244   0.61108   0.62496   0.65223
 Alpha virt. eigenvalues --    0.80025   0.84228   0.87323   0.90370   0.96141
 Alpha virt. eigenvalues --    1.10349   1.12686   1.13291   1.15390   1.16669
 Alpha virt. eigenvalues --    1.17798   1.19514   1.20491   1.21961   1.22842
 Alpha virt. eigenvalues --    1.23719   1.26473   1.27265   1.31303   1.32552
 Alpha virt. eigenvalues --    1.39064   1.47711   1.51358   1.53303   1.59222
 Alpha virt. eigenvalues --    1.60913   1.67739   1.68958   1.70583   1.71860
 Alpha virt. eigenvalues --    1.76284   1.78971   1.79894   1.84187   1.85741
 Alpha virt. eigenvalues --    1.86434   1.89145   1.89524   1.91727   1.93164
 Alpha virt. eigenvalues --    1.96053   1.97162   1.98653   2.01551   2.08831
 Alpha virt. eigenvalues --    2.15202   2.21013   2.32850   2.50969   2.58410
 Alpha virt. eigenvalues --    3.06252   3.51044   4.00839   4.10612   4.13756
 Alpha virt. eigenvalues --    4.22559   4.33647
          Condensed to atoms (all electrons):
              1          2          3          4          5          6
     1  O    8.952643   0.018667   0.009671   0.031006  -0.099762   0.075150
     2  O    0.018667   8.856091   0.110150   0.125017  -0.026428   0.142555
     3  Ca   0.009671   0.110150  18.363090  -0.040729   0.021139  -0.070249
     4  Ca   0.031006   0.125017  -0.040729  18.359736  -0.014822  -0.046883
     5  P   -0.099762  -0.026428   0.021139  -0.014822  14.359840  -0.025590
     6  Ca   0.075150   0.142555  -0.070249  -0.046883  -0.025590  18.391389
     7  O    0.022242   0.028882   0.052804   0.006981  -0.154954   0.080153
     8  O    0.032445  -0.013260   0.002455  -0.025235  -0.126610   0.051001
     9  O   -0.005171   0.022258   0.100007   0.110371  -0.007091  -0.019347
              7          8          9
     1  O    0.022242   0.032445  -0.005171
     2  O    0.028882  -0.013260   0.022258
     3  Ca   0.052804   0.002455   0.100007
     4  Ca   0.006981  -0.025235   0.110371
     5  P   -0.154954  -0.126610  -0.007091
     6  Ca   0.080153   0.051001  -0.019347
     7  O    8.947759   0.033994   0.015573
     8  O    0.033994   8.560567  -0.028457
     9  O    0.015573  -0.028457   8.433019
 Mulliken atomic charges:
              1
     1  O   -1.036891
     2  O   -1.263932
     3  Ca   1.451662
     4  Ca   1.494557
     5  P    1.074278
     6  Ca   1.421821
     7  O   -1.033434
     8  O   -0.486899
     9  O   -0.621162
 Sum of Mulliken charges=   1.00000
 Atomic charges with hydrogens summed into heavy atoms:
              1
     1  O   -1.036891
     2  O   -1.263932
     3  Ca   1.451662
     4  Ca   1.494557
     5  P    1.074278
     6  Ca   1.421821
     7  O   -1.033434
     8  O   -0.486899
     9  O   -0.621162
 Sum of Mulliken charges=   1.00000
 Electronic spatial extent (au):  <R**2>=  1754.7632
 Charge=     1.0000 electrons
 Dipole moment (field-independent basis, Debye):
    X=     4.9177    Y=     5.7906    Z=     5.8573  Tot=     9.5928
 Quadrupole moment (field-independent basis, Debye-Ang):
   XX=   -52.0504   YY=   -58.0352   ZZ=   -75.4537
   XY=    -2.2069   XZ=    -6.0124   YZ=   -22.4446
 Traceless Quadrupole moment (field-independent basis, Debye-Ang):
   XX=     9.7960   YY=     3.8112   ZZ=   -13.6072
   XY=    -2.2069   XZ=    -6.0124   YZ=   -22.4446
 Octapole moment (field-independent basis, Debye-Ang**2):
  XXX=   116.5641  YYY=    80.0822  ZZZ=    43.5316  XYY=   -35.6938
  XXY=    22.5529  XXZ=    29.8006  XZZ=   -23.7465  YZZ=   -27.5923
  YYZ=    -2.0025  XYZ=    14.7194
 Hexadecapole moment (field-independent basis, Debye-Ang**3):
 XXXX=  -597.6363 YYYY=  -543.5707 ZZZZ=  -597.7621 XXXY=    14.9412
 XXXZ=     4.2198 YYYX=   -36.0464 YYYZ=   -99.4572 ZZZX=   -35.0621
 ZZZY=  -104.9595 XXYY=  -214.3208 XXZZ=  -207.2472 YYZZ=  -207.4882
 XXYZ=   -28.6912 YYXZ=   -12.9002 ZZXY=     0.0443
 N-N= 1.094366067139D+03 E-N=-8.689575980813D+03  KE= 2.742236422669D+03
 Merz-Kollman atomic radii used.
 Read replacement radii for each type of atom:
 Rad(20) =   1.188000000000D+00
 Atom Element Radius
    1     8    1.40
    2     8    1.40
    3    20    1.19
    4    20    1.19
    5    15    1.80
    6    20    1.19
    7     8    1.40
    8     8    1.40
    9     8    1.40

 **********************************************************************

            Electrostatic Properties Using The SCF Density

 **********************************************************************

       Atomic Center    1 is at   0.640216  0.415562 -1.501100
       Atomic Center    2 is at   0.422774  1.045321  1.404030
       Atomic Center    3 is at  -0.819989 -0.888813  1.515230
       Atomic Center    4 is at  -0.724409  1.916188 -0.336880
       Atomic Center    5 is at   0.117952 -1.141280 -1.426580
       Atomic Center    6 is at   2.163257  0.233947  0.312280
       Atomic Center    7 is at   0.835343 -1.605057 -0.011660
       Atomic Center    8 is at  -1.552659 -1.014305 -0.879370
       Atomic Center    9 is at  -2.113983  0.145073 -0.063640
     722 points will be used for fitting atomic charges
 Fitting point charges to eletrostatic potential
 Charges from ESP fit, RMS=   0.00528 RRMS=   0.03312:
 Charge=   1.00000 Dipole=     4.9439     5.8854     5.9298 Tot=     9.7079
              1
     1  O   -0.884526
     2  O   -1.627500
     3  Ca   1.682483
     4  Ca   1.679650
     5  P    0.441259
     6  Ca   1.663935
     7  O   -0.928502
     8  O   -0.296732
     9  O   -0.730068
 -----------------------------------------------------------------

              Electrostatic Properties (Atomic Units)

 -----------------------------------------------------------------
    Center     Electric         -------- Electric Field --------
               Potential          X             Y             Z
 -----------------------------------------------------------------
    1 Atom    -22.227964
    2 Atom    -22.306753
    3 Atom    -80.043231
    4 Atom    -80.039907
    5 Atom    -53.948709
    6 Atom    -80.031550
    7 Atom    -22.242841
    8 Atom    -22.179502
    9 Atom    -22.207871
 -----------------------------------------------------------------
 1\1\GINC-N032\SP\RB3LYP\6-31+G(d,p)\Ca3O5P1(1+)\TIMN\12-Jun-2015\0\\# 
 b3lyp/6-31+G(d,p) int=ultrafine pop=(ReadRadii,MK)\\mol_17.27.46.pdbcc
 cc_plusQ.z58512.zip.xyz\\1,1\O,0,0.64022,0.41556,-1.5011\O,0,0.42278,1
 .04532,1.40403\Ca,0,-0.81999,-0.88881,1.51523\Ca,0,-0.7244,1.91619,-0.
 33688\P,0,0.11795,-1.14128,-1.42658\Ca,0,2.16326,0.23394,0.31228\O,0,0
 .83534,-1.60506,-0.01166\O,0,-1.55266,-1.0143,-0.87937\O,0,-2.11398,0.
 14508,-0.06364\\Version=EM64T-G03RevE.01\State=1-A\HF=-2750.2103587\RM
 SD=9.265e-05\Thermal=0.\Dipole=1.9347647,2.2781936,2.3044301\PG=C01 [X
 (Ca3O5P1)]\\@


 DON'T WORRY CHARLIE BROWN...WE LEARN MORE FROM LOSING 
 THAN WE DO FROM WINNING.
 THEN THAT MAKES ME THE SMARTEST PERSON IN THE WORLD...
 CHARLES SCHULZ 'PEANUTS'
 Job cpu time:  0 days  0 hours  2 minutes 12.2 seconds.
 File lengths (MBytes):  RWF=     36 Int=      0 D2E=      0 Chk=     11 Scr=      1
 Normal termination of Gaussian 03 at Fri Jun 12 18:06:50 2015.
