 Entering Gaussian System, Link 0=/home/timn/tmp/g03.e01/g03
 Input=mol_17.26.9.pdbcccc_plusQ.z58475.zip.xyz.gjf
 Output=mol_17.26.9.pdbcccc_plusQ.z58475.zip.xyz.out
 Initial command:
 /home/timn/tmp/g03.e01/l1.exe /home/timn/tmp/g03.e01/Gau-14399.inp -scrdir=/home/timn/tmp/g03.e01/
 Default is to use a total of   2 processors:
                                2 via shared-memory
                                1 via Linda
 Entering Link 1 = /home/timn/tmp/g03.e01/l1.exe PID=     14400.
  
 Copyright (c) 1988,1990,1992,1993,1995,1998,2003,2004,2007, Gaussian, Inc.
                  All Rights Reserved.
  
 This is the Gaussian(R) 03 program.  It is based on the
 the Gaussian(R) 98 system (copyright 1998, Gaussian, Inc.),
 the Gaussian(R) 94 system (copyright 1995, Gaussian, Inc.),
 the Gaussian 92(TM) system (copyright 1992, Gaussian, Inc.),
 the Gaussian 90(TM) system (copyright 1990, Gaussian, Inc.),
 the Gaussian 88(TM) system (copyright 1988, Gaussian, Inc.),
 the Gaussian 86(TM) system (copyright 1986, Carnegie Mellon
 University), and the Gaussian 82(TM) system (copyright 1983,
 Carnegie Mellon University). Gaussian is a federally registered
 trademark of Gaussian, Inc.
  
 This software contains proprietary and confidential information,
 including trade secrets, belonging to Gaussian, Inc.
  
 This software is provided under written license and may be
 used, copied, transmitted, or stored only in accord with that
 written license.
  
 The following legend is applicable only to US Government
 contracts under FAR:
  
                    RESTRICTED RIGHTS LEGEND
  
 Use, reproduction and disclosure by the US Government is
 subject to restrictions as set forth in subparagraphs (a)
 and (c) of the Commercial Computer Software - Restricted
 Rights clause in FAR 52.227-19.
  
 Gaussian, Inc.
 340 Quinnipiac St., Bldg. 40, Wallingford CT 06492
  
  
 ---------------------------------------------------------------
 Warning -- This program may not be used in any manner that
 competes with the business of Gaussian, Inc. or will provide
 assistance to any competitor of Gaussian, Inc.  The licensee
 of this program is prohibited from giving any competitor of
 Gaussian, Inc. access to this program.  By using this program,
 the user acknowledges that Gaussian, Inc. is engaged in the
 business of creating and licensing software in the field of
 computational chemistry and represents and warrants to the
 licensee that it is not a competitor of Gaussian, Inc. and that
 it will not use this program in any manner prohibited above.
 ---------------------------------------------------------------
  

 Cite this work as:
 Gaussian 03, Revision E.01,
 M. J. Frisch, G. W. Trucks, H. B. Schlegel, G. E. Scuseria, 
 M. A. Robb, J. R. Cheeseman, J. A. Montgomery, Jr., T. Vreven, 
 K. N. Kudin, J. C. Burant, J. M. Millam, S. S. Iyengar, J. Tomasi, 
 V. Barone, B. Mennucci, M. Cossi, G. Scalmani, N. Rega, 
 G. A. Petersson, H. Nakatsuji, M. Hada, M. Ehara, K. Toyota, 
 R. Fukuda, J. Hasegawa, M. Ishida, T. Nakajima, Y. Honda, O. Kitao, 
 H. Nakai, M. Klene, X. Li, J. E. Knox, H. P. Hratchian, J. B. Cross, 
 V. Bakken, C. Adamo, J. Jaramillo, R. Gomperts, R. E. Stratmann, 
 O. Yazyev, A. J. Austin, R. Cammi, C. Pomelli, J. W. Ochterski, 
 P. Y. Ayala, K. Morokuma, G. A. Voth, P. Salvador, J. J. Dannenberg, 
 V. G. Zakrzewski, S. Dapprich, A. D. Daniels, M. C. Strain, 
 O. Farkas, D. K. Malick, A. D. Rabuck, K. Raghavachari, 
 J. B. Foresman, J. V. Ortiz, Q. Cui, A. G. Baboul, S. Clifford, 
 J. Cioslowski, B. B. Stefanov, G. Liu, A. Liashenko, P. Piskorz, 
 I. Komaromi, R. L. Martin, D. J. Fox, T. Keith, M. A. Al-Laham, 
 C. Y. Peng, A. Nanayakkara, M. Challacombe, P. M. W. Gill, 
 B. Johnson, W. Chen, M. W. Wong, C. Gonzalez, and J. A. Pople, 
 Gaussian, Inc., Wallingford CT, 2004.
 
 ******************************************
 Gaussian 03:  EM64T-G03RevE.01 11-Sep-2007
                12-Jun-2015 
 ******************************************
 %nproc=2
 Will use up to    2 processors via shared memory.
 Default route:  MP2=Direct MaxDisk=2000MB
 ----------------------------------------------------
 # b3lyp/6-31+G(d,p) int=ultrafine pop=(ReadRadii,MK)
 ----------------------------------------------------

 Warning!  SCF SP cutoffs with diffuse functions may be unreliable.
 Consider SCF=Tight

 1/38=1/1;
 2/17=6,18=5,40=1/2;
 3/5=1,6=6,7=111,11=2,16=1,25=1,30=1,74=-5,75=5/1,2,3;
 4//1;
 5/5=2,32=1,38=5/2;
 6/7=2,8=2,9=2,10=2,15=8,20=101,28=1/1,2;
 99/5=1,9=1/99;
 ----------------------------------------
 mol_17.26.9.pdbcccc_plusQ.z58475.zip.xyz
 ----------------------------------------
 Symbolic Z-matrix:
 Charge =  1 Multiplicity = 1
 O                    -2.08121   0.1137    0.0274 
 O                    -1.60415  -0.86565  -1.04726 
 P                     0.05166  -1.06938  -1.49075 
 O                     0.73286  -1.60096  -0.07734 
 Ca                    2.16625   0.17388   0.26564 
 O                     0.65413   0.46885  -1.50303 
 Ca                   -0.76986  -0.91773   1.5775 
 O                     0.48084   0.99335   1.44375 
 Ca                   -0.70812   1.90217  -0.26248 
 
                          Input orientation:                          
 ---------------------------------------------------------------------
 Center     Atomic     Atomic              Coordinates (Angstroms)
 Number     Number      Type              X           Y           Z
 ---------------------------------------------------------------------
    1          8             0       -2.081210    0.113700    0.027400
    2          8             0       -1.604150   -0.865650   -1.047260
    3         15             0        0.051660   -1.069380   -1.490750
    4          8             0        0.732860   -1.600960   -0.077340
    5         20             0        2.166250    0.173880    0.265640
    6          8             0        0.654130    0.468850   -1.503030
    7         20             0       -0.769860   -0.917730    1.577500
    8          8             0        0.480840    0.993350    1.443750
    9         20             0       -0.708120    1.902170   -0.262480
 ---------------------------------------------------------------------
                    Distance matrix (angstroms):
                    1          2          3          4          5
     1  O    0.000000
     2  O    1.530231   0.000000
     3  P    2.872907   1.726238   0.000000
     4  O    3.296971   2.634965   1.656605   0.000000
     5  Ca   4.254562   4.125560   3.016967   2.307011   0.000000
     6  O    3.154431   2.662413   1.652051   2.514538   2.345572
     7  Ca   2.277344   2.754654   3.179945   2.337406   3.396076
     8  O    3.056785   3.742752   3.612526   3.017892   2.213613
     9  Ca   2.273330   3.013234   3.303940   3.792442   3.395276
                    6          7          8          9
     6  O    0.000000
     7  Ca   3.666063   0.000000
     8  O    2.998106   2.287874   0.000000
     9  Ca   2.334330   3.367666   2.269538   0.000000
 Stoichiometry    Ca3O5P(1+)
 Framework group  C1[X(Ca3O5P)]
 Deg. of freedom    21
 Full point group                 C1
 Largest Abelian subgroup         C1      NOp   1
 Largest concise Abelian subgroup C1      NOp   1
                         Standard orientation:                         
 ---------------------------------------------------------------------
 Center     Atomic     Atomic              Coordinates (Angstroms)
 Number     Number      Type              X           Y           Z
 ---------------------------------------------------------------------
    1          8             0       -2.081210    0.113715    0.027399
    2          8             0       -1.604157   -0.865638   -1.047261
    3         15             0        0.051652   -1.069381   -1.490751
    4          8             0        0.732848   -1.600966   -0.077341
    5         20             0        2.166251    0.173864    0.265639
    6          8             0        0.654133    0.468845   -1.503031
    7         20             0       -0.769867   -0.917725    1.577499
    8          8             0        0.480847    0.993346    1.443749
    9         20             0       -0.708107    1.902175   -0.262481
 ---------------------------------------------------------------------
 Rotational constants (GHZ):      0.9216649      0.8127923      0.7794593
 Standard basis: 6-31+G(d,p) (6D, 7F)
 There are   199 symmetry adapted basis functions of A   symmetry.
 Integral buffers will be    131072 words long.
 Raffenetti 2 integral format.
 Two-electron integral symmetry is turned on.
   199 basis functions,   456 primitive gaussians,   199 cartesian basis functions
    57 alpha electrons       57 beta electrons
       nuclear repulsion energy      1093.1417242586 Hartrees.
 NAtoms=    9 NActive=    9 NUniq=    9 SFac= 7.50D-01 NAtFMM=   80 NAOKFM=F Big=F
 One-electron integrals computed using PRISM.
 NBasis=   199 RedAO= T  NBF=   199
 NBsUse=   199 1.00D-06 NBFU=   199
 Harris functional with IExCor=  402 diagonalized for initial guess.
 ExpMin= 7.10D-03 ExpMax= 3.53D+04 ExpMxC= 5.30D+03 IAcc=3 IRadAn=         5 AccDes= 0.00D+00
 HarFok:  IExCor= 402 AccDes= 0.00D+00 IRadAn=         5 IDoV=1
 ScaDFX=  1.000000  1.000000  1.000000  1.000000
 Initial guess orbital symmetries:
       Occupied  (A) (A) (A) (A) (A) (A) (A) (A) (A) (A) (A) (A)
                 (A) (A) (A) (A) (A) (A) (A) (A) (A) (A) (A) (A)
                 (A) (A) (A) (A) (A) (A) (A) (A) (A) (A) (A) (A)
                 (A) (A) (A) (A) (A) (A) (A) (A) (A) (A) (A) (A)
                 (A) (A) (A) (A) (A) (A) (A) (A) (A)
       Virtual   (A) (A) (A) (A) (A) (A) (A) (A) (A) (A) (A) (A)
                 (A) (A) (A) (A) (A) (A) (A) (A) (A) (A) (A) (A)
                 (A) (A) (A) (A) (A) (A) (A) (A) (A) (A) (A) (A)
                 (A) (A) (A) (A) (A) (A) (A) (A) (A) (A) (A) (A)
                 (A) (A) (A) (A) (A) (A) (A) (A) (A) (A) (A) (A)
                 (A) (A) (A) (A) (A) (A) (A) (A) (A) (A) (A) (A)
                 (A) (A) (A) (A) (A) (A) (A) (A) (A) (A) (A) (A)
                 (A) (A) (A) (A) (A) (A) (A) (A) (A) (A) (A) (A)
                 (A) (A) (A) (A) (A) (A) (A) (A) (A) (A) (A) (A)
                 (A) (A) (A) (A) (A) (A) (A) (A) (A) (A) (A) (A)
                 (A) (A) (A) (A) (A) (A) (A) (A) (A) (A) (A) (A)
                 (A) (A) (A) (A) (A) (A) (A) (A) (A) (A)
 The electronic state of the initial guess is 1-A.
 Requested convergence on RMS density matrix=1.00D-04 within 128 cycles.
 Requested convergence on MAX density matrix=1.00D-02.
 Requested convergence on             energy=1.00D-02.
 No special actions if energy rises.
 SCF Done:  E(RB+HF-LYP) =  -2750.21031963     A.U. after    9 cycles
             Convg  =    0.4780D-04             -V/T =  2.0029
             S**2   =   0.0000

 **********************************************************************

            Population analysis using the SCF density.

 **********************************************************************

 Orbital symmetries:
       Occupied  (A) (A) (A) (A) (A) (A) (A) (A) (A) (A) (A) (A)
                 (A) (A) (A) (A) (A) (A) (A) (A) (A) (A) (A) (A)
                 (A) (A) (A) (A) (A) (A) (A) (A) (A) (A) (A) (A)
                 (A) (A) (A) (A) (A) (A) (A) (A) (A) (A) (A) (A)
                 (A) (A) (A) (A) (A) (A) (A) (A) (A)
       Virtual   (A) (A) (A) (A) (A) (A) (A) (A) (A) (A) (A) (A)
                 (A) (A) (A) (A) (A) (A) (A) (A) (A) (A) (A) (A)
                 (A) (A) (A) (A) (A) (A) (A) (A) (A) (A) (A) (A)
                 (A) (A) (A) (A) (A) (A) (A) (A) (A) (A) (A) (A)
                 (A) (A) (A) (A) (A) (A) (A) (A) (A) (A) (A) (A)
                 (A) (A) (A) (A) (A) (A) (A) (A) (A) (A) (A) (A)
                 (A) (A) (A) (A) (A) (A) (A) (A) (A) (A) (A) (A)
                 (A) (A) (A) (A) (A) (A) (A) (A) (A) (A) (A) (A)
                 (A) (A) (A) (A) (A) (A) (A) (A) (A) (A) (A) (A)
                 (A) (A) (A) (A) (A) (A) (A) (A) (A) (A) (A) (A)
                 (A) (A) (A) (A) (A) (A) (A) (A) (A) (A) (A) (A)
                 (A) (A) (A) (A) (A) (A) (A) (A) (A) (A)
 The electronic state is 1-A.
 Alpha  occ. eigenvalues -- -145.50888-145.50034-145.49912 -77.26561 -19.28873
 Alpha  occ. eigenvalues --  -19.25495 -19.23022 -19.22679 -19.16479 -15.57722
 Alpha  occ. eigenvalues --  -15.56854 -15.56715 -12.70929 -12.70894 -12.70847
 Alpha  occ. eigenvalues --  -12.70050 -12.70031 -12.69996 -12.69925 -12.69879
 Alpha  occ. eigenvalues --  -12.69865  -6.71693  -4.88113  -4.87982  -4.87462
 Alpha  occ. eigenvalues --   -1.95023  -1.94126  -1.93944  -1.23113  -1.22769
 Alpha  occ. eigenvalues --   -1.22413  -1.22269  -1.21656  -1.21533  -1.21321
 Alpha  occ. eigenvalues --   -1.21262  -1.20929  -1.13378  -1.06957  -1.02300
 Alpha  occ. eigenvalues --   -0.93475  -0.91447  -0.65051  -0.55691  -0.52579
 Alpha  occ. eigenvalues --   -0.51445  -0.48236  -0.47018  -0.44145  -0.42157
 Alpha  occ. eigenvalues --   -0.39476  -0.38411  -0.36796  -0.36154  -0.35847
 Alpha  occ. eigenvalues --   -0.35034  -0.32620
 Alpha virt. eigenvalues --   -0.20665  -0.18371  -0.17697  -0.13936  -0.12894
 Alpha virt. eigenvalues --   -0.11292  -0.10803  -0.09509  -0.09142  -0.08154
 Alpha virt. eigenvalues --   -0.07390  -0.06423  -0.06162  -0.05857  -0.04927
 Alpha virt. eigenvalues --   -0.04910  -0.04861  -0.04708  -0.04364  -0.04035
 Alpha virt. eigenvalues --   -0.03906  -0.03693  -0.03224  -0.03054  -0.02634
 Alpha virt. eigenvalues --   -0.02090  -0.01831  -0.00653   0.01030   0.01793
 Alpha virt. eigenvalues --    0.01862   0.02614   0.03571   0.04040   0.04380
 Alpha virt. eigenvalues --    0.05343   0.05868   0.05933   0.06124   0.06305
 Alpha virt. eigenvalues --    0.06881   0.07187   0.07277   0.07501   0.08026
 Alpha virt. eigenvalues --    0.09574   0.09900   0.10395   0.10918   0.11540
 Alpha virt. eigenvalues --    0.12724   0.14019   0.15043   0.15638   0.17035
 Alpha virt. eigenvalues --    0.19377   0.20490   0.20774   0.21238   0.22559
 Alpha virt. eigenvalues --    0.23426   0.23767   0.24497   0.25267   0.26108
 Alpha virt. eigenvalues --    0.27639   0.30113   0.32000   0.32802   0.34322
 Alpha virt. eigenvalues --    0.34617   0.35448   0.36834   0.38284   0.38843
 Alpha virt. eigenvalues --    0.39468   0.42811   0.44325   0.46621   0.51334
 Alpha virt. eigenvalues --    0.53905   0.59530   0.61757   0.62301   0.65596
 Alpha virt. eigenvalues --    0.79529   0.85535   0.87379   0.91515   0.95502
 Alpha virt. eigenvalues --    1.10619   1.12467   1.13469   1.15106   1.16408
 Alpha virt. eigenvalues --    1.18409   1.19209   1.20628   1.21632   1.22945
 Alpha virt. eigenvalues --    1.23590   1.25457   1.26745   1.31712   1.32507
 Alpha virt. eigenvalues --    1.38698   1.49071   1.51659   1.54995   1.58318
 Alpha virt. eigenvalues --    1.61536   1.67456   1.69434   1.70306   1.71692
 Alpha virt. eigenvalues --    1.76363   1.78071   1.79690   1.84614   1.85926
 Alpha virt. eigenvalues --    1.87414   1.89157   1.90611   1.92456   1.93410
 Alpha virt. eigenvalues --    1.95835   1.96840   1.99179   2.01781   2.09454
 Alpha virt. eigenvalues --    2.16089   2.20037   2.35620   2.51751   2.57671
 Alpha virt. eigenvalues --    3.05867   3.51480   4.01332   4.10505   4.14253
 Alpha virt. eigenvalues --    4.21676   4.36604
          Condensed to atoms (all electrons):
              1          2          3          4          5          6
     1  O    8.460729  -0.068938   0.026667   0.013422  -0.021841   0.003474
     2  O   -0.068938   8.614448  -0.142321   0.024107   0.058322   0.027835
     3  P    0.026667  -0.142321  14.373586  -0.146982  -0.052550  -0.123496
     4  O    0.013422   0.024107  -0.146982   8.958205   0.088711   0.029896
     5  Ca  -0.021841   0.058322  -0.052550   0.088711  18.396037   0.086956
     6  O    0.003474   0.027835  -0.123496   0.029896   0.086956   8.960902
     7  Ca   0.100824  -0.014811   0.025552   0.044798  -0.063058   0.006405
     8  O    0.023864  -0.012940  -0.024294   0.024598   0.143667   0.018661
     9  Ca   0.106421  -0.027539   0.005711   0.006230  -0.054677   0.034065
              7          8          9
     1  O    0.100824   0.023864   0.106421
     2  O   -0.014811  -0.012940  -0.027539
     3  P    0.025552  -0.024294   0.005711
     4  O    0.044798   0.024598   0.006230
     5  Ca  -0.063058   0.143667  -0.054677
     6  O    0.006405   0.018661   0.034065
     7  Ca  18.352549   0.114136  -0.039759
     8  O    0.114136   8.843682   0.121406
     9  Ca  -0.039759   0.121406  18.354813
 Mulliken atomic charges:
              1
     1  O   -0.644622
     2  O   -0.458163
     3  P    1.058127
     4  O   -1.042984
     5  Ca   1.418433
     6  O   -1.044699
     7  Ca   1.473363
     8  O   -1.252782
     9  Ca   1.493328
 Sum of Mulliken charges=   1.00000
 Atomic charges with hydrogens summed into heavy atoms:
              1
     1  O   -0.644622
     2  O   -0.458163
     3  P    1.058127
     4  O   -1.042984
     5  Ca   1.418433
     6  O   -1.044699
     7  Ca   1.473363
     8  O   -1.252782
     9  Ca   1.493328
 Sum of Mulliken charges=   1.00000
 Electronic spatial extent (au):  <R**2>=  1756.7360
 Charge=     1.0000 electrons
 Dipole moment (field-independent basis, Debye):
    X=     5.1014    Y=     5.0705    Z=     6.4618  Tot=     9.6690
 Quadrupole moment (field-independent basis, Debye-Ang):
   XX=   -52.5235   YY=   -57.1436   ZZ=   -76.0256
   XY=    -3.6708   XZ=    -7.0580   YZ=   -22.2228
 Traceless Quadrupole moment (field-independent basis, Debye-Ang):
   XX=     9.3741   YY=     4.7540   ZZ=   -14.1280
   XY=    -3.6708   XZ=    -7.0580   YZ=   -22.2228
 Octapole moment (field-independent basis, Debye-Ang**2):
  XXX=   118.5398  YYY=    77.2283  ZZZ=    47.9114  XYY=   -35.4188
  XXY=    17.8531  XXZ=    27.2780  XZZ=   -24.5905  YZZ=   -30.8071
  YYZ=     3.4463  XYZ=    12.9794
 Hexadecapole moment (field-independent basis, Debye-Ang**3):
 XXXX=  -587.5106 YYYY=  -515.3757 ZZZZ=  -637.4162 XXXY=     4.9550
 XXXZ=    -0.2300 YYYX=   -36.4989 YYYZ=   -94.0038 ZZZX=   -43.3482
 ZZZY=  -109.1698 XXYY=  -207.8052 XXZZ=  -217.6814 YYZZ=  -208.0801
 XXYZ=   -29.6122 YYXZ=   -14.6322 ZZXY=    -2.4357
 N-N= 1.093141724259D+03 E-N=-8.687134059911D+03  KE= 2.742214294934D+03
 Merz-Kollman atomic radii used.
 Read replacement radii for each type of atom:
 Rad(20) =   1.188000000000D+00
 Atom Element Radius
    1     8    1.40
    2     8    1.40
    3    15    1.80
    4     8    1.40
    5    20    1.19
    6     8    1.40
    7    20    1.19
    8     8    1.40
    9    20    1.19

 **********************************************************************

            Electrostatic Properties Using The SCF Density

 **********************************************************************

       Atomic Center    1 is at  -2.081210  0.113715  0.027399
       Atomic Center    2 is at  -1.604157 -0.865638 -1.047261
       Atomic Center    3 is at   0.051652 -1.069381 -1.490751
       Atomic Center    4 is at   0.732848 -1.600966 -0.077341
       Atomic Center    5 is at   2.166251  0.173864  0.265639
       Atomic Center    6 is at   0.654133  0.468845 -1.503031
       Atomic Center    7 is at  -0.769867 -0.917725  1.577499
       Atomic Center    8 is at   0.480847  0.993346  1.443749
       Atomic Center    9 is at  -0.708107  1.902175 -0.262481
     725 points will be used for fitting atomic charges
 Fitting point charges to eletrostatic potential
 Charges from ESP fit, RMS=   0.00510 RRMS=   0.03183:
 Charge=   1.00000 Dipole=     5.1283     5.1434     6.5601 Tot=     9.7872
              1
     1  O   -0.759622
     2  O   -0.254299
     3  P    0.420188
     4  O   -0.924567
     5  Ca   1.666091
     6  O   -0.901995
     7  Ca   1.694559
     8  O   -1.629703
     9  Ca   1.689347
 -----------------------------------------------------------------

              Electrostatic Properties (Atomic Units)

 -----------------------------------------------------------------
    Center     Electric         -------- Electric Field --------
               Potential          X             Y             Z
 -----------------------------------------------------------------
    1 Atom    -22.214892
    2 Atom    -22.184610
    3 Atom    -53.948975
    4 Atom    -22.235656
    5 Atom    -80.032059
    6 Atom    -22.232759
    7 Atom    -80.041507
    8 Atom    -22.298735
    9 Atom    -80.040573
 -----------------------------------------------------------------
 1\1\GINC-N032\SP\RB3LYP\6-31+G(d,p)\Ca3O5P1(1+)\TIMN\12-Jun-2015\0\\# 
 b3lyp/6-31+G(d,p) int=ultrafine pop=(ReadRadii,MK)\\mol_17.26.9.pdbccc
 c_plusQ.z58475.zip.xyz\\1,1\O,0,-2.08121,0.1137,0.0274\O,0,-1.60415,-0
 .86565,-1.04726\P,0,0.05166,-1.06938,-1.49075\O,0,0.73286,-1.60096,-0.
 07734\Ca,0,2.16625,0.17388,0.26564\O,0,0.65413,0.46885,-1.50303\Ca,0,-
 0.76986,-0.91773,1.5775\O,0,0.48084,0.99335,1.44375\Ca,0,-0.70812,1.90
 217,-0.26248\\Version=EM64T-G03RevE.01\State=1-A\HF=-2750.2103196\RMSD
 =4.780e-05\Thermal=0.\Dipole=2.0070479,1.9948983,2.5422583\PG=C01 [X(C
 a3O5P1)]\\@


 REVOLUTIONS HAVE NEVER LIGHTENED THE BURDEN OF TYRANNY:
 THEY HAVE MERELY SHIFTED IT TO OTHER SHOULDERS.
                                   -- G. B. SHAW (1903)
 Job cpu time:  0 days  0 hours  2 minutes 28.2 seconds.
 File lengths (MBytes):  RWF=     36 Int=      0 D2E=      0 Chk=     11 Scr=      1
 Normal termination of Gaussian 03 at Fri Jun 12 18:02:55 2015.
