 Entering Gaussian System, Link 0=/home/timn/tmp/g03.e01/g03
 Input=mol_17.26.45.pdbcc_plusQ.z58456.zip.xyz.gjf
 Output=mol_17.26.45.pdbcc_plusQ.z58456.zip.xyz.out
 Initial command:
 /home/timn/tmp/g03.e01/l1.exe /home/timn/tmp/g03.e01/Gau-15090.inp -scrdir=/home/timn/tmp/g03.e01/
 Default is to use a total of   2 processors:
                                2 via shared-memory
                                1 via Linda
 Entering Link 1 = /home/timn/tmp/g03.e01/l1.exe PID=     15091.
  
 Copyright (c) 1988,1990,1992,1993,1995,1998,2003,2004,2007, Gaussian, Inc.
                  All Rights Reserved.
  
 This is the Gaussian(R) 03 program.  It is based on the
 the Gaussian(R) 98 system (copyright 1998, Gaussian, Inc.),
 the Gaussian(R) 94 system (copyright 1995, Gaussian, Inc.),
 the Gaussian 92(TM) system (copyright 1992, Gaussian, Inc.),
 the Gaussian 90(TM) system (copyright 1990, Gaussian, Inc.),
 the Gaussian 88(TM) system (copyright 1988, Gaussian, Inc.),
 the Gaussian 86(TM) system (copyright 1986, Carnegie Mellon
 University), and the Gaussian 82(TM) system (copyright 1983,
 Carnegie Mellon University). Gaussian is a federally registered
 trademark of Gaussian, Inc.
  
 This software contains proprietary and confidential information,
 including trade secrets, belonging to Gaussian, Inc.
  
 This software is provided under written license and may be
 used, copied, transmitted, or stored only in accord with that
 written license.
  
 The following legend is applicable only to US Government
 contracts under FAR:
  
                    RESTRICTED RIGHTS LEGEND
  
 Use, reproduction and disclosure by the US Government is
 subject to restrictions as set forth in subparagraphs (a)
 and (c) of the Commercial Computer Software - Restricted
 Rights clause in FAR 52.227-19.
  
 Gaussian, Inc.
 340 Quinnipiac St., Bldg. 40, Wallingford CT 06492
  
  
 ---------------------------------------------------------------
 Warning -- This program may not be used in any manner that
 competes with the business of Gaussian, Inc. or will provide
 assistance to any competitor of Gaussian, Inc.  The licensee
 of this program is prohibited from giving any competitor of
 Gaussian, Inc. access to this program.  By using this program,
 the user acknowledges that Gaussian, Inc. is engaged in the
 business of creating and licensing software in the field of
 computational chemistry and represents and warrants to the
 licensee that it is not a competitor of Gaussian, Inc. and that
 it will not use this program in any manner prohibited above.
 ---------------------------------------------------------------
  

 Cite this work as:
 Gaussian 03, Revision E.01,
 M. J. Frisch, G. W. Trucks, H. B. Schlegel, G. E. Scuseria, 
 M. A. Robb, J. R. Cheeseman, J. A. Montgomery, Jr., T. Vreven, 
 K. N. Kudin, J. C. Burant, J. M. Millam, S. S. Iyengar, J. Tomasi, 
 V. Barone, B. Mennucci, M. Cossi, G. Scalmani, N. Rega, 
 G. A. Petersson, H. Nakatsuji, M. Hada, M. Ehara, K. Toyota, 
 R. Fukuda, J. Hasegawa, M. Ishida, T. Nakajima, Y. Honda, O. Kitao, 
 H. Nakai, M. Klene, X. Li, J. E. Knox, H. P. Hratchian, J. B. Cross, 
 V. Bakken, C. Adamo, J. Jaramillo, R. Gomperts, R. E. Stratmann, 
 O. Yazyev, A. J. Austin, R. Cammi, C. Pomelli, J. W. Ochterski, 
 P. Y. Ayala, K. Morokuma, G. A. Voth, P. Salvador, J. J. Dannenberg, 
 V. G. Zakrzewski, S. Dapprich, A. D. Daniels, M. C. Strain, 
 O. Farkas, D. K. Malick, A. D. Rabuck, K. Raghavachari, 
 J. B. Foresman, J. V. Ortiz, Q. Cui, A. G. Baboul, S. Clifford, 
 J. Cioslowski, B. B. Stefanov, G. Liu, A. Liashenko, P. Piskorz, 
 I. Komaromi, R. L. Martin, D. J. Fox, T. Keith, M. A. Al-Laham, 
 C. Y. Peng, A. Nanayakkara, M. Challacombe, P. M. W. Gill, 
 B. Johnson, W. Chen, M. W. Wong, C. Gonzalez, and J. A. Pople, 
 Gaussian, Inc., Wallingford CT, 2004.
 
 ******************************************
 Gaussian 03:  EM64T-G03RevE.01 11-Sep-2007
                12-Jun-2015 
 ******************************************
 %nproc=2
 Will use up to    2 processors via shared memory.
 Default route:  MP2=Direct MaxDisk=2000MB
 ----------------------------------------------------
 # b3lyp/6-31+G(d,p) int=ultrafine pop=(ReadRadii,MK)
 ----------------------------------------------------

 Warning!  SCF SP cutoffs with diffuse functions may be unreliable.
 Consider SCF=Tight

 1/38=1/1;
 2/17=6,18=5,40=1/2;
 3/5=1,6=6,7=111,11=2,16=1,25=1,30=1,74=-5,75=5/1,2,3;
 4//1;
 5/5=2,32=1,38=5/2;
 6/7=2,8=2,9=2,10=2,15=8,20=101,28=1/1,2;
 99/5=1,9=1/99;
 ---------------------------------------
 mol_17.26.45.pdbcc_plusQ.z58456.zip.xyz
 ---------------------------------------
 Symbolic Z-matrix:
 Charge =  1 Multiplicity = 1
 O                     3.59112   0.53432   0.01419 
 O                    -2.79029  -1.05392  -0.78191 
 O                    -2.78455  -1.05618   0.78741 
 Ca                   -2.87074   1.03789   0.00607 
 O                    -0.6246    1.10532  -0.00169 
 O                     1.68681  -1.04094  -0.01326 
 P                     3.24986  -0.96649   0.00745 
 Ca                   -0.67962  -1.27781  -0.00548 
 Ca                    1.48157   1.56934  -0.00808 
 
                          Input orientation:                          
 ---------------------------------------------------------------------
 Center     Atomic     Atomic              Coordinates (Angstroms)
 Number     Number      Type              X           Y           Z
 ---------------------------------------------------------------------
    1          8             0        3.591120    0.534320    0.014190
    2          8             0       -2.790290   -1.053920   -0.781910
    3          8             0       -2.784550   -1.056180    0.787410
    4         20             0       -2.870740    1.037890    0.006070
    5          8             0       -0.624600    1.105320   -0.001690
    6          8             0        1.686810   -1.040940   -0.013260
    7         15             0        3.249860   -0.966490    0.007450
    8         20             0       -0.679620   -1.277810   -0.005480
    9         20             0        1.481570    1.569340   -0.008080
 ---------------------------------------------------------------------
                    Distance matrix (angstroms):
                    1          2          3          4          5
     1  O    0.000000
     2  O    6.624098   0.000000
     3  O    6.616398   1.569332   0.000000
     4  Ca   6.481457   2.236751   2.236750   0.000000
     5  O    4.254244   3.156149   3.155970   2.247165   0.000000
     6  O    2.471557   4.542622   4.542506   5.009308   3.154232
     7  P    1.539134   6.092138   6.085268   6.440441   4.393623
     8  Ca   4.639334   2.260066   2.260205   3.188041   2.383768
     9  Ca   2.349886   5.072385   5.072074   4.384660   2.156689
                    6          7          8          9
     6  O    0.000000
     7  P    1.564959   0.000000
     8  Ca   2.378268   3.941814   0.000000
     9  Ca   2.618341   3.091525   3.574495   0.000000
 Stoichiometry    Ca3O5P(1+)
 Framework group  C1[X(Ca3O5P)]
 Deg. of freedom    21
 Full point group                 C1
 Largest Abelian subgroup         C1      NOp   1
 Largest concise Abelian subgroup C1      NOp   1
                         Standard orientation:                         
 ---------------------------------------------------------------------
 Center     Atomic     Atomic              Coordinates (Angstroms)
 Number     Number      Type              X           Y           Z
 ---------------------------------------------------------------------
    1          8             0        3.591120    0.534322    0.014191
    2          8             0       -2.790290   -1.053919   -0.781909
    3          8             0       -2.784550   -1.056179    0.787411
    4         20             0       -2.870740    1.037891    0.006071
    5          8             0       -0.624600    1.105321   -0.001689
    6          8             0        1.686810   -1.040938   -0.013259
    7         15             0        3.249860   -0.966488    0.007451
    8         20             0       -0.679620   -1.277809   -0.005479
    9         20             0        1.481570    1.569342   -0.008079
 ---------------------------------------------------------------------
 Rotational constants (GHZ):      1.5204114      0.3921020      0.3194811
 Standard basis: 6-31+G(d,p) (6D, 7F)
 There are   199 symmetry adapted basis functions of A   symmetry.
 Integral buffers will be    131072 words long.
 Raffenetti 2 integral format.
 Two-electron integral symmetry is turned on.
   199 basis functions,   456 primitive gaussians,   199 cartesian basis functions
    57 alpha electrons       57 beta electrons
       nuclear repulsion energy       956.5483740636 Hartrees.
 NAtoms=    9 NActive=    9 NUniq=    9 SFac= 7.50D-01 NAtFMM=   80 NAOKFM=F Big=F
 One-electron integrals computed using PRISM.
 NBasis=   199 RedAO= T  NBF=   199
 NBsUse=   199 1.00D-06 NBFU=   199
 Harris functional with IExCor=  402 diagonalized for initial guess.
 ExpMin= 7.10D-03 ExpMax= 3.53D+04 ExpMxC= 5.30D+03 IAcc=3 IRadAn=         5 AccDes= 0.00D+00
 HarFok:  IExCor= 402 AccDes= 0.00D+00 IRadAn=         5 IDoV=1
 ScaDFX=  1.000000  1.000000  1.000000  1.000000
 Initial guess orbital symmetries:
       Occupied  (A) (A) (A) (A) (A) (A) (A) (A) (A) (A) (A) (A)
                 (A) (A) (A) (A) (A) (A) (A) (A) (A) (A) (A) (A)
                 (A) (A) (A) (A) (A) (A) (A) (A) (A) (A) (A) (A)
                 (A) (A) (A) (A) (A) (A) (A) (A) (A) (A) (A) (A)
                 (A) (A) (A) (A) (A) (A) (A) (A) (A)
       Virtual   (A) (A) (A) (A) (A) (A) (A) (A) (A) (A) (A) (A)
                 (A) (A) (A) (A) (A) (A) (A) (A) (A) (A) (A) (A)
                 (A) (A) (A) (A) (A) (A) (A) (A) (A) (A) (A) (A)
                 (A) (A) (A) (A) (A) (A) (A) (A) (A) (A) (A) (A)
                 (A) (A) (A) (A) (A) (A) (A) (A) (A) (A) (A) (A)
                 (A) (A) (A) (A) (A) (A) (A) (A) (A) (A) (A) (A)
                 (A) (A) (A) (A) (A) (A) (A) (A) (A) (A) (A) (A)
                 (A) (A) (A) (A) (A) (A) (A) (A) (A) (A) (A) (A)
                 (A) (A) (A) (A) (A) (A) (A) (A) (A) (A) (A) (A)
                 (A) (A) (A) (A) (A) (A) (A) (A) (A) (A) (A) (A)
                 (A) (A) (A) (A) (A) (A) (A) (A) (A) (A) (A) (A)
                 (A) (A) (A) (A) (A) (A) (A) (A) (A) (A)
 The electronic state of the initial guess is 1-A.
 Requested convergence on RMS density matrix=1.00D-04 within 128 cycles.
 Requested convergence on MAX density matrix=1.00D-02.
 Requested convergence on             energy=1.00D-02.
 No special actions if energy rises.
 EnCoef did     2 forward-backward iterations
 SCF Done:  E(RB+HF-LYP) =  -2750.21058910     A.U. after    9 cycles
             Convg  =    0.7414D-04             -V/T =  2.0029
             S**2   =   0.0000

 **********************************************************************

            Population analysis using the SCF density.

 **********************************************************************

 Orbital symmetries:
       Occupied  (A) (A) (A) (A) (A) (A) (A) (A) (A) (A) (A) (A)
                 (A) (A) (A) (A) (A) (A) (A) (A) (A) (A) (A) (A)
                 (A) (A) (A) (A) (A) (A) (A) (A) (A) (A) (A) (A)
                 (A) (A) (A) (A) (A) (A) (A) (A) (A) (A) (A) (A)
                 (A) (A) (A) (A) (A) (A) (A) (A) (A)
       Virtual   (A) (A) (A) (A) (A) (A) (A) (A) (A) (A) (A) (A)
                 (A) (A) (A) (A) (A) (A) (A) (A) (A) (A) (A) (A)
                 (A) (A) (A) (A) (A) (A) (A) (A) (A) (A) (A) (A)
                 (A) (A) (A) (A) (A) (A) (A) (A) (A) (A) (A) (A)
                 (A) (A) (A) (A) (A) (A) (A) (A) (A) (A) (A) (A)
                 (A) (A) (A) (A) (A) (A) (A) (A) (A) (A) (A) (A)
                 (A) (A) (A) (A) (A) (A) (A) (A) (A) (A) (A) (A)
                 (A) (A) (A) (A) (A) (A) (A) (A) (A) (A) (A) (A)
                 (A) (A) (A) (A) (A) (A) (A) (A) (A) (A) (A) (A)
                 (A) (A) (A) (A) (A) (A) (A) (A) (A) (A) (A) (A)
                 (A) (A) (A) (A) (A) (A) (A) (A) (A) (A) (A) (A)
                 (A) (A) (A) (A) (A) (A) (A) (A) (A) (A)
 The electronic state is 1-A.
 Alpha  occ. eigenvalues -- -145.52562-145.47907-145.45922 -77.31435 -19.29694
 Alpha  occ. eigenvalues --  -19.28906 -19.20256 -19.20251 -19.17096 -15.59462
 Alpha  occ. eigenvalues --  -15.54775 -15.52786 -12.72727 -12.72684 -12.72482
 Alpha  occ. eigenvalues --  -12.67985 -12.67955 -12.67884 -12.66023 -12.65985
 Alpha  occ. eigenvalues --  -12.65870  -6.77034  -4.93465  -4.93239  -4.92821
 Alpha  occ. eigenvalues --   -1.96694  -1.92080  -1.90154  -1.24619  -1.24616
 Alpha  occ. eigenvalues --   -1.23580  -1.20505  -1.19689  -1.19276  -1.18004
 Alpha  occ. eigenvalues --   -1.17953  -1.17608  -1.15363  -1.09603  -1.02795
 Alpha  occ. eigenvalues --   -0.91877  -0.84039  -0.68625  -0.57621  -0.54918
 Alpha  occ. eigenvalues --   -0.54230  -0.46665  -0.45217  -0.43696  -0.42878
 Alpha  occ. eigenvalues --   -0.41966  -0.41269  -0.37528  -0.36624  -0.35918
 Alpha  occ. eigenvalues --   -0.30802  -0.29154
 Alpha virt. eigenvalues --   -0.21353  -0.20123  -0.17698  -0.14553  -0.13030
 Alpha virt. eigenvalues --   -0.11138  -0.10818  -0.10363  -0.09099  -0.08476
 Alpha virt. eigenvalues --   -0.07857  -0.07111  -0.06765  -0.06249  -0.05629
 Alpha virt. eigenvalues --   -0.05189  -0.04738  -0.04683  -0.04465  -0.04344
 Alpha virt. eigenvalues --   -0.04003  -0.03716  -0.03702  -0.03624  -0.03171
 Alpha virt. eigenvalues --   -0.02778  -0.02661  -0.02452  -0.01920  -0.00110
 Alpha virt. eigenvalues --    0.01316   0.02750   0.03371   0.03460   0.03667
 Alpha virt. eigenvalues --    0.04874   0.05031   0.05906   0.05975   0.06289
 Alpha virt. eigenvalues --    0.06566   0.07095   0.07281   0.08206   0.08736
 Alpha virt. eigenvalues --    0.09188   0.10298   0.10751   0.10899   0.11384
 Alpha virt. eigenvalues --    0.11451   0.13513   0.15021   0.15065   0.16476
 Alpha virt. eigenvalues --    0.17257   0.17695   0.19056   0.19834   0.20079
 Alpha virt. eigenvalues --    0.21542   0.22355   0.23463   0.24161   0.26705
 Alpha virt. eigenvalues --    0.27509   0.28811   0.30338   0.31206   0.31256
 Alpha virt. eigenvalues --    0.32413   0.33479   0.34884   0.36802   0.38060
 Alpha virt. eigenvalues --    0.40607   0.42565   0.45770   0.46797   0.52514
 Alpha virt. eigenvalues --    0.52881   0.54092   0.57481   0.60733   0.64101
 Alpha virt. eigenvalues --    0.65161   0.85565   0.92268   0.94281   1.05087
 Alpha virt. eigenvalues --    1.07417   1.07557   1.10990   1.12545   1.14733
 Alpha virt. eigenvalues --    1.16107   1.16283   1.17437   1.19996   1.20575
 Alpha virt. eigenvalues --    1.21704   1.22843   1.25528   1.28476   1.32395
 Alpha virt. eigenvalues --    1.37940   1.41082   1.48236   1.53683   1.54320
 Alpha virt. eigenvalues --    1.54831   1.63718   1.66320   1.68692   1.69451
 Alpha virt. eigenvalues --    1.72714   1.73027   1.76683   1.78361   1.80068
 Alpha virt. eigenvalues --    1.80378   1.83379   1.84210   1.85125   1.86542
 Alpha virt. eigenvalues --    1.89057   1.92092   1.95259   2.01464   2.05555
 Alpha virt. eigenvalues --    2.12210   2.21695   2.24031   2.51041   2.67664
 Alpha virt. eigenvalues --    3.06782   3.38673   3.85991   3.88086   3.95556
 Alpha virt. eigenvalues --    4.10906   4.14246
          Condensed to atoms (all electrons):
              1          2          3          4          5          6
     1  O    8.555384   0.000005   0.000006   0.002354  -0.000416  -0.075108
     2  O    0.000005   8.485078  -0.029869   0.098459  -0.003625  -0.001604
     3  O    0.000006  -0.029869   8.485249   0.098455  -0.003767  -0.001559
     4  Ca   0.002354   0.098459   0.098455  18.303193   0.109005   0.005411
     5  O   -0.000416  -0.003625  -0.003767   0.109005   8.991792  -0.012915
     6  O   -0.075108  -0.001604  -0.001559   0.005411  -0.012915   8.914418
     7  P    0.091190  -0.000026  -0.000150  -0.012693  -0.008600  -0.144043
     8  Ca   0.005426   0.106742   0.106851  -0.047347   0.055029   0.037207
     9  Ca   0.076968  -0.001035  -0.000946  -0.013912   0.196300   0.017707
              7          8          9
     1  O    0.091190   0.005426   0.076968
     2  O   -0.000026   0.106742  -0.001035
     3  O   -0.000150   0.106851  -0.000946
     4  Ca  -0.012693  -0.047347  -0.013912
     5  O   -0.008600   0.055029   0.196300
     6  O   -0.144043   0.037207   0.017707
     7  P   14.409411   0.004694  -0.019995
     8  Ca   0.004694  18.343375  -0.005187
     9  Ca  -0.019995  -0.005187  18.254079
 Mulliken atomic charges:
              1
     1  O   -0.655809
     2  O   -0.654124
     3  O   -0.654270
     4  Ca   1.457075
     5  O   -1.322803
     6  O   -0.739513
     7  P    0.680213
     8  Ca   1.393212
     9  Ca   1.496020
 Sum of Mulliken charges=   1.00000
 Atomic charges with hydrogens summed into heavy atoms:
              1
     1  O   -0.655809
     2  O   -0.654124
     3  O   -0.654270
     4  Ca   1.457075
     5  O   -1.322803
     6  O   -0.739513
     7  P    0.680213
     8  Ca   1.393212
     9  Ca   1.496020
 Sum of Mulliken charges=   1.00000
 Electronic spatial extent (au):  <R**2>=  2984.6143
 Charge=     1.0000 electrons
 Dipole moment (field-independent basis, Debye):
    X=     1.5365    Y=     9.0292    Z=    -0.0456  Tot=     9.1591
 Quadrupole moment (field-independent basis, Debye-Ang):
   XX=   -64.0568   YY=   -51.7152   ZZ=   -77.1289
   XY=   -21.8657   XZ=    -0.2261   YZ=    -0.0400
 Traceless Quadrupole moment (field-independent basis, Debye-Ang):
   XX=     0.2435   YY=    12.5851   ZZ=   -12.8286
   XY=   -21.8657   XZ=    -0.2261   YZ=    -0.0400
 Octapole moment (field-independent basis, Debye-Ang**2):
  XXX=   -95.1703  YYY=    45.5548  ZZZ=    -0.1629  XYY=     9.0470
  XXY=   118.3499  XXZ=    -0.2124  XZZ=     9.7492  YZZ=    10.9603
  YYZ=    -0.2211  XYZ=    -0.6057
 Hexadecapole moment (field-independent basis, Debye-Ang**3):
 XXXX= -2682.2260 YYYY=  -563.5535 ZZZZ=  -128.6729 XXXY=  -454.5073
 XXXZ=    -3.5611 YYYX=    22.1694 YYYZ=    -0.0427 ZZZX=    -0.3991
 ZZZY=     0.0410 XXYY=  -492.1957 XXZZ=  -482.1085 YYZZ=  -129.6470
 XXYZ=    -0.0837 YYXZ=    -0.5148 ZZXY=   -17.0340
 N-N= 9.565483740636D+02 E-N=-8.414265363757D+03  KE= 2.742250262959D+03
 Merz-Kollman atomic radii used.
 Read replacement radii for each type of atom:
 Rad(20) =   1.188000000000D+00
 Atom Element Radius
    1     8    1.40
    2     8    1.40
    3     8    1.40
    4    20    1.19
    5     8    1.40
    6     8    1.40
    7    15    1.80
    8    20    1.19
    9    20    1.19

 **********************************************************************

            Electrostatic Properties Using The SCF Density

 **********************************************************************

       Atomic Center    1 is at   3.591120  0.534322  0.014191
       Atomic Center    2 is at  -2.790290 -1.053919 -0.781909
       Atomic Center    3 is at  -2.784550 -1.056179  0.787411
       Atomic Center    4 is at  -2.870740  1.037891  0.006071
       Atomic Center    5 is at  -0.624600  1.105321 -0.001689
       Atomic Center    6 is at   1.686810 -1.040938 -0.013259
       Atomic Center    7 is at   3.249860 -0.966488  0.007451
       Atomic Center    8 is at  -0.679620 -1.277809 -0.005479
       Atomic Center    9 is at   1.481570  1.569342 -0.008079
     883 points will be used for fitting atomic charges
 Fitting point charges to eletrostatic potential
 Charges from ESP fit, RMS=   0.00471 RRMS=   0.03200:
 Charge=   1.00000 Dipole=     1.5342     9.2145    -0.0425 Tot=     9.3414
              1
     1  O   -0.661080
     2  O   -0.776124
     3  O   -0.775632
     4  Ca   1.698930
     5  O   -1.750681
     6  O   -0.745045
     7  P    0.601409
     8  Ca   1.663677
     9  Ca   1.744547
 -----------------------------------------------------------------

              Electrostatic Properties (Atomic Units)

 -----------------------------------------------------------------
    Center     Electric         -------- Electric Field --------
               Potential          X             Y             Z
 -----------------------------------------------------------------
    1 Atom    -22.177615
    2 Atom    -22.273258
    3 Atom    -22.273261
    4 Atom    -80.062045
    5 Atom    -22.293116
    6 Atom    -22.167431
    7 Atom    -53.901528
    8 Atom    -80.080978
    9 Atom    -80.015387
 -----------------------------------------------------------------
 1\1\GINC-N030\SP\RB3LYP\6-31+G(d,p)\Ca3O5P1(1+)\TIMN\12-Jun-2015\0\\# 
 b3lyp/6-31+G(d,p) int=ultrafine pop=(ReadRadii,MK)\\mol_17.26.45.pdbcc
 _plusQ.z58456.zip.xyz\\1,1\O,0,3.59112,0.53432,0.01419\O,0,-2.79029,-1
 .05392,-0.78191\O,0,-2.78455,-1.05618,0.78741\Ca,0,-2.87074,1.03789,0.
 00607\O,0,-0.6246,1.10532,-0.00169\O,0,1.68681,-1.04094,-0.01326\P,0,3
 .24986,-0.96649,0.00745\Ca,0,-0.67962,-1.27781,-0.00548\Ca,0,1.48157,1
 .56934,-0.00808\\Version=EM64T-G03RevE.01\State=1-A\HF=-2750.2105891\R
 MSD=7.414e-05\Thermal=0.\Dipole=0.604507,3.5523468,-0.0179253\PG=C01 [
 X(Ca3O5P1)]\\@


 ON A CLEAR DISK YOU CAN SEEK FOREVER.
 Job cpu time:  0 days  0 hours  2 minutes  3.4 seconds.
 File lengths (MBytes):  RWF=     36 Int=      0 D2E=      0 Chk=     11 Scr=      1
 Normal termination of Gaussian 03 at Fri Jun 12 18:01:06 2015.
