 Entering Gaussian System, Link 0=/home/timn/tmp/g03.e01/g03
 Input=mol_17.28.0.pdb_plusQ.z58531.zip.xyz.gjf
 Output=mol_17.28.0.pdb_plusQ.z58531.zip.xyz.out
 Initial command:
 /home/timn/tmp/g03.e01/l1.exe /home/timn/tmp/g03.e01/Gau-20243.inp -scrdir=/home/timn/tmp/g03.e01/
 Default is to use a total of   2 processors:
                                2 via shared-memory
                                1 via Linda
 Entering Link 1 = /home/timn/tmp/g03.e01/l1.exe PID=     20244.
  
 Copyright (c) 1988,1990,1992,1993,1995,1998,2003,2004,2007, Gaussian, Inc.
                  All Rights Reserved.
  
 This is the Gaussian(R) 03 program.  It is based on the
 the Gaussian(R) 98 system (copyright 1998, Gaussian, Inc.),
 the Gaussian(R) 94 system (copyright 1995, Gaussian, Inc.),
 the Gaussian 92(TM) system (copyright 1992, Gaussian, Inc.),
 the Gaussian 90(TM) system (copyright 1990, Gaussian, Inc.),
 the Gaussian 88(TM) system (copyright 1988, Gaussian, Inc.),
 the Gaussian 86(TM) system (copyright 1986, Carnegie Mellon
 University), and the Gaussian 82(TM) system (copyright 1983,
 Carnegie Mellon University). Gaussian is a federally registered
 trademark of Gaussian, Inc.
  
 This software contains proprietary and confidential information,
 including trade secrets, belonging to Gaussian, Inc.
  
 This software is provided under written license and may be
 used, copied, transmitted, or stored only in accord with that
 written license.
  
 The following legend is applicable only to US Government
 contracts under FAR:
  
                    RESTRICTED RIGHTS LEGEND
  
 Use, reproduction and disclosure by the US Government is
 subject to restrictions as set forth in subparagraphs (a)
 and (c) of the Commercial Computer Software - Restricted
 Rights clause in FAR 52.227-19.
  
 Gaussian, Inc.
 340 Quinnipiac St., Bldg. 40, Wallingford CT 06492
  
  
 ---------------------------------------------------------------
 Warning -- This program may not be used in any manner that
 competes with the business of Gaussian, Inc. or will provide
 assistance to any competitor of Gaussian, Inc.  The licensee
 of this program is prohibited from giving any competitor of
 Gaussian, Inc. access to this program.  By using this program,
 the user acknowledges that Gaussian, Inc. is engaged in the
 business of creating and licensing software in the field of
 computational chemistry and represents and warrants to the
 licensee that it is not a competitor of Gaussian, Inc. and that
 it will not use this program in any manner prohibited above.
 ---------------------------------------------------------------
  

 Cite this work as:
 Gaussian 03, Revision E.01,
 M. J. Frisch, G. W. Trucks, H. B. Schlegel, G. E. Scuseria, 
 M. A. Robb, J. R. Cheeseman, J. A. Montgomery, Jr., T. Vreven, 
 K. N. Kudin, J. C. Burant, J. M. Millam, S. S. Iyengar, J. Tomasi, 
 V. Barone, B. Mennucci, M. Cossi, G. Scalmani, N. Rega, 
 G. A. Petersson, H. Nakatsuji, M. Hada, M. Ehara, K. Toyota, 
 R. Fukuda, J. Hasegawa, M. Ishida, T. Nakajima, Y. Honda, O. Kitao, 
 H. Nakai, M. Klene, X. Li, J. E. Knox, H. P. Hratchian, J. B. Cross, 
 V. Bakken, C. Adamo, J. Jaramillo, R. Gomperts, R. E. Stratmann, 
 O. Yazyev, A. J. Austin, R. Cammi, C. Pomelli, J. W. Ochterski, 
 P. Y. Ayala, K. Morokuma, G. A. Voth, P. Salvador, J. J. Dannenberg, 
 V. G. Zakrzewski, S. Dapprich, A. D. Daniels, M. C. Strain, 
 O. Farkas, D. K. Malick, A. D. Rabuck, K. Raghavachari, 
 J. B. Foresman, J. V. Ortiz, Q. Cui, A. G. Baboul, S. Clifford, 
 J. Cioslowski, B. B. Stefanov, G. Liu, A. Liashenko, P. Piskorz, 
 I. Komaromi, R. L. Martin, D. J. Fox, T. Keith, M. A. Al-Laham, 
 C. Y. Peng, A. Nanayakkara, M. Challacombe, P. M. W. Gill, 
 B. Johnson, W. Chen, M. W. Wong, C. Gonzalez, and J. A. Pople, 
 Gaussian, Inc., Wallingford CT, 2004.
 
 ******************************************
 Gaussian 03:  EM64T-G03RevE.01 11-Sep-2007
                12-Jun-2015 
 ******************************************
 %nproc=2
 Will use up to    2 processors via shared memory.
 Default route:  MP2=Direct MaxDisk=2000MB
 ----------------------------------------------------
 # b3lyp/6-31+G(d,p) int=ultrafine pop=(ReadRadii,MK)
 ----------------------------------------------------

 Warning!  SCF SP cutoffs with diffuse functions may be unreliable.
 Consider SCF=Tight

 1/38=1/1;
 2/17=6,18=5,40=1/2;
 3/5=1,6=6,7=111,11=2,16=1,25=1,30=1,74=-5,75=5/1,2,3;
 4//1;
 5/5=2,32=1,38=5/2;
 6/7=2,8=2,9=2,10=2,15=8,20=101,28=1/1,2;
 99/5=1,9=1/99;
 ------------------------------------
 mol_17.28.0.pdb_plusQ.z58531.zip.xyz
 ------------------------------------
 Symbolic Z-matrix:
 Charge =  1 Multiplicity = 1
 O                    -0.67412   0.00011   1.47123 
 O                     0.70662  -1.25482  -0.29004 
 Ca                   -1.63882  -1.69413  -0.11451 
 Ca                   -1.63705   1.69497  -0.11346 
 O                    -2.64266   0.0012   -0.93446 
 O                     0.70816   1.25362  -0.28965 
 P                     0.68045  -0.00081   0.73511 
 Ca                    2.69752   0.00036  -0.86516 
 O                     2.07204  -0.00158   1.3974 
 
                          Input orientation:                          
 ---------------------------------------------------------------------
 Center     Atomic     Atomic              Coordinates (Angstroms)
 Number     Number      Type              X           Y           Z
 ---------------------------------------------------------------------
    1          8             0       -0.674120    0.000110    1.471230
    2          8             0        0.706620   -1.254820   -0.290040
    3         20             0       -1.638820   -1.694130   -0.114510
    4         20             0       -1.637050    1.694970   -0.113460
    5          8             0       -2.642660    0.001200   -0.934460
    6          8             0        0.708160    1.253620   -0.289650
    7         15             0        0.680450   -0.000810    0.735110
    8         20             0        2.697520    0.000360   -0.865160
    9          8             0        2.072040   -0.001580    1.397400
 ---------------------------------------------------------------------
                    Distance matrix (angstroms):
                    1          2          3          4          5
     1  O    0.000000
     2  O    2.565807   0.000000
     3  Ca   2.513099   2.392675   0.000000
     4  Ca   2.512176   3.771635   3.389101   0.000000
     5  O    3.108455   3.634631   2.134047   2.134045   0.000000
     6  O    2.565674   2.508441   3.772031   2.392873   3.634877
     7  P    1.541666   1.619925   2.994695   2.994419   3.718942
     8  Ca   4.102033   2.422792   4.715784   4.714367   5.340630
     9  O    2.747153   2.506479   4.349837   4.349520   5.259846
                    6          7          8          9
     6  O    0.000000
     7  P    1.620029   0.000000
     8  Ca   2.420625   2.574769   0.000000
     9  O    2.506359   1.541153   2.347426   0.000000
 Stoichiometry    Ca3O5P(1+)
 Framework group  C1[X(Ca3O5P)]
 Deg. of freedom    21
 Full point group                 C1
 Largest Abelian subgroup         C1      NOp   1
 Largest concise Abelian subgroup C1      NOp   1
                         Standard orientation:                         
 ---------------------------------------------------------------------
 Center     Atomic     Atomic              Coordinates (Angstroms)
 Number     Number      Type              X           Y           Z
 ---------------------------------------------------------------------
    1          8             0       -0.674121    0.000110    1.471231
    2          8             0        0.706619   -1.254821   -0.290039
    3         20             0       -1.638822   -1.694130   -0.114509
    4         20             0       -1.637050    1.694970   -0.113459
    5          8             0       -2.642661    0.001201   -0.934459
    6          8             0        0.708160    1.253619   -0.289649
    7         15             0        0.680449   -0.000811    0.735111
    8         20             0        2.697519    0.000358   -0.865159
    9          8             0        2.072039   -0.001582    1.397401
 ---------------------------------------------------------------------
 Rotational constants (GHZ):      1.2325647      0.5921921      0.5038491
 Standard basis: 6-31+G(d,p) (6D, 7F)
 There are   199 symmetry adapted basis functions of A   symmetry.
 Integral buffers will be    131072 words long.
 Raffenetti 2 integral format.
 Two-electron integral symmetry is turned on.
   199 basis functions,   456 primitive gaussians,   199 cartesian basis functions
    57 alpha electrons       57 beta electrons
       nuclear repulsion energy      1056.8430872729 Hartrees.
 NAtoms=    9 NActive=    9 NUniq=    9 SFac= 7.50D-01 NAtFMM=   80 NAOKFM=F Big=F
 One-electron integrals computed using PRISM.
 NBasis=   199 RedAO= T  NBF=   199
 NBsUse=   199 1.00D-06 NBFU=   199
 Harris functional with IExCor=  402 diagonalized for initial guess.
 ExpMin= 7.10D-03 ExpMax= 3.53D+04 ExpMxC= 5.30D+03 IAcc=3 IRadAn=         5 AccDes= 0.00D+00
 HarFok:  IExCor= 402 AccDes= 0.00D+00 IRadAn=         5 IDoV=1
 ScaDFX=  1.000000  1.000000  1.000000  1.000000
 Initial guess orbital symmetries:
       Occupied  (A) (A) (A) (A) (A) (A) (A) (A) (A) (A) (A) (A)
                 (A) (A) (A) (A) (A) (A) (A) (A) (A) (A) (A) (A)
                 (A) (A) (A) (A) (A) (A) (A) (A) (A) (A) (A) (A)
                 (A) (A) (A) (A) (A) (A) (A) (A) (A) (A) (A) (A)
                 (A) (A) (A) (A) (A) (A) (A) (A) (A)
       Virtual   (A) (A) (A) (A) (A) (A) (A) (A) (A) (A) (A) (A)
                 (A) (A) (A) (A) (A) (A) (A) (A) (A) (A) (A) (A)
                 (A) (A) (A) (A) (A) (A) (A) (A) (A) (A) (A) (A)
                 (A) (A) (A) (A) (A) (A) (A) (A) (A) (A) (A) (A)
                 (A) (A) (A) (A) (A) (A) (A) (A) (A) (A) (A) (A)
                 (A) (A) (A) (A) (A) (A) (A) (A) (A) (A) (A) (A)
                 (A) (A) (A) (A) (A) (A) (A) (A) (A) (A) (A) (A)
                 (A) (A) (A) (A) (A) (A) (A) (A) (A) (A) (A) (A)
                 (A) (A) (A) (A) (A) (A) (A) (A) (A) (A) (A) (A)
                 (A) (A) (A) (A) (A) (A) (A) (A) (A) (A) (A) (A)
                 (A) (A) (A) (A) (A) (A) (A) (A) (A) (A) (A) (A)
                 (A) (A) (A) (A) (A) (A) (A) (A) (A) (A)
 The electronic state of the initial guess is 1-A.
 Requested convergence on RMS density matrix=1.00D-04 within 128 cycles.
 Requested convergence on MAX density matrix=1.00D-02.
 Requested convergence on             energy=1.00D-02.
 No special actions if energy rises.
 EnCoef did     2 forward-backward iterations
 EnCoef did     4 forward-backward iterations
 SCF Done:  E(RB+HF-LYP) =  -2750.29808237     A.U. after   10 cycles
             Convg  =    0.1833D-04             -V/T =  2.0030
             S**2   =   0.0000

 **********************************************************************

            Population analysis using the SCF density.

 **********************************************************************

 Orbital symmetries:
       Occupied  (A) (A) (A) (A) (A) (A) (A) (A) (A) (A) (A) (A)
                 (A) (A) (A) (A) (A) (A) (A) (A) (A) (A) (A) (A)
                 (A) (A) (A) (A) (A) (A) (A) (A) (A) (A) (A) (A)
                 (A) (A) (A) (A) (A) (A) (A) (A) (A) (A) (A) (A)
                 (A) (A) (A) (A) (A) (A) (A) (A) (A)
       Virtual   (A) (A) (A) (A) (A) (A) (A) (A) (A) (A) (A) (A)
                 (A) (A) (A) (A) (A) (A) (A) (A) (A) (A) (A) (A)
                 (A) (A) (A) (A) (A) (A) (A) (A) (A) (A) (A) (A)
                 (A) (A) (A) (A) (A) (A) (A) (A) (A) (A) (A) (A)
                 (A) (A) (A) (A) (A) (A) (A) (A) (A) (A) (A) (A)
                 (A) (A) (A) (A) (A) (A) (A) (A) (A) (A) (A) (A)
                 (A) (A) (A) (A) (A) (A) (A) (A) (A) (A) (A) (A)
                 (A) (A) (A) (A) (A) (A) (A) (A) (A) (A) (A) (A)
                 (A) (A) (A) (A) (A) (A) (A) (A) (A) (A) (A) (A)
                 (A) (A) (A) (A) (A) (A) (A) (A) (A) (A) (A) (A)
                 (A) (A) (A) (A) (A) (A) (A) (A) (A) (A) (A) (A)
                 (A) (A) (A) (A) (A) (A) (A) (A) (A) (A)
 The electronic state is 1-A.
 Alpha  occ. eigenvalues -- -145.57957-145.47231-145.47228 -77.31601 -19.23824
 Alpha  occ. eigenvalues --  -19.22927 -19.22921 -19.21458 -19.10166 -15.64609
 Alpha  occ. eigenvalues --  -15.54061 -15.54059 -12.77810 -12.77807 -12.77797
 Alpha  occ. eigenvalues --  -12.67282 -12.67281 -12.67271 -12.67269 -12.67145
 Alpha  occ. eigenvalues --  -12.67143  -6.76214  -4.92587  -4.92575  -4.92462
 Alpha  occ. eigenvalues --   -2.01386  -1.91284  -1.91231  -1.29240  -1.28567
 Alpha  occ. eigenvalues --   -1.28540  -1.19732  -1.18940  -1.18883  -1.18830
 Alpha  occ. eigenvalues --   -1.18546  -1.17840  -1.13223  -1.05728  -1.03314
 Alpha  occ. eigenvalues --   -1.03274  -0.84391  -0.62849  -0.54544  -0.53751
 Alpha  occ. eigenvalues --   -0.52819  -0.46973  -0.46088  -0.44538  -0.42823
 Alpha  occ. eigenvalues --   -0.42132  -0.39663  -0.39016  -0.36421  -0.30212
 Alpha  occ. eigenvalues --   -0.28471  -0.28396
 Alpha virt. eigenvalues --   -0.23010  -0.17081  -0.15715  -0.13320  -0.13268
 Alpha virt. eigenvalues --   -0.10169  -0.09206  -0.08565  -0.07815  -0.07318
 Alpha virt. eigenvalues --   -0.07161  -0.05943  -0.05553  -0.05159  -0.04888
 Alpha virt. eigenvalues --   -0.04709  -0.03888  -0.03881  -0.03766  -0.03460
 Alpha virt. eigenvalues --   -0.03340  -0.02884  -0.02875  -0.02478  -0.02043
 Alpha virt. eigenvalues --   -0.00261  -0.00253   0.00432   0.00866   0.01374
 Alpha virt. eigenvalues --    0.02173   0.03151   0.03271   0.03540   0.04186
 Alpha virt. eigenvalues --    0.04799   0.05369   0.05862   0.06984   0.07144
 Alpha virt. eigenvalues --    0.07879   0.08707   0.09157   0.09348   0.09832
 Alpha virt. eigenvalues --    0.10581   0.10876   0.11748   0.12390   0.12681
 Alpha virt. eigenvalues --    0.13039   0.14784   0.15435   0.16515   0.18295
 Alpha virt. eigenvalues --    0.19043   0.20105   0.20292   0.20813   0.22361
 Alpha virt. eigenvalues --    0.23183   0.23270   0.23819   0.26004   0.27049
 Alpha virt. eigenvalues --    0.27390   0.29004   0.29602   0.29772   0.32080
 Alpha virt. eigenvalues --    0.32954   0.36118   0.37273   0.39364   0.42052
 Alpha virt. eigenvalues --    0.44091   0.45601   0.45964   0.52174   0.55072
 Alpha virt. eigenvalues --    0.56226   0.58443   0.60033   0.61393   0.73984
 Alpha virt. eigenvalues --    0.77593   0.79906   0.93436   0.96324   0.99198
 Alpha virt. eigenvalues --    1.07578   1.14522   1.15626   1.16630   1.16849
 Alpha virt. eigenvalues --    1.18788   1.19619   1.21701   1.23484   1.23617
 Alpha virt. eigenvalues --    1.25905   1.27033   1.28288   1.29349   1.30099
 Alpha virt. eigenvalues --    1.34066   1.43458   1.52080   1.52850   1.60120
 Alpha virt. eigenvalues --    1.68804   1.71644   1.72017   1.73738   1.75138
 Alpha virt. eigenvalues --    1.76528   1.78016   1.78687   1.80414   1.83856
 Alpha virt. eigenvalues --    1.85035   1.88195   1.89156   1.90266   1.94977
 Alpha virt. eigenvalues --    1.96521   1.98595   2.03617   2.05299   2.11945
 Alpha virt. eigenvalues --    2.16975   2.19563   2.53895   2.65295   2.74817
 Alpha virt. eigenvalues --    2.80178   3.47866   4.00076   4.05776   4.06645
 Alpha virt. eigenvalues --    4.11931   4.31174
          Condensed to atoms (all electrons):
              1          2          3          4          5          6
     1  O    8.895365  -0.103404   0.045307   0.045335   0.010087  -0.103167
     2  O   -0.103404   8.998129   0.041484  -0.006715  -0.000498   0.062531
     3  Ca   0.045307   0.041484  18.329529  -0.027723   0.211144  -0.006678
     4  Ca   0.045335  -0.006715  -0.027723  18.329627   0.211146   0.041390
     5  O    0.010087  -0.000498   0.211144   0.211146   8.725991  -0.000505
     6  O   -0.103167   0.062531  -0.006678   0.041390  -0.000505   8.998415
     7  P    0.228804   0.013738   0.017535   0.017525  -0.000348   0.013198
     8  Ca   0.026677   0.081967  -0.007277  -0.007263   0.004324   0.082222
     9  O   -0.120153  -0.032366   0.009678   0.009680   0.000383  -0.032175
              7          8          9
     1  O    0.228804   0.026677  -0.120153
     2  O    0.013738   0.081967  -0.032366
     3  Ca   0.017535  -0.007277   0.009678
     4  Ca   0.017525  -0.007263   0.009680
     5  O   -0.000348   0.004324   0.000383
     6  O    0.013198   0.082222  -0.032175
     7  P   12.861349   0.036061   0.008069
     8  Ca   0.036061  18.237640   0.084677
     9  O    0.008069   0.084677   8.914578
 Mulliken atomic charges:
              1
     1  O   -0.924851
     2  O   -1.054865
     3  Ca   1.387001
     4  Ca   1.386998
     5  O   -1.161722
     6  O   -1.055230
     7  P    1.804069
     8  Ca   1.460972
     9  O   -0.842371
 Sum of Mulliken charges=   1.00000
 Atomic charges with hydrogens summed into heavy atoms:
              1
     1  O   -0.924851
     2  O   -1.054865
     3  Ca   1.387001
     4  Ca   1.386998
     5  O   -1.161722
     6  O   -1.055230
     7  P    1.804069
     8  Ca   1.460972
     9  O   -0.842371
 Sum of Mulliken charges=   1.00000
 Electronic spatial extent (au):  <R**2>=  2146.5118
 Charge=     1.0000 electrons
 Dipole moment (field-independent basis, Debye):
    X=     7.1107    Y=     0.0052    Z=    -5.8437  Tot=     9.2038
 Quadrupole moment (field-independent basis, Debye-Ang):
   XX=   -40.1232   YY=   -41.8564   ZZ=   -83.9390
   XY=     0.0464   XZ=   -35.4697   YZ=     0.0181
 Traceless Quadrupole moment (field-independent basis, Debye-Ang):
   XX=    15.1830   YY=    13.4498   ZZ=   -28.6328
   XY=     0.0464   XZ=   -35.4697   YZ=     0.0181
 Octapole moment (field-independent basis, Debye-Ang**2):
  XXX=   205.9953  YYY=     0.0940  ZZZ=   -28.0485  XYY=   -82.6068
  XXY=    -0.0800  XXZ=   -41.8692  XZZ=    30.7217  YZZ=     0.0015
  YYZ=    -5.6227  XYZ=    -0.0388
 Hexadecapole moment (field-independent basis, Debye-Ang**3):
 XXXX= -1215.2155 YYYY=  -404.3391 ZZZZ=  -391.1305 XXXY=     0.5092
 XXXZ=  -359.7329 YYYX=     0.0571 YYYZ=     0.0603 ZZZX=  -103.1190
 ZZZY=     0.0473 XXYY=  -195.3876 XXZZ=  -311.7739 YYZZ=  -145.4034
 XXYZ=     0.1211 YYXZ=   -10.2620 ZZXY=     0.0775
 N-N= 1.056843087273D+03 E-N=-8.614401287822D+03  KE= 2.742195220833D+03
 Merz-Kollman atomic radii used.
 Read replacement radii for each type of atom:
 Rad(20) =   1.188000000000D+00
 Atom Element Radius
    1     8    1.40
    2     8    1.40
    3    20    1.19
    4    20    1.19
    5     8    1.40
    6     8    1.40
    7    15    1.80
    8    20    1.19
    9     8    1.40

 **********************************************************************

            Electrostatic Properties Using The SCF Density

 **********************************************************************

       Atomic Center    1 is at  -0.674121  0.000110  1.471231
       Atomic Center    2 is at   0.706619 -1.254821 -0.290039
       Atomic Center    3 is at  -1.638822 -1.694130 -0.114509
       Atomic Center    4 is at  -1.637050  1.694970 -0.113459
       Atomic Center    5 is at  -2.642661  0.001201 -0.934459
       Atomic Center    6 is at   0.708160  1.253619 -0.289649
       Atomic Center    7 is at   0.680449 -0.000811  0.735111
       Atomic Center    8 is at   2.697519  0.000358 -0.865159
       Atomic Center    9 is at   2.072039 -0.001582  1.397401
     750 points will be used for fitting atomic charges
 Fitting point charges to eletrostatic potential
 Charges from ESP fit, RMS=   0.00447 RRMS=   0.02817:
 Charge=   1.00000 Dipole=     6.9211     0.0048    -5.8177 Tot=     9.0415
              1
     1  O   -0.959787
     2  O   -1.195679
     3  Ca   1.676079
     4  Ca   1.675889
     5  O   -1.519333
     6  O   -1.195910
     7  P    1.685406
     8  Ca   1.738510
     9  O   -0.905175
 -----------------------------------------------------------------

              Electrostatic Properties (Atomic Units)

 -----------------------------------------------------------------
    Center     Electric         -------- Electric Field --------
               Potential          X             Y             Z
 -----------------------------------------------------------------
    1 Atom    -22.225558
    2 Atom    -22.233898
    3 Atom    -80.068616
    4 Atom    -80.068633
    5 Atom    -22.360158
    6 Atom    -22.233863
    7 Atom    -53.889243
    8 Atom    -79.960630
    9 Atom    -22.248884
 -----------------------------------------------------------------
 1\1\GINC-N026\SP\RB3LYP\6-31+G(d,p)\Ca3O5P1(1+)\TIMN\12-Jun-2015\0\\# 
 b3lyp/6-31+G(d,p) int=ultrafine pop=(ReadRadii,MK)\\mol_17.28.0.pdb_pl
 usQ.z58531.zip.xyz\\1,1\O,0,-0.67412,0.00011,1.47123\O,0,0.70662,-1.25
 482,-0.29004\Ca,0,-1.63882,-1.69413,-0.11451\Ca,0,-1.63705,1.69497,-0.
 11346\O,0,-2.64266,0.0012,-0.93446\O,0,0.70816,1.25362,-0.28965\P,0,0.
 68045,-0.00081,0.73511\Ca,0,2.69752,0.00036,-0.86516\O,0,2.07204,-0.00
 158,1.3974\\Version=EM64T-G03RevE.01\State=1-A\HF=-2750.2980824\RMSD=1
 .833e-05\Thermal=0.\Dipole=2.797569,0.0020604,-2.2990812\PG=C01 [X(Ca3
 O5P1)]\\@


 IF MATHEMATICALLY YOU END UP WITH THE INCORRECT ANSWER,
 TRY MULTIPLYING BY THE PAGE NUMBER.
 Job cpu time:  0 days  0 hours  2 minutes 40.6 seconds.
 File lengths (MBytes):  RWF=     36 Int=      0 D2E=      0 Chk=     11 Scr=      1
 Normal termination of Gaussian 03 at Fri Jun 12 18:08:41 2015.
