 Entering Gaussian System, Link 0=/home/timn/tmp/g03.e01/g03
 Input=mol_17.28.42.pdbcccc_plusQ.z58566.zip.xyz.gjf
 Output=mol_17.28.42.pdbcccc_plusQ.z58566.zip.xyz.out
 Initial command:
 /home/timn/tmp/g03.e01/l1.exe /home/timn/tmp/g03.e01/Gau-15486.inp -scrdir=/home/timn/tmp/g03.e01/
 Default is to use a total of   2 processors:
                                2 via shared-memory
                                1 via Linda
 Entering Link 1 = /home/timn/tmp/g03.e01/l1.exe PID=     15487.
  
 Copyright (c) 1988,1990,1992,1993,1995,1998,2003,2004,2007, Gaussian, Inc.
                  All Rights Reserved.
  
 This is the Gaussian(R) 03 program.  It is based on the
 the Gaussian(R) 98 system (copyright 1998, Gaussian, Inc.),
 the Gaussian(R) 94 system (copyright 1995, Gaussian, Inc.),
 the Gaussian 92(TM) system (copyright 1992, Gaussian, Inc.),
 the Gaussian 90(TM) system (copyright 1990, Gaussian, Inc.),
 the Gaussian 88(TM) system (copyright 1988, Gaussian, Inc.),
 the Gaussian 86(TM) system (copyright 1986, Carnegie Mellon
 University), and the Gaussian 82(TM) system (copyright 1983,
 Carnegie Mellon University). Gaussian is a federally registered
 trademark of Gaussian, Inc.
  
 This software contains proprietary and confidential information,
 including trade secrets, belonging to Gaussian, Inc.
  
 This software is provided under written license and may be
 used, copied, transmitted, or stored only in accord with that
 written license.
  
 The following legend is applicable only to US Government
 contracts under FAR:
  
                    RESTRICTED RIGHTS LEGEND
  
 Use, reproduction and disclosure by the US Government is
 subject to restrictions as set forth in subparagraphs (a)
 and (c) of the Commercial Computer Software - Restricted
 Rights clause in FAR 52.227-19.
  
 Gaussian, Inc.
 340 Quinnipiac St., Bldg. 40, Wallingford CT 06492
  
  
 ---------------------------------------------------------------
 Warning -- This program may not be used in any manner that
 competes with the business of Gaussian, Inc. or will provide
 assistance to any competitor of Gaussian, Inc.  The licensee
 of this program is prohibited from giving any competitor of
 Gaussian, Inc. access to this program.  By using this program,
 the user acknowledges that Gaussian, Inc. is engaged in the
 business of creating and licensing software in the field of
 computational chemistry and represents and warrants to the
 licensee that it is not a competitor of Gaussian, Inc. and that
 it will not use this program in any manner prohibited above.
 ---------------------------------------------------------------
  

 Cite this work as:
 Gaussian 03, Revision E.01,
 M. J. Frisch, G. W. Trucks, H. B. Schlegel, G. E. Scuseria, 
 M. A. Robb, J. R. Cheeseman, J. A. Montgomery, Jr., T. Vreven, 
 K. N. Kudin, J. C. Burant, J. M. Millam, S. S. Iyengar, J. Tomasi, 
 V. Barone, B. Mennucci, M. Cossi, G. Scalmani, N. Rega, 
 G. A. Petersson, H. Nakatsuji, M. Hada, M. Ehara, K. Toyota, 
 R. Fukuda, J. Hasegawa, M. Ishida, T. Nakajima, Y. Honda, O. Kitao, 
 H. Nakai, M. Klene, X. Li, J. E. Knox, H. P. Hratchian, J. B. Cross, 
 V. Bakken, C. Adamo, J. Jaramillo, R. Gomperts, R. E. Stratmann, 
 O. Yazyev, A. J. Austin, R. Cammi, C. Pomelli, J. W. Ochterski, 
 P. Y. Ayala, K. Morokuma, G. A. Voth, P. Salvador, J. J. Dannenberg, 
 V. G. Zakrzewski, S. Dapprich, A. D. Daniels, M. C. Strain, 
 O. Farkas, D. K. Malick, A. D. Rabuck, K. Raghavachari, 
 J. B. Foresman, J. V. Ortiz, Q. Cui, A. G. Baboul, S. Clifford, 
 J. Cioslowski, B. B. Stefanov, G. Liu, A. Liashenko, P. Piskorz, 
 I. Komaromi, R. L. Martin, D. J. Fox, T. Keith, M. A. Al-Laham, 
 C. Y. Peng, A. Nanayakkara, M. Challacombe, P. M. W. Gill, 
 B. Johnson, W. Chen, M. W. Wong, C. Gonzalez, and J. A. Pople, 
 Gaussian, Inc., Wallingford CT, 2004.
 
 ******************************************
 Gaussian 03:  EM64T-G03RevE.01 11-Sep-2007
                12-Jun-2015 
 ******************************************
 %nproc=2
 Will use up to    2 processors via shared memory.
 Default route:  MP2=Direct MaxDisk=2000MB
 ----------------------------------------------------
 # b3lyp/6-31+G(d,p) int=ultrafine pop=(ReadRadii,MK)
 ----------------------------------------------------

 Warning!  SCF SP cutoffs with diffuse functions may be unreliable.
 Consider SCF=Tight

 1/38=1/1;
 2/17=6,18=5,40=1/2;
 3/5=1,6=6,7=111,11=2,16=1,25=1,30=1,74=-5,75=5/1,2,3;
 4//1;
 5/5=2,32=1,38=5/2;
 6/7=2,8=2,9=2,10=2,15=8,20=101,28=1/1,2;
 99/5=1,9=1/99;
 -----------------------------------------
 mol_17.28.42.pdbcccc_plusQ.z58566.zip.xyz
 -----------------------------------------
 Symbolic Z-matrix:
 Charge =  1 Multiplicity = 1
 O                    -1.68711  -1.04168  -0.01928 
 O                     0.62458   1.10525  -0.00525 
 P                    -3.24986  -0.96635   0.0128 
 O                    -3.59037   0.5346    0.02246 
 O                     2.78163  -1.05681   0.78992 
 O                     2.79323  -1.053    -0.77924 
 Ca                    2.87042   1.03801   0.01091 
 Ca                    0.67958  -1.27823  -0.01079 
 Ca                   -1.48138   1.56964  -0.01316 
 
                          Input orientation:                          
 ---------------------------------------------------------------------
 Center     Atomic     Atomic              Coordinates (Angstroms)
 Number     Number      Type              X           Y           Z
 ---------------------------------------------------------------------
    1          8             0       -1.687110   -1.041680   -0.019280
    2          8             0        0.624580    1.105250   -0.005250
    3         15             0       -3.249860   -0.966350    0.012800
    4          8             0       -3.590370    0.534600    0.022460
    5          8             0        2.781630   -1.056810    0.789920
    6          8             0        2.793230   -1.053000   -0.779240
    7         20             0        2.870420    1.038010    0.010910
    8         20             0        0.679580   -1.278230   -0.010790
    9         20             0       -1.481380    1.569640   -0.013160
 ---------------------------------------------------------------------
                    Distance matrix (angstroms):
                    1          2          3          4          5
     1  O    0.000000
     2  O    3.154903   0.000000
     3  P    1.564893   4.393534   0.000000
     4  O    2.471599   4.253494   1.539120   0.000000
     5  O    4.541439   3.155893   6.082020   6.612410   0.000000
     6  O    4.544350   3.155970   6.095389   6.626730   1.569208
     7  Ca   5.009701   2.246904   6.440131   6.480383   2.236741
     8  Ca   2.378497   2.384121   3.941868   4.638958   2.260260
     9  Ca   2.619419   2.156569   3.091835   2.349556   5.071137
                    6          7          8          9
     6  O    0.000000
     7  Ca   2.236653   0.000000
     8  Ca   2.260257   3.188294   0.000000
     9  Ca   5.073205   4.384219   3.574929   0.000000
 Stoichiometry    Ca3O5P(1+)
 Framework group  C1[X(Ca3O5P)]
 Deg. of freedom    21
 Full point group                 C1
 Largest Abelian subgroup         C1      NOp   1
 Largest concise Abelian subgroup C1      NOp   1
                         Standard orientation:                         
 ---------------------------------------------------------------------
 Center     Atomic     Atomic              Coordinates (Angstroms)
 Number     Number      Type              X           Y           Z
 ---------------------------------------------------------------------
    1          8             0       -1.687110   -1.041682   -0.019281
    2          8             0        0.624577    1.105250   -0.005251
    3         15             0       -3.249860   -0.966354    0.012799
    4          8             0       -3.590372    0.534595    0.022459
    5          8             0        2.781630   -1.056807    0.789919
    6          8             0        2.793230   -1.052997   -0.779241
    7         20             0        2.870417    1.038013    0.010909
    8         20             0        0.679580   -1.278229   -0.010791
    9         20             0       -1.481383    1.569638   -0.013161
 ---------------------------------------------------------------------
 Rotational constants (GHZ):      1.5198682      0.3921466      0.3194945
 Standard basis: 6-31+G(d,p) (6D, 7F)
 There are   199 symmetry adapted basis functions of A   symmetry.
 Integral buffers will be    131072 words long.
 Raffenetti 2 integral format.
 Two-electron integral symmetry is turned on.
   199 basis functions,   456 primitive gaussians,   199 cartesian basis functions
    57 alpha electrons       57 beta electrons
       nuclear repulsion energy       956.5301410999 Hartrees.
 NAtoms=    9 NActive=    9 NUniq=    9 SFac= 7.50D-01 NAtFMM=   80 NAOKFM=F Big=F
 One-electron integrals computed using PRISM.
 NBasis=   199 RedAO= T  NBF=   199
 NBsUse=   199 1.00D-06 NBFU=   199
 Harris functional with IExCor=  402 diagonalized for initial guess.
 ExpMin= 7.10D-03 ExpMax= 3.53D+04 ExpMxC= 5.30D+03 IAcc=3 IRadAn=         5 AccDes= 0.00D+00
 HarFok:  IExCor= 402 AccDes= 0.00D+00 IRadAn=         5 IDoV=1
 ScaDFX=  1.000000  1.000000  1.000000  1.000000
 Initial guess orbital symmetries:
       Occupied  (A) (A) (A) (A) (A) (A) (A) (A) (A) (A) (A) (A)
                 (A) (A) (A) (A) (A) (A) (A) (A) (A) (A) (A) (A)
                 (A) (A) (A) (A) (A) (A) (A) (A) (A) (A) (A) (A)
                 (A) (A) (A) (A) (A) (A) (A) (A) (A) (A) (A) (A)
                 (A) (A) (A) (A) (A) (A) (A) (A) (A)
       Virtual   (A) (A) (A) (A) (A) (A) (A) (A) (A) (A) (A) (A)
                 (A) (A) (A) (A) (A) (A) (A) (A) (A) (A) (A) (A)
                 (A) (A) (A) (A) (A) (A) (A) (A) (A) (A) (A) (A)
                 (A) (A) (A) (A) (A) (A) (A) (A) (A) (A) (A) (A)
                 (A) (A) (A) (A) (A) (A) (A) (A) (A) (A) (A) (A)
                 (A) (A) (A) (A) (A) (A) (A) (A) (A) (A) (A) (A)
                 (A) (A) (A) (A) (A) (A) (A) (A) (A) (A) (A) (A)
                 (A) (A) (A) (A) (A) (A) (A) (A) (A) (A) (A) (A)
                 (A) (A) (A) (A) (A) (A) (A) (A) (A) (A) (A) (A)
                 (A) (A) (A) (A) (A) (A) (A) (A) (A) (A) (A) (A)
                 (A) (A) (A) (A) (A) (A) (A) (A) (A) (A) (A) (A)
                 (A) (A) (A) (A) (A) (A) (A) (A) (A) (A)
 The electronic state of the initial guess is 1-A.
 Requested convergence on RMS density matrix=1.00D-04 within 128 cycles.
 Requested convergence on MAX density matrix=1.00D-02.
 Requested convergence on             energy=1.00D-02.
 No special actions if energy rises.
 EnCoef did     2 forward-backward iterations
 EnCoef did     1 forward-backward iterations
 SCF Done:  E(RB+HF-LYP) =  -2750.21058684     A.U. after    9 cycles
             Convg  =    0.7424D-04             -V/T =  2.0029
             S**2   =   0.0000

 **********************************************************************

            Population analysis using the SCF density.

 **********************************************************************

 Orbital symmetries:
       Occupied  (A) (A) (A) (A) (A) (A) (A) (A) (A) (A) (A) (A)
                 (A) (A) (A) (A) (A) (A) (A) (A) (A) (A) (A) (A)
                 (A) (A) (A) (A) (A) (A) (A) (A) (A) (A) (A) (A)
                 (A) (A) (A) (A) (A) (A) (A) (A) (A) (A) (A) (A)
                 (A) (A) (A) (A) (A) (A) (A) (A) (A)
       Virtual   (A) (A) (A) (A) (A) (A) (A) (A) (A) (A) (A) (A)
                 (A) (A) (A) (A) (A) (A) (A) (A) (A) (A) (A) (A)
                 (A) (A) (A) (A) (A) (A) (A) (A) (A) (A) (A) (A)
                 (A) (A) (A) (A) (A) (A) (A) (A) (A) (A) (A) (A)
                 (A) (A) (A) (A) (A) (A) (A) (A) (A) (A) (A) (A)
                 (A) (A) (A) (A) (A) (A) (A) (A) (A) (A) (A) (A)
                 (A) (A) (A) (A) (A) (A) (A) (A) (A) (A) (A) (A)
                 (A) (A) (A) (A) (A) (A) (A) (A) (A) (A) (A) (A)
                 (A) (A) (A) (A) (A) (A) (A) (A) (A) (A) (A) (A)
                 (A) (A) (A) (A) (A) (A) (A) (A) (A) (A) (A) (A)
                 (A) (A) (A) (A) (A) (A) (A) (A) (A) (A) (A) (A)
                 (A) (A) (A) (A) (A) (A) (A) (A) (A) (A)
 The electronic state is 1-A.
 Alpha  occ. eigenvalues -- -145.52562-145.47903-145.45928 -77.31432 -19.29692
 Alpha  occ. eigenvalues --  -19.28905 -19.20254 -19.20249 -19.17097 -15.59462
 Alpha  occ. eigenvalues --  -15.54771 -15.52791 -12.72726 -12.72684 -12.72482
 Alpha  occ. eigenvalues --  -12.67981 -12.67951 -12.67880 -12.66028 -12.65990
 Alpha  occ. eigenvalues --  -12.65876  -6.77031  -4.93462  -4.93236  -4.92818
 Alpha  occ. eigenvalues --   -1.96694  -1.92077  -1.90159  -1.24619  -1.24615
 Alpha  occ. eigenvalues --   -1.23580  -1.20503  -1.19686  -1.19273  -1.18005
 Alpha  occ. eigenvalues --   -1.17957  -1.17611  -1.15363  -1.09602  -1.02798
 Alpha  occ. eigenvalues --   -0.91878  -0.84035  -0.68622  -0.57620  -0.54915
 Alpha  occ. eigenvalues --   -0.54228  -0.46664  -0.45214  -0.43696  -0.42875
 Alpha  occ. eigenvalues --   -0.41966  -0.41269  -0.37529  -0.36626  -0.35920
 Alpha  occ. eigenvalues --   -0.30800  -0.29151
 Alpha virt. eigenvalues --   -0.21349  -0.20124  -0.17697  -0.14553  -0.13030
 Alpha virt. eigenvalues --   -0.11138  -0.10816  -0.10363  -0.09100  -0.08474
 Alpha virt. eigenvalues --   -0.07857  -0.07110  -0.06765  -0.06249  -0.05628
 Alpha virt. eigenvalues --   -0.05189  -0.04735  -0.04683  -0.04465  -0.04344
 Alpha virt. eigenvalues --   -0.04003  -0.03716  -0.03703  -0.03625  -0.03170
 Alpha virt. eigenvalues --   -0.02777  -0.02662  -0.02449  -0.01920  -0.00112
 Alpha virt. eigenvalues --    0.01316   0.02751   0.03370   0.03460   0.03667
 Alpha virt. eigenvalues --    0.04872   0.05031   0.05907   0.05975   0.06289
 Alpha virt. eigenvalues --    0.06567   0.07095   0.07279   0.08205   0.08735
 Alpha virt. eigenvalues --    0.09188   0.10296   0.10752   0.10900   0.11383
 Alpha virt. eigenvalues --    0.11453   0.13512   0.15007   0.15077   0.16477
 Alpha virt. eigenvalues --    0.17256   0.17696   0.19056   0.19833   0.20078
 Alpha virt. eigenvalues --    0.21529   0.22356   0.23454   0.24180   0.26705
 Alpha virt. eigenvalues --    0.27507   0.28819   0.30337   0.31202   0.31262
 Alpha virt. eigenvalues --    0.32415   0.33480   0.34887   0.36801   0.38060
 Alpha virt. eigenvalues --    0.40605   0.42565   0.45760   0.46792   0.52511
 Alpha virt. eigenvalues --    0.52891   0.54095   0.57479   0.60732   0.64092
 Alpha virt. eigenvalues --    0.65160   0.85568   0.92258   0.94282   1.05089
 Alpha virt. eigenvalues --    1.07375   1.07579   1.10991   1.12539   1.14725
 Alpha virt. eigenvalues --    1.16102   1.16279   1.17439   1.19993   1.20577
 Alpha virt. eigenvalues --    1.21684   1.22849   1.25516   1.28472   1.32396
 Alpha virt. eigenvalues --    1.37942   1.41073   1.48223   1.53597   1.54340
 Alpha virt. eigenvalues --    1.54829   1.63721   1.66321   1.68681   1.69450
 Alpha virt. eigenvalues --    1.72711   1.73013   1.76696   1.78359   1.80077
 Alpha virt. eigenvalues --    1.80379   1.83397   1.84214   1.85129   1.86548
 Alpha virt. eigenvalues --    1.89052   1.92095   1.95254   2.01466   2.05558
 Alpha virt. eigenvalues --    2.12191   2.21709   2.24045   2.51053   2.67668
 Alpha virt. eigenvalues --    3.06793   3.38672   3.85985   3.88088   3.95553
 Alpha virt. eigenvalues --    4.10902   4.14257
          Condensed to atoms (all electrons):
              1          2          3          4          5          6
     1  O    8.914350  -0.012948  -0.143965  -0.075157  -0.001521  -0.001633
     2  O   -0.012948   8.991811  -0.008609  -0.000408  -0.003809  -0.003602
     3  P   -0.143965  -0.008609  14.409629   0.090986  -0.000186   0.000007
     4  O   -0.075157  -0.000408   0.090986   8.555663   0.000006   0.000005
     5  O   -0.001521  -0.003809  -0.000186   0.000006   8.485523  -0.029964
     6  O   -0.001633  -0.003602   0.000007   0.000005  -0.029964   8.485041
     7  Ca   0.005403   0.109013  -0.012677   0.002356   0.098457   0.098461
     8  Ca   0.037206   0.055059   0.004690   0.005423   0.106763   0.106832
     9  Ca   0.017708   0.196308  -0.020028   0.076993  -0.000873  -0.001107
              7          8          9
     1  O    0.005403   0.037206   0.017708
     2  O    0.109013   0.055059   0.196308
     3  P   -0.012677   0.004690  -0.020028
     4  O    0.002356   0.005423   0.076993
     5  O    0.098457   0.106763  -0.000873
     6  O    0.098461   0.106832  -0.001107
     7  Ca  18.303177  -0.047298  -0.013909
     8  Ca  -0.047298  18.343102  -0.005173
     9  Ca  -0.013909  -0.005173  18.254084
 Mulliken atomic charges:
              1
     1  O   -0.739444
     2  O   -1.322815
     3  P    0.680152
     4  O   -0.655867
     5  O   -0.654395
     6  O   -0.654039
     7  Ca   1.457016
     8  Ca   1.393396
     9  Ca   1.495996
 Sum of Mulliken charges=   1.00000
 Atomic charges with hydrogens summed into heavy atoms:
              1
     1  O   -0.739444
     2  O   -1.322815
     3  P    0.680152
     4  O   -0.655867
     5  O   -0.654395
     6  O   -0.654039
     7  Ca   1.457016
     8  Ca   1.393396
     9  Ca   1.495996
 Sum of Mulliken charges=   1.00000
 Electronic spatial extent (au):  <R**2>=  2984.5304
 Charge=     1.0000 electrons
 Dipole moment (field-independent basis, Debye):
    X=    -1.5373    Y=     9.0302    Z=    -0.0729  Tot=     9.1604
 Quadrupole moment (field-independent basis, Debye-Ang):
   XX=   -64.0719   YY=   -51.7003   ZZ=   -77.1286
   XY=    21.8565   XZ=     0.3759   YZ=    -0.0031
 Traceless Quadrupole moment (field-independent basis, Debye-Ang):
   XX=     0.2284   YY=    12.5999   ZZ=   -12.8283
   XY=    21.8565   XZ=     0.3759   YZ=    -0.0031
 Octapole moment (field-independent basis, Debye-Ang**2):
  XXX=    95.0677  YYY=    45.5655  ZZZ=    -0.2739  XYY=    -9.0265
  XXY=   118.3453  XXZ=    -0.2511  XZZ=    -9.7423  YZZ=    10.9619
  YYZ=    -0.3678  XYZ=     1.0368
 Hexadecapole moment (field-independent basis, Debye-Ang**3):
 XXXX= -2682.0115 YYYY=  -563.6094 ZZZZ=  -128.7097 XXXY=   454.3819
 XXXZ=     5.8687 YYYX=   -22.2193 YYYZ=     0.1228 ZZZX=     0.6357
 ZZZY=     0.1899 XXYY=  -492.1853 XXZZ=  -482.0777 YYZZ=  -129.6718
 XXYZ=     0.0123 YYXZ=     0.8698 ZZXY=    17.0272
 N-N= 9.565301410999D+02 E-N=-8.414229601332D+03  KE= 2.742250428952D+03
 Merz-Kollman atomic radii used.
 Read replacement radii for each type of atom:
 Rad(20) =   1.188000000000D+00
 Atom Element Radius
    1     8    1.40
    2     8    1.40
    3    15    1.80
    4     8    1.40
    5     8    1.40
    6     8    1.40
    7    20    1.19
    8    20    1.19
    9    20    1.19

 **********************************************************************

            Electrostatic Properties Using The SCF Density

 **********************************************************************

       Atomic Center    1 is at  -1.687110 -1.041682 -0.019281
       Atomic Center    2 is at   0.624577  1.105250 -0.005251
       Atomic Center    3 is at  -3.249860 -0.966354  0.012799
       Atomic Center    4 is at  -3.590372  0.534595  0.022459
       Atomic Center    5 is at   2.781630 -1.056807  0.789919
       Atomic Center    6 is at   2.793230 -1.052997 -0.779241
       Atomic Center    7 is at   2.870417  1.038013  0.010909
       Atomic Center    8 is at   0.679580 -1.278229 -0.010791
       Atomic Center    9 is at  -1.481383  1.569638 -0.013161
     885 points will be used for fitting atomic charges
 Fitting point charges to eletrostatic potential
 Charges from ESP fit, RMS=   0.00470 RRMS=   0.03184:
 Charge=   1.00000 Dipole=    -1.5031     9.2406    -0.0684 Tot=     9.3623
              1
     1  O   -0.741818
     2  O   -1.747369
     3  P    0.597785
     4  O   -0.659010
     5  O   -0.777609
     6  O   -0.777624
     7  Ca   1.702127
     8  Ca   1.663484
     9  Ca   1.740034
 -----------------------------------------------------------------

              Electrostatic Properties (Atomic Units)

 -----------------------------------------------------------------
    Center     Electric         -------- Electric Field --------
               Potential          X             Y             Z
 -----------------------------------------------------------------
    1 Atom    -22.167456
    2 Atom    -22.293114
    3 Atom    -53.901558
    4 Atom    -22.177635
    5 Atom    -22.273274
    6 Atom    -22.273272
    7 Atom    -80.062082
    8 Atom    -80.080918
    9 Atom    -80.015394
 -----------------------------------------------------------------
 1\1\GINC-N030\SP\RB3LYP\6-31+G(d,p)\Ca3O5P1(1+)\TIMN\12-Jun-2015\0\\# 
 b3lyp/6-31+G(d,p) int=ultrafine pop=(ReadRadii,MK)\\mol_17.28.42.pdbcc
 cc_plusQ.z58566.zip.xyz\\1,1\O,0,-1.68711,-1.04168,-0.01928\O,0,0.6245
 8,1.10525,-0.00525\P,0,-3.24986,-0.96635,0.0128\O,0,-3.59037,0.5346,0.
 02246\O,0,2.78163,-1.05681,0.78992\O,0,2.79323,-1.053,-0.77924\Ca,0,2.
 87042,1.03801,0.01091\Ca,0,0.67958,-1.27823,-0.01079\Ca,0,-1.48138,1.5
 6964,-0.01316\\Version=EM64T-G03RevE.01\State=1-A\HF=-2750.2105868\RMS
 D=7.424e-05\Thermal=0.\Dipole=-0.6048125,3.5527422,-0.0286837\PG=C01 [
 X(Ca3O5P1)]\\@


 THE CHYMISTS ARE A STRANGE CLASS OF MORTALS IMPELLED
 BY AN ALMOST INSANE IMPULSE TO SEEK THEIR PLEASURE
 AMONG SMOKE AND VAPOR, SOOT AND FLAME, POISONS AND
 POVERTY; YET AMONG ALL THESE EVILS I SEEM TO LIVE
 SO SWEETLY, THAT I MAY DIE IF I WOULD CHANGE PLACES
 WITH THE PERSIAN KING.
   --  JOHANN JOACHIM BECHER, 1635-1682
 ACTA LABORATORII CHYMICA MONACENSIS, 1669
 Job cpu time:  0 days  0 hours  2 minutes  3.0 seconds.
 File lengths (MBytes):  RWF=     36 Int=      0 D2E=      0 Chk=     11 Scr=      1
 Normal termination of Gaussian 03 at Fri Jun 12 18:10:06 2015.
