 Entering Gaussian System, Link 0=/home/timn/tmp/g03.e01/g03
 Input=mol_17.24.58.pdbcccc_plusQ.z58311.zip.xyz.gjf
 Output=mol_17.24.58.pdbcccc_plusQ.z58311.zip.xyz.out
 Initial command:
 /home/timn/tmp/g03.e01/l1.exe /home/timn/tmp/g03.e01/Gau-17164.inp -scrdir=/home/timn/tmp/g03.e01/
 Default is to use a total of   2 processors:
                                2 via shared-memory
                                1 via Linda
 Entering Link 1 = /home/timn/tmp/g03.e01/l1.exe PID=     17165.
  
 Copyright (c) 1988,1990,1992,1993,1995,1998,2003,2004,2007, Gaussian, Inc.
                  All Rights Reserved.
  
 This is the Gaussian(R) 03 program.  It is based on the
 the Gaussian(R) 98 system (copyright 1998, Gaussian, Inc.),
 the Gaussian(R) 94 system (copyright 1995, Gaussian, Inc.),
 the Gaussian 92(TM) system (copyright 1992, Gaussian, Inc.),
 the Gaussian 90(TM) system (copyright 1990, Gaussian, Inc.),
 the Gaussian 88(TM) system (copyright 1988, Gaussian, Inc.),
 the Gaussian 86(TM) system (copyright 1986, Carnegie Mellon
 University), and the Gaussian 82(TM) system (copyright 1983,
 Carnegie Mellon University). Gaussian is a federally registered
 trademark of Gaussian, Inc.
  
 This software contains proprietary and confidential information,
 including trade secrets, belonging to Gaussian, Inc.
  
 This software is provided under written license and may be
 used, copied, transmitted, or stored only in accord with that
 written license.
  
 The following legend is applicable only to US Government
 contracts under FAR:
  
                    RESTRICTED RIGHTS LEGEND
  
 Use, reproduction and disclosure by the US Government is
 subject to restrictions as set forth in subparagraphs (a)
 and (c) of the Commercial Computer Software - Restricted
 Rights clause in FAR 52.227-19.
  
 Gaussian, Inc.
 340 Quinnipiac St., Bldg. 40, Wallingford CT 06492
  
  
 ---------------------------------------------------------------
 Warning -- This program may not be used in any manner that
 competes with the business of Gaussian, Inc. or will provide
 assistance to any competitor of Gaussian, Inc.  The licensee
 of this program is prohibited from giving any competitor of
 Gaussian, Inc. access to this program.  By using this program,
 the user acknowledges that Gaussian, Inc. is engaged in the
 business of creating and licensing software in the field of
 computational chemistry and represents and warrants to the
 licensee that it is not a competitor of Gaussian, Inc. and that
 it will not use this program in any manner prohibited above.
 ---------------------------------------------------------------
  

 Cite this work as:
 Gaussian 03, Revision E.01,
 M. J. Frisch, G. W. Trucks, H. B. Schlegel, G. E. Scuseria, 
 M. A. Robb, J. R. Cheeseman, J. A. Montgomery, Jr., T. Vreven, 
 K. N. Kudin, J. C. Burant, J. M. Millam, S. S. Iyengar, J. Tomasi, 
 V. Barone, B. Mennucci, M. Cossi, G. Scalmani, N. Rega, 
 G. A. Petersson, H. Nakatsuji, M. Hada, M. Ehara, K. Toyota, 
 R. Fukuda, J. Hasegawa, M. Ishida, T. Nakajima, Y. Honda, O. Kitao, 
 H. Nakai, M. Klene, X. Li, J. E. Knox, H. P. Hratchian, J. B. Cross, 
 V. Bakken, C. Adamo, J. Jaramillo, R. Gomperts, R. E. Stratmann, 
 O. Yazyev, A. J. Austin, R. Cammi, C. Pomelli, J. W. Ochterski, 
 P. Y. Ayala, K. Morokuma, G. A. Voth, P. Salvador, J. J. Dannenberg, 
 V. G. Zakrzewski, S. Dapprich, A. D. Daniels, M. C. Strain, 
 O. Farkas, D. K. Malick, A. D. Rabuck, K. Raghavachari, 
 J. B. Foresman, J. V. Ortiz, Q. Cui, A. G. Baboul, S. Clifford, 
 J. Cioslowski, B. B. Stefanov, G. Liu, A. Liashenko, P. Piskorz, 
 I. Komaromi, R. L. Martin, D. J. Fox, T. Keith, M. A. Al-Laham, 
 C. Y. Peng, A. Nanayakkara, M. Challacombe, P. M. W. Gill, 
 B. Johnson, W. Chen, M. W. Wong, C. Gonzalez, and J. A. Pople, 
 Gaussian, Inc., Wallingford CT, 2004.
 
 ******************************************
 Gaussian 03:  EM64T-G03RevE.01 11-Sep-2007
                12-Jun-2015 
 ******************************************
 %nproc=2
 Will use up to    2 processors via shared memory.
 Default route:  MP2=Direct MaxDisk=2000MB
 ----------------------------------------------------
 # b3lyp/6-31+G(d,p) int=ultrafine pop=(ReadRadii,MK)
 ----------------------------------------------------

 Warning!  SCF SP cutoffs with diffuse functions may be unreliable.
 Consider SCF=Tight

 1/38=1/1;
 2/17=6,18=5,40=1/2;
 3/5=1,6=6,7=111,11=2,16=1,25=1,30=1,74=-5,75=5/1,2,3;
 4//1;
 5/5=2,32=1,38=5/2;
 6/7=2,8=2,9=2,10=2,15=8,20=101,28=1/1,2;
 99/5=1,9=1/99;
 -----------------------------------------
 mol_17.24.58.pdbcccc_plusQ.z58311.zip.xyz
 -----------------------------------------
 Symbolic Z-matrix:
 Charge =  1 Multiplicity = 1
 O                     4.01201  -0.00016   0.00093 
 P                     2.53971  -0.00008  -0.00002 
 O                     1.72106  -1.27737  -0.00068 
 O                     1.72116   1.27739  -0.00021 
 Ca                   -0.08904   2.67192  -0.00005 
 O                    -2.04002   1.89605  -0.00036 
 Ca                   -3.07617   0.00005   0.00013 
 O                    -2.04017  -1.89603   0.00091 
 Ca                   -0.08919  -2.67186  -0.00032 
 
                          Input orientation:                          
 ---------------------------------------------------------------------
 Center     Atomic     Atomic              Coordinates (Angstroms)
 Number     Number      Type              X           Y           Z
 ---------------------------------------------------------------------
    1          8             0        4.012010   -0.000160    0.000930
    2         15             0        2.539710   -0.000080   -0.000020
    3          8             0        1.721060   -1.277370   -0.000680
    4          8             0        1.721160    1.277390   -0.000210
    5         20             0       -0.089040    2.671920   -0.000050
    6          8             0       -2.040020    1.896050   -0.000360
    7         20             0       -3.076170    0.000050    0.000130
    8          8             0       -2.040170   -1.896030    0.000910
    9         20             0       -0.089190   -2.671860   -0.000320
 ---------------------------------------------------------------------
                    Distance matrix (angstroms):
                    1          2          3          4          5
     1  O    0.000000
     2  P    1.472300   0.000000
     3  O    2.622922   1.517122   0.000000
     4  O    2.623000   1.517219   2.554760   0.000000
     5  Ca   4.894755   3.748321   4.344347   2.285068   0.000000
     6  O    6.342135   4.956736   4.921008   3.811721   2.099595
     7  Ca   7.088180   5.615880   4.964395   4.964471   4.007722
     8  O    6.342177   4.956806   3.811770   4.921199   4.967200
     9  Ca   4.894673   3.748269   2.285084   4.344415   5.343780
                    6          7          8          9
     6  O    0.000000
     7  Ca   2.160653   0.000000
     8  O    3.792080   2.160652   0.000000
     9  Ca   4.967045   4.007637   2.099580   0.000000
 Stoichiometry    Ca3O5P(1+)
 Framework group  C1[X(Ca3O5P)]
 Deg. of freedom    21
 Full point group                 C1
 Largest Abelian subgroup         C1      NOp   1
 Largest concise Abelian subgroup C1      NOp   1
                         Standard orientation:                         
 ---------------------------------------------------------------------
 Center     Atomic     Atomic              Coordinates (Angstroms)
 Number     Number      Type              X           Y           Z
 ---------------------------------------------------------------------
    1          8             0        4.012010   -0.000158    0.000933
    2         15             0        2.539710   -0.000079   -0.000017
    3          8             0        1.721061   -1.277369   -0.000677
    4          8             0        1.721159    1.277391   -0.000207
    5         20             0       -0.089041    2.671920   -0.000047
    6          8             0       -2.040021    1.896048   -0.000357
    7         20             0       -3.076170    0.000048    0.000133
    8          8             0       -2.040169   -1.896032    0.000913
    9         20             0       -0.089188   -2.671860   -0.000317
 ---------------------------------------------------------------------
 Rotational constants (GHZ):      0.6849942      0.4750207      0.2805019
 Standard basis: 6-31+G(d,p) (6D, 7F)
 There are   199 symmetry adapted basis functions of A   symmetry.
 Integral buffers will be    131072 words long.
 Raffenetti 2 integral format.
 Two-electron integral symmetry is turned on.
   199 basis functions,   456 primitive gaussians,   199 cartesian basis functions
    57 alpha electrons       57 beta electrons
       nuclear repulsion energy       887.7586779815 Hartrees.
 NAtoms=    9 NActive=    9 NUniq=    9 SFac= 7.50D-01 NAtFMM=   80 NAOKFM=F Big=F
 One-electron integrals computed using PRISM.
 NBasis=   199 RedAO= T  NBF=   199
 NBsUse=   199 1.00D-06 NBFU=   199
 Harris functional with IExCor=  402 diagonalized for initial guess.
 ExpMin= 7.10D-03 ExpMax= 3.53D+04 ExpMxC= 5.30D+03 IAcc=3 IRadAn=         5 AccDes= 0.00D+00
 HarFok:  IExCor= 402 AccDes= 0.00D+00 IRadAn=         5 IDoV=1
 ScaDFX=  1.000000  1.000000  1.000000  1.000000
 Initial guess orbital symmetries:
       Occupied  (A) (A) (A) (A) (A) (A) (A) (A) (A) (A) (A) (A)
                 (A) (A) (A) (A) (A) (A) (A) (A) (A) (A) (A) (A)
                 (A) (A) (A) (A) (A) (A) (A) (A) (A) (A) (A) (A)
                 (A) (A) (A) (A) (A) (A) (A) (A) (A) (A) (A) (A)
                 (A) (A) (A) (A) (A) (A) (A) (A) (A)
       Virtual   (A) (A) (A) (A) (A) (A) (A) (A) (A) (A) (A) (A)
                 (A) (A) (A) (A) (A) (A) (A) (A) (A) (A) (A) (A)
                 (A) (A) (A) (A) (A) (A) (A) (A) (A) (A) (A) (A)
                 (A) (A) (A) (A) (A) (A) (A) (A) (A) (A) (A) (A)
                 (A) (A) (A) (A) (A) (A) (A) (A) (A) (A) (A) (A)
                 (A) (A) (A) (A) (A) (A) (A) (A) (A) (A) (A) (A)
                 (A) (A) (A) (A) (A) (A) (A) (A) (A) (A) (A) (A)
                 (A) (A) (A) (A) (A) (A) (A) (A) (A) (A) (A) (A)
                 (A) (A) (A) (A) (A) (A) (A) (A) (A) (A) (A) (A)
                 (A) (A) (A) (A) (A) (A) (A) (A) (A) (A) (A) (A)
                 (A) (A) (A) (A) (A) (A) (A) (A) (A) (A) (A) (A)
                 (A) (A) (A) (A) (A) (A) (A) (A) (A) (A)
 The electronic state of the initial guess is 1-A.
 Requested convergence on RMS density matrix=1.00D-04 within 128 cycles.
 Requested convergence on MAX density matrix=1.00D-02.
 Requested convergence on             energy=1.00D-02.
 No special actions if energy rises.
 EnCoef did     5 forward-backward iterations
 EnCoef did   100 forward-backward iterations
 SCF Done:  E(RB+HF-LYP) =  -2750.22997880     A.U. after    9 cycles
             Convg  =    0.3647D-04             -V/T =  2.0029
             S**2   =   0.0000

 **********************************************************************

            Population analysis using the SCF density.

 **********************************************************************

 Orbital symmetries:
       Occupied  (A) (A) (A) (A) (A) (A) (A) (A) (A) (A) (A) (A)
                 (A) (A) (A) (A) (A) (A) (A) (A) (A) (A) (A) (A)
                 (A) (A) (A) (A) (A) (A) (A) (A) (A) (A) (A) (A)
                 (A) (A) (A) (A) (A) (A) (A) (A) (A) (A) (A) (A)
                 (A) (A) (A) (A) (A) (A) (A) (A) (A)
       Virtual   (A) (A) (A) (A) (A) (A) (A) (A) (A) (A) (A) (A)
                 (A) (A) (A) (A) (A) (A) (A) (A) (A) (A) (A) (A)
                 (A) (A) (A) (A) (A) (A) (A) (A) (A) (A) (A) (A)
                 (A) (A) (A) (A) (A) (A) (A) (A) (A) (A) (A) (A)
                 (A) (A) (A) (A) (A) (A) (A) (A) (A) (A) (A) (A)
                 (A) (A) (A) (A) (A) (A) (A) (A) (A) (A) (A) (A)
                 (A) (A) (A) (A) (A) (A) (A) (A) (A) (A) (A) (A)
                 (A) (A) (A) (A) (A) (A) (A) (A) (A) (A) (A) (A)
                 (A) (A) (A) (A) (A) (A) (A) (A) (A) (A) (A) (A)
                 (A) (A) (A) (A) (A) (A) (A) (A) (A) (A) (A) (A)
                 (A) (A) (A) (A) (A) (A) (A) (A) (A) (A) (A) (A)
                 (A) (A) (A) (A) (A) (A) (A) (A) (A) (A)
 The electronic state is 1-A.
 Alpha  occ. eigenvalues -- -145.50368-145.50366-145.43695 -77.35674 -19.29664
 Alpha  occ. eigenvalues --  -19.29663 -19.27210 -19.12791 -19.12782 -15.57237
 Alpha  occ. eigenvalues --  -15.57235 -15.50718 -12.70489 -12.70488 -12.70441
 Alpha  occ. eigenvalues --  -12.70440 -12.70284 -12.70283 -12.63976 -12.63925
 Alpha  occ. eigenvalues --  -12.63715  -6.80858  -4.97481  -4.97010  -4.96909
 Alpha  occ. eigenvalues --   -1.94438  -1.94438  -1.88186  -1.22345  -1.22266
 Alpha  occ. eigenvalues --   -1.22265  -1.22160  -1.21408  -1.21336  -1.18017
 Alpha  occ. eigenvalues --   -1.16223  -1.15922  -1.15022  -1.11183  -1.10073
 Alpha  occ. eigenvalues --   -0.87144  -0.86554  -0.67798  -0.59920  -0.56383
 Alpha  occ. eigenvalues --   -0.55704  -0.49477  -0.47920  -0.47910  -0.45159
 Alpha  occ. eigenvalues --   -0.42124  -0.34001  -0.32345  -0.31540  -0.31170
 Alpha  occ. eigenvalues --   -0.31041  -0.30603
 Alpha virt. eigenvalues --   -0.19988  -0.18455  -0.15808  -0.14757  -0.14544
 Alpha virt. eigenvalues --   -0.11765  -0.10810  -0.09983  -0.08492  -0.08319
 Alpha virt. eigenvalues --   -0.07869  -0.07732  -0.06547  -0.06105  -0.05298
 Alpha virt. eigenvalues --   -0.05005  -0.04980  -0.04620  -0.04323  -0.04289
 Alpha virt. eigenvalues --   -0.04266  -0.03803  -0.03479  -0.03167  -0.02958
 Alpha virt. eigenvalues --   -0.02712  -0.02530  -0.00494  -0.00397   0.00210
 Alpha virt. eigenvalues --    0.02309   0.03188   0.03462   0.03666   0.04537
 Alpha virt. eigenvalues --    0.05252   0.05805   0.06097   0.06111   0.06719
 Alpha virt. eigenvalues --    0.08002   0.08112   0.08825   0.09232   0.09896
 Alpha virt. eigenvalues --    0.10192   0.10895   0.11160   0.12020   0.12741
 Alpha virt. eigenvalues --    0.13115   0.13204   0.13757   0.14750   0.15240
 Alpha virt. eigenvalues --    0.15842   0.16033   0.16973   0.17231   0.18627
 Alpha virt. eigenvalues --    0.20934   0.22103   0.22220   0.24126   0.26096
 Alpha virt. eigenvalues --    0.26387   0.27855   0.28470   0.29539   0.31208
 Alpha virt. eigenvalues --    0.32021   0.32627   0.35851   0.37887   0.38090
 Alpha virt. eigenvalues --    0.39805   0.43598   0.49968   0.54474   0.55162
 Alpha virt. eigenvalues --    0.55724   0.60412   0.63675   0.64696   0.75443
 Alpha virt. eigenvalues --    0.85498   0.88331   0.89711   0.91678   0.96243
 Alpha virt. eigenvalues --    1.00771   1.04375   1.06177   1.09946   1.12757
 Alpha virt. eigenvalues --    1.14038   1.14976   1.15647   1.19484   1.20153
 Alpha virt. eigenvalues --    1.20555   1.22991   1.23339   1.25776   1.28721
 Alpha virt. eigenvalues --    1.33056   1.38129   1.44476   1.46480   1.47550
 Alpha virt. eigenvalues --    1.48701   1.63266   1.63731   1.65787   1.66794
 Alpha virt. eigenvalues --    1.66917   1.68806   1.73525   1.80522   1.81809
 Alpha virt. eigenvalues --    1.83193   1.83203   1.83970   1.85799   1.86674
 Alpha virt. eigenvalues --    1.91742   1.93632   1.98709   1.98712   2.02934
 Alpha virt. eigenvalues --    2.04759   2.18146   2.19840   2.57247   2.70175
 Alpha virt. eigenvalues --    2.77978   3.37435   3.81442   3.92384   3.96037
 Alpha virt. eigenvalues --    3.96766   3.97094
          Condensed to atoms (all electrons):
              1          2          3          4          5          6
     1  O    8.447442   0.491147  -0.163999  -0.163939  -0.003908  -0.000104
     2  P    0.491147  12.597661   0.179326   0.179608  -0.017408  -0.001636
     3  O   -0.163999   0.179326   9.307172  -0.495400  -0.020251   0.001980
     4  O   -0.163939   0.179608  -0.495400   9.306845   0.065852   0.001658
     5  Ca  -0.003908  -0.017408  -0.020251   0.065852  18.286800   0.243297
     6  O   -0.000104  -0.001636   0.001980   0.001658   0.243297   8.830848
     7  Ca   0.002596  -0.001373   0.007002   0.007002  -0.010570   0.172177
     8  O   -0.000104  -0.001634   0.001656   0.001979   0.005615  -0.005371
     9  Ca  -0.003910  -0.017416   0.065843  -0.020246   0.003138   0.005616
              7          8          9
     1  O    0.002596  -0.000104  -0.003910
     2  P   -0.001373  -0.001634  -0.017416
     3  O    0.007002   0.001656   0.065843
     4  O    0.007002   0.001979  -0.020246
     5  Ca  -0.010570   0.005615   0.003138
     6  O    0.172177  -0.005371   0.005616
     7  Ca  18.279342   0.172207  -0.010571
     8  O    0.172207   8.830620   0.243342
     9  Ca  -0.010571   0.243342  18.286866
 Mulliken atomic charges:
              1
     1  O   -0.605221
     2  P    1.591724
     3  O   -0.883329
     4  O   -0.883359
     5  Ca   1.447435
     6  O   -1.248465
     7  Ca   1.382187
     8  O   -1.248311
     9  Ca   1.447339
 Sum of Mulliken charges=   1.00000
 Atomic charges with hydrogens summed into heavy atoms:
              1
     1  O   -0.605221
     2  P    1.591724
     3  O   -0.883329
     4  O   -0.883359
     5  Ca   1.447435
     6  O   -1.248465
     7  Ca   1.382187
     8  O   -1.248311
     9  Ca   1.447339
 Sum of Mulliken charges=   1.00000
 Electronic spatial extent (au):  <R**2>=  3338.6184
 Charge=     1.0000 electrons
 Dipole moment (field-independent basis, Debye):
    X=    -3.3566    Y=     0.0002    Z=    -0.0046  Tot=     3.3566
 Quadrupole moment (field-independent basis, Debye-Ang):
   XX=   -79.1281   YY=   -24.1262   ZZ=   -72.7289
   XY=     0.0013   XZ=    -0.0017   YZ=     0.0185
 Traceless Quadrupole moment (field-independent basis, Debye-Ang):
   XX=   -20.4670   YY=    34.5349   ZZ=   -14.0679
   XY=     0.0013   XZ=    -0.0017   YZ=     0.0185
 Octapole moment (field-independent basis, Debye-Ang**2):
  XXX=  -222.7091  YYY=     0.0184  ZZZ=    -0.0081  XYY=    73.8815
  XXY=     0.0091  XXZ=    -0.0355  XZZ=     1.4508  YZZ=     0.0028
  YYZ=    -0.0300  XYZ=    -0.0367
 Hexadecapole moment (field-independent basis, Debye-Ang**3):
 XXXX= -2113.8722 YYYY=  -718.9734 ZZZZ=   -83.2092 XXXY=    -0.0262
 XXXZ=    -0.1446 YYYX=     0.0152 YYYZ=     0.1218 ZZZX=    -0.0001
 ZZZY=     0.0361 XXYY=  -859.5749 XXZZ=  -374.4767 YYZZ=  -239.6932
 XXYZ=     0.0640 YYXZ=     0.0372 ZZXY=    -0.0043
 N-N= 8.877586779815D+02 E-N=-8.276531941166D+03  KE= 2.742169619874D+03
 Merz-Kollman atomic radii used.
 Read replacement radii for each type of atom:
 Rad(20) =   1.188000000000D+00
 Atom Element Radius
    1     8    1.40
    2    15    1.80
    3     8    1.40
    4     8    1.40
    5    20    1.19
    6     8    1.40
    7    20    1.19
    8     8    1.40
    9    20    1.19

 **********************************************************************

            Electrostatic Properties Using The SCF Density

 **********************************************************************

       Atomic Center    1 is at   4.012010 -0.000158  0.000933
       Atomic Center    2 is at   2.539710 -0.000079 -0.000017
       Atomic Center    3 is at   1.721061 -1.277369 -0.000677
       Atomic Center    4 is at   1.721159  1.277391 -0.000207
       Atomic Center    5 is at  -0.089041  2.671920 -0.000047
       Atomic Center    6 is at  -2.040021  1.896048 -0.000357
       Atomic Center    7 is at  -3.076170  0.000048  0.000133
       Atomic Center    8 is at  -2.040169 -1.896032  0.000913
       Atomic Center    9 is at  -0.089188 -2.671860 -0.000317
     894 points will be used for fitting atomic charges
 Fitting point charges to eletrostatic potential
 Charges from ESP fit, RMS=   0.00501 RRMS=   0.03421:
 Charge=   1.00000 Dipole=    -3.5176     0.0001    -0.0048 Tot=     3.5176
              1
     1  O   -0.611359
     2  P    1.721987
     3  O   -1.060143
     4  O   -1.060168
     5  Ca   1.783698
     6  O   -1.678168
     7  Ca   1.798569
     8  O   -1.678042
     9  Ca   1.783627
 -----------------------------------------------------------------

              Electrostatic Properties (Atomic Units)

 -----------------------------------------------------------------
    Center     Electric         -------- Electric Field --------
               Potential          X             Y             Z
 -----------------------------------------------------------------
    1 Atom    -22.195236
    2 Atom    -53.850034
    3 Atom    -22.165096
    4 Atom    -22.165109
    5 Atom    -80.037060
    6 Atom    -22.340661
    7 Atom    -80.106495
    8 Atom    -22.340370
    9 Atom    -80.037057
 -----------------------------------------------------------------
 1\1\GINC-N028\SP\RB3LYP\6-31+G(d,p)\Ca3O5P1(1+)\TIMN\12-Jun-2015\0\\# 
 b3lyp/6-31+G(d,p) int=ultrafine pop=(ReadRadii,MK)\\mol_17.24.58.pdbcc
 cc_plusQ.z58311.zip.xyz\\1,1\O,0,4.01201,-0.00016,0.00093\P,0,2.53971,
 -0.00008,-0.00002\O,0,1.72106,-1.27737,-0.00068\O,0,1.72116,1.27739,-0
 .00021\Ca,0,-0.08904,2.67192,-0.00005\O,0,-2.04002,1.89605,-0.00036\Ca
 ,0,-3.07617,0.00005,0.00013\O,0,-2.04017,-1.89603,0.00091\Ca,0,-0.0891
 9,-2.67186,-0.00032\\Version=EM64T-G03RevE.01\State=1-A\HF=-2750.22997
 88\RMSD=3.647e-05\Thermal=0.\Dipole=-1.3205934,0.0000678,-0.0017915\PG
 =C01 [X(Ca3O5P1)]\\@


 NO SCIENCE HAS EVER MADE MORE RAPID PROGRESS IN A
 SHORTER TIME THAN CHEMISTRY.
   -- MARTIN HEINRICH KLOPROTH, 1791
 (FIRST PROFESSOR OF CHEMISTRY AT THE UNIVERSITY OF BERLIN)
 Job cpu time:  0 days  0 hours  1 minutes 59.3 seconds.
 File lengths (MBytes):  RWF=     36 Int=      0 D2E=      0 Chk=     11 Scr=      1
 Normal termination of Gaussian 03 at Fri Jun 12 17:56:41 2015.
