 Entering Gaussian System, Link 0=/home/timn/tmp/g03.e01/g03
 Input=mol_16.4.15.pdbc_plusQ.out.z51566.zip.xyz.gjf
 Output=mol_16.4.15.pdbc_plusQ.out.z51566.zip.xyz.out
 Initial command:
 /home/timn/tmp/g03.e01/l1.exe /home/timn/tmp/g03.e01/Gau-17707.inp -scrdir=/home/timn/tmp/g03.e01/
 Default is to use a total of   2 processors:
                                2 via shared-memory
                                1 via Linda
 Entering Link 1 = /home/timn/tmp/g03.e01/l1.exe PID=     17708.
  
 Copyright (c) 1988,1990,1992,1993,1995,1998,2003,2004,2007, Gaussian, Inc.
                  All Rights Reserved.
  
 This is the Gaussian(R) 03 program.  It is based on the
 the Gaussian(R) 98 system (copyright 1998, Gaussian, Inc.),
 the Gaussian(R) 94 system (copyright 1995, Gaussian, Inc.),
 the Gaussian 92(TM) system (copyright 1992, Gaussian, Inc.),
 the Gaussian 90(TM) system (copyright 1990, Gaussian, Inc.),
 the Gaussian 88(TM) system (copyright 1988, Gaussian, Inc.),
 the Gaussian 86(TM) system (copyright 1986, Carnegie Mellon
 University), and the Gaussian 82(TM) system (copyright 1983,
 Carnegie Mellon University). Gaussian is a federally registered
 trademark of Gaussian, Inc.
  
 This software contains proprietary and confidential information,
 including trade secrets, belonging to Gaussian, Inc.
  
 This software is provided under written license and may be
 used, copied, transmitted, or stored only in accord with that
 written license.
  
 The following legend is applicable only to US Government
 contracts under FAR:
  
                    RESTRICTED RIGHTS LEGEND
  
 Use, reproduction and disclosure by the US Government is
 subject to restrictions as set forth in subparagraphs (a)
 and (c) of the Commercial Computer Software - Restricted
 Rights clause in FAR 52.227-19.
  
 Gaussian, Inc.
 340 Quinnipiac St., Bldg. 40, Wallingford CT 06492
  
  
 ---------------------------------------------------------------
 Warning -- This program may not be used in any manner that
 competes with the business of Gaussian, Inc. or will provide
 assistance to any competitor of Gaussian, Inc.  The licensee
 of this program is prohibited from giving any competitor of
 Gaussian, Inc. access to this program.  By using this program,
 the user acknowledges that Gaussian, Inc. is engaged in the
 business of creating and licensing software in the field of
 computational chemistry and represents and warrants to the
 licensee that it is not a competitor of Gaussian, Inc. and that
 it will not use this program in any manner prohibited above.
 ---------------------------------------------------------------
  

 Cite this work as:
 Gaussian 03, Revision E.01,
 M. J. Frisch, G. W. Trucks, H. B. Schlegel, G. E. Scuseria, 
 M. A. Robb, J. R. Cheeseman, J. A. Montgomery, Jr., T. Vreven, 
 K. N. Kudin, J. C. Burant, J. M. Millam, S. S. Iyengar, J. Tomasi, 
 V. Barone, B. Mennucci, M. Cossi, G. Scalmani, N. Rega, 
 G. A. Petersson, H. Nakatsuji, M. Hada, M. Ehara, K. Toyota, 
 R. Fukuda, J. Hasegawa, M. Ishida, T. Nakajima, Y. Honda, O. Kitao, 
 H. Nakai, M. Klene, X. Li, J. E. Knox, H. P. Hratchian, J. B. Cross, 
 V. Bakken, C. Adamo, J. Jaramillo, R. Gomperts, R. E. Stratmann, 
 O. Yazyev, A. J. Austin, R. Cammi, C. Pomelli, J. W. Ochterski, 
 P. Y. Ayala, K. Morokuma, G. A. Voth, P. Salvador, J. J. Dannenberg, 
 V. G. Zakrzewski, S. Dapprich, A. D. Daniels, M. C. Strain, 
 O. Farkas, D. K. Malick, A. D. Rabuck, K. Raghavachari, 
 J. B. Foresman, J. V. Ortiz, Q. Cui, A. G. Baboul, S. Clifford, 
 J. Cioslowski, B. B. Stefanov, G. Liu, A. Liashenko, P. Piskorz, 
 I. Komaromi, R. L. Martin, D. J. Fox, T. Keith, M. A. Al-Laham, 
 C. Y. Peng, A. Nanayakkara, M. Challacombe, P. M. W. Gill, 
 B. Johnson, W. Chen, M. W. Wong, C. Gonzalez, and J. A. Pople, 
 Gaussian, Inc., Wallingford CT, 2004.
 
 ******************************************
 Gaussian 03:  EM64T-G03RevE.01 11-Sep-2007
                12-Jun-2015 
 ******************************************
 %nproc=2
 Will use up to    2 processors via shared memory.
 Default route:  MP2=Direct MaxDisk=2000MB
 ----------------------------------------------------
 # b3lyp/6-31+G(d,p) int=ultrafine pop=(ReadRadii,MK)
 ----------------------------------------------------

 Warning!  SCF SP cutoffs with diffuse functions may be unreliable.
 Consider SCF=Tight

 1/38=1/1;
 2/17=6,18=5,40=1/2;
 3/5=1,6=6,7=111,11=2,16=1,25=1,30=1,74=-5,75=5/1,2,3;
 4//1;
 5/5=2,32=1,38=5/2;
 6/7=2,8=2,9=2,10=2,15=8,20=101,28=1/1,2;
 99/5=1,9=1/99;
 -----------------------------------------
 mol_16.4.15.pdbc_plusQ.out.z51566.zip.xyz
 -----------------------------------------
 Symbolic Z-matrix:
 Charge =  1 Multiplicity = 1
 O                    -1.3817    1.46411  -0.00022 
 O                    -0.00002  -0.33103  -1.19686 
 Ca                   -2.06981  -0.7531   -0.00001 
 P                    -0.00003   0.79917   0.00002 
 O                     1.38166   1.46417  -0.00033 
 O                     0.00009  -0.33025   1.19739 
 Ca                    2.06983  -0.75308   0. 
 
                          Input orientation:                          
 ---------------------------------------------------------------------
 Center     Atomic     Atomic              Coordinates (Angstroms)
 Number     Number      Type              X           Y           Z
 ---------------------------------------------------------------------
    1          8             0       -1.381700    1.464110   -0.000220
    2          8             0       -0.000020   -0.331030   -1.196860
    3         20             0       -2.069810   -0.753100   -0.000010
    4         15             0       -0.000030    0.799170    0.000020
    5          8             0        1.381660    1.464170   -0.000330
    6          8             0        0.000090   -0.330250    1.197390
    7         20             0        2.069830   -0.753080    0.000000
 ---------------------------------------------------------------------
                    Distance matrix (angstroms):
                    1          2          3          4          5
     1  O    0.000000
     2  O    2.561936   0.000000
     3  Ca   2.321533   2.427885   0.000000
     4  P    1.533348   1.646169   2.587186   0.000000
     5  O    2.763360   2.561926   4.102308   1.533392   0.000000
     6  O    2.561902   2.394250   2.428385   1.645990   2.561877
     7  Ca   4.102315   2.427937   4.139640   2.587238   2.321589
                    6          7
     6  O    0.000000
     7  Ca   2.428240   0.000000
 Stoichiometry    Ca2O4P(1+)
 Framework group  C1[X(Ca2O4P)]
 Deg. of freedom    15
 Full point group                 C1
 Largest Abelian subgroup         C1      NOp   1
 Largest concise Abelian subgroup C1      NOp   1
                         Standard orientation:                         
 ---------------------------------------------------------------------
 Center     Atomic     Atomic              Coordinates (Angstroms)
 Number     Number      Type              X           Y           Z
 ---------------------------------------------------------------------
    1          8             0       -1.381700    1.464112   -0.000219
    2          8             0       -0.000023   -0.331029   -1.196859
    3         20             0       -2.069813   -0.753097   -0.000009
    4         15             0       -0.000031    0.799171    0.000021
    5          8             0        1.381660    1.464169   -0.000329
    6          8             0        0.000087   -0.330249    1.197391
    7         20             0        2.069827   -0.753082    0.000000
 ---------------------------------------------------------------------
 Rotational constants (GHZ):      2.7612377      1.1247476      0.9347393
 Standard basis: 6-31+G(d,p) (6D, 7F)
 There are   153 symmetry adapted basis functions of A   symmetry.
 Integral buffers will be    131072 words long.
 Raffenetti 2 integral format.
 Two-electron integral symmetry is turned on.
   153 basis functions,   344 primitive gaussians,   153 cartesian basis functions
    43 alpha electrons       43 beta electrons
       nuclear repulsion energy       666.8131639710 Hartrees.
 NAtoms=    7 NActive=    7 NUniq=    7 SFac= 7.50D-01 NAtFMM=   80 NAOKFM=F Big=F
 One-electron integrals computed using PRISM.
 NBasis=   153 RedAO= T  NBF=   153
 NBsUse=   153 1.00D-06 NBFU=   153
 Harris functional with IExCor=  402 diagonalized for initial guess.
 ExpMin= 7.10D-03 ExpMax= 3.53D+04 ExpMxC= 5.30D+03 IAcc=3 IRadAn=         5 AccDes= 0.00D+00
 HarFok:  IExCor= 402 AccDes= 0.00D+00 IRadAn=         5 IDoV=1
 ScaDFX=  1.000000  1.000000  1.000000  1.000000
 Initial guess orbital symmetries:
       Occupied  (A) (A) (A) (A) (A) (A) (A) (A) (A) (A) (A) (A)
                 (A) (A) (A) (A) (A) (A) (A) (A) (A) (A) (A) (A)
                 (A) (A) (A) (A) (A) (A) (A) (A) (A) (A) (A) (A)
                 (A) (A) (A) (A) (A) (A) (A)
       Virtual   (A) (A) (A) (A) (A) (A) (A) (A) (A) (A) (A) (A)
                 (A) (A) (A) (A) (A) (A) (A) (A) (A) (A) (A) (A)
                 (A) (A) (A) (A) (A) (A) (A) (A) (A) (A) (A) (A)
                 (A) (A) (A) (A) (A) (A) (A) (A) (A) (A) (A) (A)
                 (A) (A) (A) (A) (A) (A) (A) (A) (A) (A) (A) (A)
                 (A) (A) (A) (A) (A) (A) (A) (A) (A) (A) (A) (A)
                 (A) (A) (A) (A) (A) (A) (A) (A) (A) (A) (A) (A)
                 (A) (A) (A) (A) (A) (A) (A) (A) (A) (A) (A) (A)
                 (A) (A) (A) (A) (A) (A) (A) (A) (A) (A) (A) (A)
                 (A) (A)
 The electronic state of the initial guess is 1-A.
 Requested convergence on RMS density matrix=1.00D-04 within 128 cycles.
 Requested convergence on MAX density matrix=1.00D-02.
 Requested convergence on             energy=1.00D-02.
 No special actions if energy rises.
 SCF Done:  E(RB+HF-LYP) =  -1997.39007846     A.U. after    8 cycles
             Convg  =    0.1093D-04             -V/T =  2.0031
             S**2   =   0.0000

 **********************************************************************

            Population analysis using the SCF density.

 **********************************************************************

 Orbital symmetries:
       Occupied  (A) (A) (A) (A) (A) (A) (A) (A) (A) (A) (A) (A)
                 (A) (A) (A) (A) (A) (A) (A) (A) (A) (A) (A) (A)
                 (A) (A) (A) (A) (A) (A) (A) (A) (A) (A) (A) (A)
                 (A) (A) (A) (A) (A) (A) (A)
       Virtual   (A) (A) (A) (A) (A) (A) (A) (A) (A) (A) (A) (A)
                 (A) (A) (A) (A) (A) (A) (A) (A) (A) (A) (A) (A)
                 (A) (A) (A) (A) (A) (A) (A) (A) (A) (A) (A) (A)
                 (A) (A) (A) (A) (A) (A) (A) (A) (A) (A) (A) (A)
                 (A) (A) (A) (A) (A) (A) (A) (A) (A) (A) (A) (A)
                 (A) (A) (A) (A) (A) (A) (A) (A) (A) (A) (A) (A)
                 (A) (A) (A) (A) (A) (A) (A) (A) (A) (A) (A) (A)
                 (A) (A) (A) (A) (A) (A) (A) (A) (A) (A) (A) (A)
                 (A) (A) (A) (A) (A) (A) (A) (A) (A) (A) (A) (A)
                 (A) (A)
 The electronic state is 1-A.
 Alpha  occ. eigenvalues -- -145.57697-145.57695 -77.31326 -19.22613 -19.22606
 Alpha  occ. eigenvalues --  -19.22298 -19.22289 -15.64398 -15.64397 -12.77597
 Alpha  occ. eigenvalues --  -12.77596 -12.77584 -12.77583 -12.77583 -12.77582
 Alpha  occ. eigenvalues --   -6.76048  -4.92396  -4.92389  -4.92313  -2.01227
 Alpha  occ. eigenvalues --   -2.01220  -1.29334  -1.28820  -1.28442  -1.28441
 Alpha  occ. eigenvalues --   -1.28386  -1.28337  -1.12988  -1.05493  -1.03664
 Alpha  occ. eigenvalues --   -1.01681  -0.62395  -0.53173  -0.53140  -0.52457
 Alpha  occ. eigenvalues --   -0.45688  -0.45585  -0.45184  -0.42426  -0.40459
 Alpha  occ. eigenvalues --   -0.39277  -0.37993  -0.35883
 Alpha virt. eigenvalues --   -0.23655  -0.22444  -0.14869  -0.13487  -0.12801
 Alpha virt. eigenvalues --   -0.12507  -0.10778  -0.08515  -0.07910  -0.06635
 Alpha virt. eigenvalues --   -0.05355  -0.05333  -0.04645  -0.04456  -0.04312
 Alpha virt. eigenvalues --   -0.03597  -0.02859  -0.01980  -0.01523  -0.00806
 Alpha virt. eigenvalues --    0.00092   0.00399   0.01146   0.02146   0.02468
 Alpha virt. eigenvalues --    0.02605   0.02879   0.03017   0.03634   0.04696
 Alpha virt. eigenvalues --    0.05027   0.05158   0.06598   0.07258   0.08283
 Alpha virt. eigenvalues --    0.08748   0.11358   0.12095   0.14127   0.14907
 Alpha virt. eigenvalues --    0.15685   0.15771   0.17403   0.17728   0.17929
 Alpha virt. eigenvalues --    0.19648   0.21599   0.22268   0.24355   0.27087
 Alpha virt. eigenvalues --    0.27893   0.29849   0.31741   0.32162   0.32425
 Alpha virt. eigenvalues --    0.35789   0.40321   0.42917   0.44629   0.50835
 Alpha virt. eigenvalues --    0.53417   0.56526   0.56998   0.64776   0.70048
 Alpha virt. eigenvalues --    0.79475   0.90035   0.98080   0.98333   1.10011
 Alpha virt. eigenvalues --    1.12196   1.12846   1.14701   1.15998   1.18955
 Alpha virt. eigenvalues --    1.20100   1.24884   1.24923   1.25834   1.26351
 Alpha virt. eigenvalues --    1.29043   1.44355   1.48577   1.54113   1.68280
 Alpha virt. eigenvalues --    1.70712   1.72873   1.73112   1.76256   1.78214
 Alpha virt. eigenvalues --    1.78657   1.80770   1.81668   1.82252   1.82891
 Alpha virt. eigenvalues --    1.91065   1.95764   1.98547   2.14280   2.15028
 Alpha virt. eigenvalues --    2.25173   2.53201   2.59825   2.74524   2.81922
 Alpha virt. eigenvalues --    3.47281   4.00151   4.02593   4.11992   4.32658
          Condensed to atoms (all electrons):
              1          2          3          4          5          6
     1  O    8.823736  -0.040435   0.051062   0.178632  -0.168511  -0.040460
     2  O   -0.040435   8.922691   0.090581  -0.045803  -0.040430   0.040941
     3  Ca   0.051062   0.090581  18.228324   0.053339   0.021980   0.090510
     4  P    0.178632  -0.045803   0.053339  12.905619   0.178692  -0.045869
     5  O   -0.168511  -0.040430   0.021980   0.178692   8.823621  -0.040445
     6  O   -0.040460   0.040941   0.090510  -0.045869  -0.040445   8.922839
     7  Ca   0.021985   0.090568  -0.018837   0.053322   0.051081   0.090522
              7
     1  O    0.021985
     2  O    0.090568
     3  Ca  -0.018837
     4  P    0.053322
     5  O    0.051081
     6  O    0.090522
     7  Ca  18.228319
 Mulliken atomic charges:
              1
     1  O   -0.826010
     2  O   -1.018113
     3  Ca   1.483041
     4  P    1.722067
     5  O   -0.825988
     6  O   -1.018037
     7  Ca   1.483039
 Sum of Mulliken charges=   1.00000
 Atomic charges with hydrogens summed into heavy atoms:
              1
     1  O   -0.826010
     2  O   -1.018113
     3  Ca   1.483041
     4  P    1.722067
     5  O   -0.825988
     6  O   -1.018037
     7  Ca   1.483039
 Sum of Mulliken charges=   1.00000
 Electronic spatial extent (au):  <R**2>=  1135.2077
 Charge=     1.0000 electrons
 Dipole moment (field-independent basis, Debye):
    X=     0.0000    Y=   -13.9791    Z=    -0.0001  Tot=    13.9791
 Quadrupole moment (field-independent basis, Debye-Ang):
   XX=     3.5520   YY=   -55.5647   ZZ=   -66.7976
   XY=     0.0002   XZ=     0.0001   YZ=    -0.0007
 Traceless Quadrupole moment (field-independent basis, Debye-Ang):
   XX=    43.1554   YY=   -15.9612   ZZ=   -27.1942
   XY=     0.0002   XZ=     0.0001   YZ=    -0.0007
 Octapole moment (field-independent basis, Debye-Ang**2):
  XXX=     0.0017  YYY=   -48.5319  ZZZ=    -0.0075  XYY=    -0.0009
  XXY=   -85.8162  XXZ=     0.0033  XZZ=    -0.0006  YZZ=    -4.0761
  YYZ=     0.0076  XYZ=     0.0009
 Hexadecapole moment (field-independent basis, Debye-Ang**3):
 XXXX=  -325.0932 YYYY=  -337.2125 ZZZZ=  -196.9992 XXXY=     0.0006
 XXXZ=     0.0018 YYYX=    -0.0021 YYYZ=     0.0018 ZZZX=    -0.0012
 ZZZY=    -0.0054 XXYY=  -143.4223 XXZZ=  -133.2368 YYZZ=   -83.9848
 XXYZ=     0.0047 YYXZ=     0.0010 ZZXY=    -0.0008
 N-N= 6.668131639710D+02 E-N=-6.052237704640D+03  KE= 1.991124748262D+03
 Merz-Kollman atomic radii used.
 Read replacement radii for each type of atom:
 Rad(20) =   1.188000000000D+00
 Atom Element Radius
    1     8    1.40
    2     8    1.40
    3    20    1.19
    4    15    1.80
    5     8    1.40
    6     8    1.40
    7    20    1.19

 **********************************************************************

            Electrostatic Properties Using The SCF Density

 **********************************************************************

       Atomic Center    1 is at  -1.381700  1.464112 -0.000219
       Atomic Center    2 is at  -0.000023 -0.331029 -1.196859
       Atomic Center    3 is at  -2.069813 -0.753097 -0.000009
       Atomic Center    4 is at  -0.000031  0.799171  0.000021
       Atomic Center    5 is at   1.381660  1.464169 -0.000329
       Atomic Center    6 is at   0.000087 -0.330249  1.197391
       Atomic Center    7 is at   2.069827 -0.753082  0.000000
     594 points will be used for fitting atomic charges
 Fitting point charges to eletrostatic potential
 Charges from ESP fit, RMS=   0.00408 RRMS=   0.02333:
 Charge=   1.00000 Dipole=     0.0004   -14.0452    -0.0001 Tot=    14.0452
              1
     1  O   -0.872277
     2  O   -1.209979
     3  Ca   1.707565
     4  P    1.748391
     5  O   -0.869865
     6  O   -1.209871
     7  Ca   1.706036
 -----------------------------------------------------------------

              Electrostatic Properties (Atomic Units)

 -----------------------------------------------------------------
    Center     Electric         -------- Electric Field --------
               Potential          X             Y             Z
 -----------------------------------------------------------------
    1 Atom    -22.238958
    2 Atom    -22.240791
    3 Atom    -79.963692
    4 Atom    -53.892442
    5 Atom    -22.238850
    6 Atom    -22.241023
    7 Atom    -79.963695
 -----------------------------------------------------------------
 1\1\GINC-N021\SP\RB3LYP\6-31+G(d,p)\Ca2O4P1(1+)\TIMN\12-Jun-2015\0\\# 
 b3lyp/6-31+G(d,p) int=ultrafine pop=(ReadRadii,MK)\\mol_16.4.15.pdbc_p
 lusQ.out.z51566.zip.xyz\\1,1\O,0,-1.3817,1.46411,-0.00022\O,0,-0.00002
 ,-0.33103,-1.19686\Ca,0,-2.06981,-0.7531,-0.00001\P,0,-0.00003,0.79917
 ,0.00002\O,0,1.38166,1.46417,-0.00033\O,0,0.00009,-0.33025,1.19739\Ca,
 0,2.06983,-0.75308,0.\\Version=EM64T-G03RevE.01\State=1-A\HF=-1997.390
 0785\RMSD=1.093e-05\Thermal=0.\Dipole=0.0000212,-5.4997858,-0.0000299\
 PG=C01 [X(Ca2O4P1)]\\@


 MAN IS A SINGULAR CREATURE.  HE HAS A SET OF GIFTS
 WHICH MAKE HIM UNIQUE AMONG THE ANIMALS: SO THAT, 
 UNLIKE THEM, HE IS NOT A FIGURE IN THE LANDSCAPE --
 HE IS A SHAPER OF THE LANDSCAPE.

                       -- JACOB BRONOWSKI
 Job cpu time:  0 days  0 hours  1 minutes  1.0 seconds.
 File lengths (MBytes):  RWF=     28 Int=      0 D2E=      0 Chk=     10 Scr=      1
 Normal termination of Gaussian 03 at Fri Jun 12 17:46:34 2015.
