 Entering Gaussian System, Link 0=/home/timn/tmp/g03.e01/g03
 Input=mol_16.5.2.pdbcc_plusQ.out.z51627.zip.xyz.gjf
 Output=mol_16.5.2.pdbcc_plusQ.out.z51627.zip.xyz.out
 Initial command:
 /home/timn/tmp/g03.e01/l1.exe /home/timn/tmp/g03.e01/Gau-12563.inp -scrdir=/home/timn/tmp/g03.e01/
 Default is to use a total of   2 processors:
                                2 via shared-memory
                                1 via Linda
 Entering Link 1 = /home/timn/tmp/g03.e01/l1.exe PID=     12564.
  
 Copyright (c) 1988,1990,1992,1993,1995,1998,2003,2004,2007, Gaussian, Inc.
                  All Rights Reserved.
  
 This is the Gaussian(R) 03 program.  It is based on the
 the Gaussian(R) 98 system (copyright 1998, Gaussian, Inc.),
 the Gaussian(R) 94 system (copyright 1995, Gaussian, Inc.),
 the Gaussian 92(TM) system (copyright 1992, Gaussian, Inc.),
 the Gaussian 90(TM) system (copyright 1990, Gaussian, Inc.),
 the Gaussian 88(TM) system (copyright 1988, Gaussian, Inc.),
 the Gaussian 86(TM) system (copyright 1986, Carnegie Mellon
 University), and the Gaussian 82(TM) system (copyright 1983,
 Carnegie Mellon University). Gaussian is a federally registered
 trademark of Gaussian, Inc.
  
 This software contains proprietary and confidential information,
 including trade secrets, belonging to Gaussian, Inc.
  
 This software is provided under written license and may be
 used, copied, transmitted, or stored only in accord with that
 written license.
  
 The following legend is applicable only to US Government
 contracts under FAR:
  
                    RESTRICTED RIGHTS LEGEND
  
 Use, reproduction and disclosure by the US Government is
 subject to restrictions as set forth in subparagraphs (a)
 and (c) of the Commercial Computer Software - Restricted
 Rights clause in FAR 52.227-19.
  
 Gaussian, Inc.
 340 Quinnipiac St., Bldg. 40, Wallingford CT 06492
  
  
 ---------------------------------------------------------------
 Warning -- This program may not be used in any manner that
 competes with the business of Gaussian, Inc. or will provide
 assistance to any competitor of Gaussian, Inc.  The licensee
 of this program is prohibited from giving any competitor of
 Gaussian, Inc. access to this program.  By using this program,
 the user acknowledges that Gaussian, Inc. is engaged in the
 business of creating and licensing software in the field of
 computational chemistry and represents and warrants to the
 licensee that it is not a competitor of Gaussian, Inc. and that
 it will not use this program in any manner prohibited above.
 ---------------------------------------------------------------
  

 Cite this work as:
 Gaussian 03, Revision E.01,
 M. J. Frisch, G. W. Trucks, H. B. Schlegel, G. E. Scuseria, 
 M. A. Robb, J. R. Cheeseman, J. A. Montgomery, Jr., T. Vreven, 
 K. N. Kudin, J. C. Burant, J. M. Millam, S. S. Iyengar, J. Tomasi, 
 V. Barone, B. Mennucci, M. Cossi, G. Scalmani, N. Rega, 
 G. A. Petersson, H. Nakatsuji, M. Hada, M. Ehara, K. Toyota, 
 R. Fukuda, J. Hasegawa, M. Ishida, T. Nakajima, Y. Honda, O. Kitao, 
 H. Nakai, M. Klene, X. Li, J. E. Knox, H. P. Hratchian, J. B. Cross, 
 V. Bakken, C. Adamo, J. Jaramillo, R. Gomperts, R. E. Stratmann, 
 O. Yazyev, A. J. Austin, R. Cammi, C. Pomelli, J. W. Ochterski, 
 P. Y. Ayala, K. Morokuma, G. A. Voth, P. Salvador, J. J. Dannenberg, 
 V. G. Zakrzewski, S. Dapprich, A. D. Daniels, M. C. Strain, 
 O. Farkas, D. K. Malick, A. D. Rabuck, K. Raghavachari, 
 J. B. Foresman, J. V. Ortiz, Q. Cui, A. G. Baboul, S. Clifford, 
 J. Cioslowski, B. B. Stefanov, G. Liu, A. Liashenko, P. Piskorz, 
 I. Komaromi, R. L. Martin, D. J. Fox, T. Keith, M. A. Al-Laham, 
 C. Y. Peng, A. Nanayakkara, M. Challacombe, P. M. W. Gill, 
 B. Johnson, W. Chen, M. W. Wong, C. Gonzalez, and J. A. Pople, 
 Gaussian, Inc., Wallingford CT, 2004.
 
 ******************************************
 Gaussian 03:  EM64T-G03RevE.01 11-Sep-2007
                12-Jun-2015 
 ******************************************
 %nproc=2
 Will use up to    2 processors via shared memory.
 Default route:  MP2=Direct MaxDisk=2000MB
 ----------------------------------------------------
 # b3lyp/6-31+G(d,p) int=ultrafine pop=(ReadRadii,MK)
 ----------------------------------------------------

 Warning!  SCF SP cutoffs with diffuse functions may be unreliable.
 Consider SCF=Tight

 1/38=1/1;
 2/17=6,18=5,40=1/2;
 3/5=1,6=6,7=111,11=2,16=1,25=1,30=1,74=-5,75=5/1,2,3;
 4//1;
 5/5=2,32=1,38=5/2;
 6/7=2,8=2,9=2,10=2,15=8,20=101,28=1/1,2;
 99/5=1,9=1/99;
 -----------------------------------------
 mol_16.5.2.pdbcc_plusQ.out.z51627.zip.xyz
 -----------------------------------------
 Symbolic Z-matrix:
 Charge =  1 Multiplicity = 1
 O                    -1.44294   1.27298   0.00035 
 O                     1.7134    0.00072  -0.78612 
 Ca                    0.76236  -1.85792   0.00001 
 P                    -2.32     -0.00083  -0.00012 
 Ca                    0.76086   1.85837  -0.00009 
 O                    -1.44184  -1.27397  -0.00001 
 O                     1.71332   0.0007    0.78622 
 
                          Input orientation:                          
 ---------------------------------------------------------------------
 Center     Atomic     Atomic              Coordinates (Angstroms)
 Number     Number      Type              X           Y           Z
 ---------------------------------------------------------------------
    1          8             0       -1.442940    1.272980    0.000350
    2          8             0        1.713400    0.000720   -0.786120
    3         20             0        0.762360   -1.857920    0.000010
    4         15             0       -2.320000   -0.000830   -0.000120
    5         20             0        0.760860    1.858370   -0.000090
    6          8             0       -1.441840   -1.273970   -0.000010
    7          8             0        1.713320    0.000700    0.786220
 ---------------------------------------------------------------------
                    Distance matrix (angstroms):
                    1          2          3          4          5
     1  O    0.000000
     2  O    3.492802   0.000000
     3  Ca   3.829606   2.230924   0.000000
     4  P    1.546553   4.109272   3.598573   0.000000
     5  Ca   2.280223   2.230704   3.716290   3.598378   0.000000
     6  O    2.546950   3.492613   2.280240   1.546626   3.829287
     7  O    3.492602   1.572340   2.230901   4.109258   2.230785
                    6          7
     6  O    0.000000
     7  O    3.492560   0.000000
 Stoichiometry    Ca2O4P(1+)
 Framework group  C1[X(Ca2O4P)]
 Deg. of freedom    15
 Full point group                 C1
 Largest Abelian subgroup         C1      NOp   1
 Largest concise Abelian subgroup C1      NOp   1
                         Standard orientation:                         
 ---------------------------------------------------------------------
 Center     Atomic     Atomic              Coordinates (Angstroms)
 Number     Number      Type              X           Y           Z
 ---------------------------------------------------------------------
    1          8             0       -1.442960    1.272957    0.000349
    2          8             0        1.713401    0.000748   -0.786121
    3         20             0        0.762391   -1.857908    0.000009
    4         15             0       -2.319999   -0.000867   -0.000121
    5         20             0        0.760831    1.858382   -0.000091
    6          8             0       -1.441819   -1.273993   -0.000011
    7          8             0        1.713321    0.000728    0.786219
 ---------------------------------------------------------------------
 Rotational constants (GHZ):      1.4538727      1.2850403      0.7205864
 Standard basis: 6-31+G(d,p) (6D, 7F)
 There are   153 symmetry adapted basis functions of A   symmetry.
 Integral buffers will be    131072 words long.
 Raffenetti 2 integral format.
 Two-electron integral symmetry is turned on.
   153 basis functions,   344 primitive gaussians,   153 cartesian basis functions
    43 alpha electrons       43 beta electrons
       nuclear repulsion energy       602.1367306653 Hartrees.
 NAtoms=    7 NActive=    7 NUniq=    7 SFac= 7.50D-01 NAtFMM=   80 NAOKFM=F Big=F
 One-electron integrals computed using PRISM.
 NBasis=   153 RedAO= T  NBF=   153
 NBsUse=   153 1.00D-06 NBFU=   153
 Harris functional with IExCor=  402 diagonalized for initial guess.
 ExpMin= 7.10D-03 ExpMax= 3.53D+04 ExpMxC= 5.30D+03 IAcc=3 IRadAn=         5 AccDes= 0.00D+00
 HarFok:  IExCor= 402 AccDes= 0.00D+00 IRadAn=         5 IDoV=1
 ScaDFX=  1.000000  1.000000  1.000000  1.000000
 Initial guess orbital symmetries:
       Occupied  (A) (A) (A) (A) (A) (A) (A) (A) (A) (A) (A) (A)
                 (A) (A) (A) (A) (A) (A) (A) (A) (A) (A) (A) (A)
                 (A) (A) (A) (A) (A) (A) (A) (A) (A) (A) (A) (A)
                 (A) (A) (A) (A) (A) (A) (A)
       Virtual   (A) (A) (A) (A) (A) (A) (A) (A) (A) (A) (A) (A)
                 (A) (A) (A) (A) (A) (A) (A) (A) (A) (A) (A) (A)
                 (A) (A) (A) (A) (A) (A) (A) (A) (A) (A) (A) (A)
                 (A) (A) (A) (A) (A) (A) (A) (A) (A) (A) (A) (A)
                 (A) (A) (A) (A) (A) (A) (A) (A) (A) (A) (A) (A)
                 (A) (A) (A) (A) (A) (A) (A) (A) (A) (A) (A) (A)
                 (A) (A) (A) (A) (A) (A) (A) (A) (A) (A) (A) (A)
                 (A) (A) (A) (A) (A) (A) (A) (A) (A) (A) (A) (A)
                 (A) (A) (A) (A) (A) (A) (A) (A) (A) (A) (A) (A)
                 (A) (A)
 The electronic state of the initial guess is 1-A.
 Requested convergence on RMS density matrix=1.00D-04 within 128 cycles.
 Requested convergence on MAX density matrix=1.00D-02.
 Requested convergence on             energy=1.00D-02.
 No special actions if energy rises.
 SCF Done:  E(RB+HF-LYP) =  -1997.33372468     A.U. after    6 cycles
             Convg  =    0.4407D-04             -V/T =  2.0031
             S**2   =   0.0000

 **********************************************************************

            Population analysis using the SCF density.

 **********************************************************************

 Orbital symmetries:
       Occupied  (A) (A) (A) (A) (A) (A) (A) (A) (A) (A) (A) (A)
                 (A) (A) (A) (A) (A) (A) (A) (A) (A) (A) (A) (A)
                 (A) (A) (A) (A) (A) (A) (A) (A) (A) (A) (A) (A)
                 (A) (A) (A) (A) (A) (A) (A)
       Virtual   (A) (A) (A) (A) (A) (A) (A) (A) (A) (A) (A) (A)
                 (A) (A) (A) (A) (A) (A) (A) (A) (A) (A) (A) (A)
                 (A) (A) (A) (A) (A) (A) (A) (A) (A) (A) (A) (A)
                 (A) (A) (A) (A) (A) (A) (A) (A) (A) (A) (A) (A)
                 (A) (A) (A) (A) (A) (A) (A) (A) (A) (A) (A) (A)
                 (A) (A) (A) (A) (A) (A) (A) (A) (A) (A) (A) (A)
                 (A) (A) (A) (A) (A) (A) (A) (A) (A) (A) (A) (A)
                 (A) (A) (A) (A) (A) (A) (A) (A) (A) (A) (A) (A)
                 (A) (A) (A) (A) (A) (A) (A) (A) (A) (A) (A) (A)
                 (A) (A)
 The electronic state is 1-A.
 Alpha  occ. eigenvalues -- -145.53247-145.53244 -77.30162 -19.27959 -19.27944
 Alpha  occ. eigenvalues --  -19.25593 -19.25582 -15.60094 -15.60092 -12.73309
 Alpha  occ. eigenvalues --  -12.73306 -12.73291 -12.73288 -12.73209 -12.73205
 Alpha  occ. eigenvalues --   -6.75643  -4.92083  -4.91867  -4.91423  -1.97236
 Alpha  occ. eigenvalues --   -1.97209  -1.25765  -1.24806  -1.24792  -1.24725
 Alpha  occ. eigenvalues --   -1.24725  -1.24302  -1.13923  -1.08554  -1.08252
 Alpha  occ. eigenvalues --   -0.89519  -0.67704  -0.57280  -0.52822  -0.52599
 Alpha  occ. eigenvalues --   -0.48994  -0.47945  -0.46120  -0.45761  -0.43899
 Alpha  occ. eigenvalues --   -0.40700  -0.37190  -0.34165
 Alpha virt. eigenvalues --   -0.20456  -0.19852  -0.19631  -0.14480  -0.11367
 Alpha virt. eigenvalues --   -0.11280  -0.10319  -0.09666  -0.09041  -0.07375
 Alpha virt. eigenvalues --   -0.07215  -0.06432  -0.05962  -0.05215  -0.04857
 Alpha virt. eigenvalues --   -0.04431  -0.04389  -0.04083  -0.03999  -0.03873
 Alpha virt. eigenvalues --   -0.03337  -0.02377   0.00222   0.01110   0.02011
 Alpha virt. eigenvalues --    0.02949   0.03325   0.03644   0.04212   0.05048
 Alpha virt. eigenvalues --    0.05145   0.05190   0.06782   0.07028   0.07278
 Alpha virt. eigenvalues --    0.07477   0.08123   0.08217   0.12231   0.13582
 Alpha virt. eigenvalues --    0.14152   0.14769   0.16274   0.16814   0.16922
 Alpha virt. eigenvalues --    0.18688   0.20334   0.21716   0.24407   0.26748
 Alpha virt. eigenvalues --    0.28310   0.29466   0.31799   0.32146   0.32487
 Alpha virt. eigenvalues --    0.36021   0.36751   0.40439   0.43968   0.45541
 Alpha virt. eigenvalues --    0.48014   0.56600   0.57822   0.60211   0.65644
 Alpha virt. eigenvalues --    0.71351   0.87009   0.90192   0.94375   1.03574
 Alpha virt. eigenvalues --    1.05864   1.07984   1.08400   1.12008   1.12333
 Alpha virt. eigenvalues --    1.14815   1.15161   1.17893   1.20708   1.23938
 Alpha virt. eigenvalues --    1.28611   1.38346   1.43004   1.46782   1.50561
 Alpha virt. eigenvalues --    1.50922   1.58072   1.66234   1.68016   1.70621
 Alpha virt. eigenvalues --    1.71273   1.75754   1.80028   1.81213   1.82383
 Alpha virt. eigenvalues --    1.84419   1.85980   1.86057   1.92954   2.09468
 Alpha virt. eigenvalues --    2.16202   2.16969   2.53540   2.67517   3.00304
 Alpha virt. eigenvalues --    3.38475   3.83794   3.90577   3.97506   4.05862
          Condensed to atoms (all electrons):
              1          2          3          4          5          6
     1  O    8.815440   0.002539   0.002345  -0.094457   0.067436  -0.085961
     2  O    0.002539   8.515603   0.105957  -0.004367   0.105990   0.002543
     3  Ca   0.002345   0.105957  18.210004  -0.019098  -0.016660   0.067458
     4  P   -0.094457  -0.004367  -0.019098  14.566956  -0.019103  -0.094276
     5  Ca   0.067436   0.105990  -0.016660  -0.019103  18.210066   0.002343
     6  O   -0.085961   0.002543   0.067458  -0.094276   0.002343   8.815115
     7  O    0.002554  -0.059773   0.105953  -0.004401   0.105938   0.002546
              7
     1  O    0.002554
     2  O   -0.059773
     3  Ca   0.105953
     4  P   -0.004401
     5  Ca   0.105938
     6  O    0.002546
     7  O    8.515804
 Mulliken atomic charges:
              1
     1  O   -0.709896
     2  O   -0.668492
     3  Ca   1.544042
     4  P    0.668746
     5  Ca   1.543990
     6  O   -0.709768
     7  O   -0.668621
 Sum of Mulliken charges=   1.00000
 Atomic charges with hydrogens summed into heavy atoms:
              1
     1  O   -0.709896
     2  O   -0.668492
     3  Ca   1.544042
     4  P    0.668746
     5  Ca   1.543990
     6  O   -0.709768
     7  O   -0.668621
 Sum of Mulliken charges=   1.00000
 Electronic spatial extent (au):  <R**2>=  1378.3012
 Charge=     1.0000 electrons
 Dipole moment (field-independent basis, Debye):
    X=     3.1413    Y=    -0.0014    Z=    -0.0025  Tot=     3.1413
 Quadrupole moment (field-independent basis, Debye-Ang):
   XX=   -66.5044   YY=    -8.8829   ZZ=   -58.2532
   XY=    -0.0238   XZ=    -0.0013   YZ=    -0.0033
 Traceless Quadrupole moment (field-independent basis, Debye-Ang):
   XX=   -21.9576   YY=    35.6639   ZZ=   -13.7064
   XY=    -0.0238   XZ=    -0.0013   YZ=    -0.0033
 Octapole moment (field-independent basis, Debye-Ang**2):
  XXX=    -6.9257  YYY=     0.0675  ZZZ=    -0.0023  XYY=    70.8673
  XXY=    -0.0662  XXZ=    -0.0008  XZZ=    -1.4161  YZZ=    -0.0009
  YYZ=    -0.0046  XYZ=     0.0013
 Hexadecapole moment (field-independent basis, Debye-Ang**3):
 XXXX=  -942.9404 YYYY=  -329.5316 ZZZZ=  -103.9549 XXXY=    -0.1019
 XXXZ=    -0.0144 YYYX=    -0.1309 YYYZ=    -0.0129 ZZZX=    -0.0044
 ZZZY=    -0.0047 XXYY=  -220.7315 XXZZ=  -174.4875 YYZZ=  -103.3811
 XXYZ=    -0.0051 YYXZ=     0.0009 ZZXY=    -0.0259
 N-N= 6.021367306653D+02 E-N=-5.923707981366D+03  KE= 1.991110552795D+03
 Merz-Kollman atomic radii used.
 Read replacement radii for each type of atom:
 Rad(20) =   1.188000000000D+00
 Atom Element Radius
    1     8    1.40
    2     8    1.40
    3    20    1.19
    4    15    1.80
    5    20    1.19
    6     8    1.40
    7     8    1.40

 **********************************************************************

            Electrostatic Properties Using The SCF Density

 **********************************************************************

       Atomic Center    1 is at  -1.442960  1.272957  0.000349
       Atomic Center    2 is at   1.713401  0.000748 -0.786121
       Atomic Center    3 is at   0.762391 -1.857908  0.000009
       Atomic Center    4 is at  -2.319999 -0.000867 -0.000121
       Atomic Center    5 is at   0.760831  1.858382 -0.000091
       Atomic Center    6 is at  -1.441819 -1.273993 -0.000011
       Atomic Center    7 is at   1.713321  0.000728  0.786219
     712 points will be used for fitting atomic charges
 Fitting point charges to eletrostatic potential
 Charges from ESP fit, RMS=   0.00428 RRMS=   0.02804:
 Charge=   1.00000 Dipole=     2.9948    -0.0014    -0.0029 Tot=     2.9948
              1
     1  O   -0.751863
     2  O   -0.787267
     3  Ca   1.722160
     4  P    0.633893
     5  Ca   1.722149
     6  O   -0.751733
     7  O   -0.787339
 -----------------------------------------------------------------

              Electrostatic Properties (Atomic Units)

 -----------------------------------------------------------------
    Center     Electric         -------- Electric Field --------
               Potential          X             Y             Z
 -----------------------------------------------------------------
    1 Atom    -22.184330
    2 Atom    -22.213916
    3 Atom    -80.007923
    4 Atom    -53.916361
    5 Atom    -80.007977
    6 Atom    -22.183938
    7 Atom    -22.214199
 -----------------------------------------------------------------
 1\1\GINC-N031\SP\RB3LYP\6-31+G(d,p)\Ca2O4P1(1+)\TIMN\12-Jun-2015\0\\# 
 b3lyp/6-31+G(d,p) int=ultrafine pop=(ReadRadii,MK)\\mol_16.5.2.pdbcc_p
 lusQ.out.z51627.zip.xyz\\1,1\O,0,-1.44294,1.27298,0.00035\O,0,1.7134,0
 .00072,-0.78612\Ca,0,0.76236,-1.85792,0.00001\P,0,-2.32,-0.00083,-0.00
 012\Ca,0,0.76086,1.85837,-0.00009\O,0,-1.44184,-1.27397,-0.00001\O,0,1
 .71332,0.0007,0.78622\\Version=EM64T-G03RevE.01\State=1-A\HF=-1997.333
 7247\RMSD=4.407e-05\Thermal=0.\Dipole=1.2358728,-0.0005842,-0.0009642\
 PG=C01 [X(Ca2O4P1)]\\@


 MATERIAL COPIED FROM ONE SCHOLARLY BOOK WITHOUT CREDIT COMPRISES PLAGIARISM.
 MATERIAL COPIED FROM TWO SCHOLARLY BOOKS COMPRISES AN ESSAY.
 MATERIAL COPIED FROM THREE SCHOLARLY BOOKS COMPRISES A DISSERTATION.
 MATERIAL COPIED FROM FOUR SCHOLARLY BOOKS COMPRISES A FIFTH SCHOLARLY BOOK.

                               -- C&EN, 25 FEB 1980
 Job cpu time:  0 days  0 hours  0 minutes 44.6 seconds.
 File lengths (MBytes):  RWF=     28 Int=      0 D2E=      0 Chk=     10 Scr=      1
 Normal termination of Gaussian 03 at Fri Jun 12 17:49:31 2015.
