 Entering Gaussian System, Link 0=/home/timn/tmp/g03.e01/g03
 Input=mol_17.29.22.pdbcc_plusQ.z58603.zip.xyz.gjf
 Output=mol_17.29.22.pdbcc_plusQ.z58603.zip.xyz.out
 Initial command:
 /home/timn/tmp/g03.e01/l1.exe /home/timn/tmp/g03.e01/Gau-20455.inp -scrdir=/home/timn/tmp/g03.e01/
 Default is to use a total of   2 processors:
                                2 via shared-memory
                                1 via Linda
 Entering Link 1 = /home/timn/tmp/g03.e01/l1.exe PID=     20456.
  
 Copyright (c) 1988,1990,1992,1993,1995,1998,2003,2004,2007, Gaussian, Inc.
                  All Rights Reserved.
  
 This is the Gaussian(R) 03 program.  It is based on the
 the Gaussian(R) 98 system (copyright 1998, Gaussian, Inc.),
 the Gaussian(R) 94 system (copyright 1995, Gaussian, Inc.),
 the Gaussian 92(TM) system (copyright 1992, Gaussian, Inc.),
 the Gaussian 90(TM) system (copyright 1990, Gaussian, Inc.),
 the Gaussian 88(TM) system (copyright 1988, Gaussian, Inc.),
 the Gaussian 86(TM) system (copyright 1986, Carnegie Mellon
 University), and the Gaussian 82(TM) system (copyright 1983,
 Carnegie Mellon University). Gaussian is a federally registered
 trademark of Gaussian, Inc.
  
 This software contains proprietary and confidential information,
 including trade secrets, belonging to Gaussian, Inc.
  
 This software is provided under written license and may be
 used, copied, transmitted, or stored only in accord with that
 written license.
  
 The following legend is applicable only to US Government
 contracts under FAR:
  
                    RESTRICTED RIGHTS LEGEND
  
 Use, reproduction and disclosure by the US Government is
 subject to restrictions as set forth in subparagraphs (a)
 and (c) of the Commercial Computer Software - Restricted
 Rights clause in FAR 52.227-19.
  
 Gaussian, Inc.
 340 Quinnipiac St., Bldg. 40, Wallingford CT 06492
  
  
 ---------------------------------------------------------------
 Warning -- This program may not be used in any manner that
 competes with the business of Gaussian, Inc. or will provide
 assistance to any competitor of Gaussian, Inc.  The licensee
 of this program is prohibited from giving any competitor of
 Gaussian, Inc. access to this program.  By using this program,
 the user acknowledges that Gaussian, Inc. is engaged in the
 business of creating and licensing software in the field of
 computational chemistry and represents and warrants to the
 licensee that it is not a competitor of Gaussian, Inc. and that
 it will not use this program in any manner prohibited above.
 ---------------------------------------------------------------
  

 Cite this work as:
 Gaussian 03, Revision E.01,
 M. J. Frisch, G. W. Trucks, H. B. Schlegel, G. E. Scuseria, 
 M. A. Robb, J. R. Cheeseman, J. A. Montgomery, Jr., T. Vreven, 
 K. N. Kudin, J. C. Burant, J. M. Millam, S. S. Iyengar, J. Tomasi, 
 V. Barone, B. Mennucci, M. Cossi, G. Scalmani, N. Rega, 
 G. A. Petersson, H. Nakatsuji, M. Hada, M. Ehara, K. Toyota, 
 R. Fukuda, J. Hasegawa, M. Ishida, T. Nakajima, Y. Honda, O. Kitao, 
 H. Nakai, M. Klene, X. Li, J. E. Knox, H. P. Hratchian, J. B. Cross, 
 V. Bakken, C. Adamo, J. Jaramillo, R. Gomperts, R. E. Stratmann, 
 O. Yazyev, A. J. Austin, R. Cammi, C. Pomelli, J. W. Ochterski, 
 P. Y. Ayala, K. Morokuma, G. A. Voth, P. Salvador, J. J. Dannenberg, 
 V. G. Zakrzewski, S. Dapprich, A. D. Daniels, M. C. Strain, 
 O. Farkas, D. K. Malick, A. D. Rabuck, K. Raghavachari, 
 J. B. Foresman, J. V. Ortiz, Q. Cui, A. G. Baboul, S. Clifford, 
 J. Cioslowski, B. B. Stefanov, G. Liu, A. Liashenko, P. Piskorz, 
 I. Komaromi, R. L. Martin, D. J. Fox, T. Keith, M. A. Al-Laham, 
 C. Y. Peng, A. Nanayakkara, M. Challacombe, P. M. W. Gill, 
 B. Johnson, W. Chen, M. W. Wong, C. Gonzalez, and J. A. Pople, 
 Gaussian, Inc., Wallingford CT, 2004.
 
 ******************************************
 Gaussian 03:  EM64T-G03RevE.01 11-Sep-2007
                12-Jun-2015 
 ******************************************
 %nproc=2
 Will use up to    2 processors via shared memory.
 Default route:  MP2=Direct MaxDisk=2000MB
 ----------------------------------------------------
 # b3lyp/6-31+G(d,p) int=ultrafine pop=(ReadRadii,MK)
 ----------------------------------------------------

 Warning!  SCF SP cutoffs with diffuse functions may be unreliable.
 Consider SCF=Tight

 1/38=1/1;
 2/17=6,18=5,40=1/2;
 3/5=1,6=6,7=111,11=2,16=1,25=1,30=1,74=-5,75=5/1,2,3;
 4//1;
 5/5=2,32=1,38=5/2;
 6/7=2,8=2,9=2,10=2,15=8,20=101,28=1/1,2;
 99/5=1,9=1/99;
 ---------------------------------------
 mol_17.29.22.pdbcc_plusQ.z58603.zip.xyz
 ---------------------------------------
 Symbolic Z-matrix:
 Charge =  1 Multiplicity = 1
 O                    -0.49938  -0.01681  -1.70108 
 Ca                    1.28445  -1.22979  -0.92178 
 O                     2.56151   0.08432   0.38934 
 O                     1.26046   0.75863   0.6998 
 P                     0.04741  -0.05273   1.76301 
 O                    -1.15912   0.87987   1.11648 
 Ca                   -0.08472   1.94535  -0.70298 
 O                    -0.16673  -1.44729   0.92737 
 Ca                   -2.03398  -0.7795   -0.27026 
 
                          Input orientation:                          
 ---------------------------------------------------------------------
 Center     Atomic     Atomic              Coordinates (Angstroms)
 Number     Number      Type              X           Y           Z
 ---------------------------------------------------------------------
    1          8             0       -0.499380   -0.016810   -1.701080
    2         20             0        1.284450   -1.229790   -0.921780
    3          8             0        2.561510    0.084320    0.389340
    4          8             0        1.260460    0.758630    0.699800
    5         15             0        0.047410   -0.052730    1.763010
    6          8             0       -1.159120    0.879870    1.116480
    7         20             0       -0.084720    1.945350   -0.702980
    8          8             0       -0.166730   -1.447290    0.927370
    9         20             0       -2.033980   -0.779500   -0.270260
 ---------------------------------------------------------------------
                    Distance matrix (angstroms):
                    1          2          3          4          5
     1  O    0.000000
     2  Ca   2.293617   0.000000
     3  O    3.707982   2.253176   0.000000
     4  O    3.076129   2.565913   1.497935   0.000000
     5  P    3.507163   3.181798   2.868179   1.805605   0.000000
     6  O    3.029511   3.817879   3.873593   2.458188   1.656339
     7  Ca   2.240138   3.464681   3.414547   2.277192   3.176616
     8  O    3.010927   2.360632   3.174681   2.637185   1.639801
     9  Ca   2.232474   3.411630   4.722265   3.763003   2.999094
                    6          7          8          9
     6  O    0.000000
     7  Ca   2.366436   0.000000
     8  O    2.536981   3.764940   0.000000
     9  Ca   2.332796   3.378116   2.316654   0.000000
 Stoichiometry    Ca3O5P(1+)
 Framework group  C1[X(Ca3O5P)]
 Deg. of freedom    21
 Full point group                 C1
 Largest Abelian subgroup         C1      NOp   1
 Largest concise Abelian subgroup C1      NOp   1
                         Standard orientation:                         
 ---------------------------------------------------------------------
 Center     Atomic     Atomic              Coordinates (Angstroms)
 Number     Number      Type              X           Y           Z
 ---------------------------------------------------------------------
    1          8             0       -0.499381   -0.016807   -1.701080
    2         20             0        1.284443   -1.229797   -0.921780
    3          8             0        2.561510    0.084306    0.389340
    4          8             0        1.260463    0.758623    0.699800
    5         15             0        0.047409   -0.052730    1.763010
    6          8             0       -1.159116    0.879876    1.116480
    7         20             0       -0.084710    1.945350   -0.702980
    8          8             0       -0.166738   -1.447289    0.927370
    9         20             0       -2.033985   -0.779489   -0.270260
 ---------------------------------------------------------------------
 Rotational constants (GHZ):      0.9457498      0.8008966      0.7441343
 Standard basis: 6-31+G(d,p) (6D, 7F)
 There are   199 symmetry adapted basis functions of A   symmetry.
 Integral buffers will be    131072 words long.
 Raffenetti 2 integral format.
 Two-electron integral symmetry is turned on.
   199 basis functions,   456 primitive gaussians,   199 cartesian basis functions
    57 alpha electrons       57 beta electrons
       nuclear repulsion energy      1090.4113156258 Hartrees.
 NAtoms=    9 NActive=    9 NUniq=    9 SFac= 7.50D-01 NAtFMM=   80 NAOKFM=F Big=F
 One-electron integrals computed using PRISM.
 NBasis=   199 RedAO= T  NBF=   199
 NBsUse=   199 1.00D-06 NBFU=   199
 Harris functional with IExCor=  402 diagonalized for initial guess.
 ExpMin= 7.10D-03 ExpMax= 3.53D+04 ExpMxC= 5.30D+03 IAcc=3 IRadAn=         5 AccDes= 0.00D+00
 HarFok:  IExCor= 402 AccDes= 0.00D+00 IRadAn=         5 IDoV=1
 ScaDFX=  1.000000  1.000000  1.000000  1.000000
 Initial guess orbital symmetries:
       Occupied  (A) (A) (A) (A) (A) (A) (A) (A) (A) (A) (A) (A)
                 (A) (A) (A) (A) (A) (A) (A) (A) (A) (A) (A) (A)
                 (A) (A) (A) (A) (A) (A) (A) (A) (A) (A) (A) (A)
                 (A) (A) (A) (A) (A) (A) (A) (A) (A) (A) (A) (A)
                 (A) (A) (A) (A) (A) (A) (A) (A) (A)
       Virtual   (A) (A) (A) (A) (A) (A) (A) (A) (A) (A) (A) (A)
                 (A) (A) (A) (A) (A) (A) (A) (A) (A) (A) (A) (A)
                 (A) (A) (A) (A) (A) (A) (A) (A) (A) (A) (A) (A)
                 (A) (A) (A) (A) (A) (A) (A) (A) (A) (A) (A) (A)
                 (A) (A) (A) (A) (A) (A) (A) (A) (A) (A) (A) (A)
                 (A) (A) (A) (A) (A) (A) (A) (A) (A) (A) (A) (A)
                 (A) (A) (A) (A) (A) (A) (A) (A) (A) (A) (A) (A)
                 (A) (A) (A) (A) (A) (A) (A) (A) (A) (A) (A) (A)
                 (A) (A) (A) (A) (A) (A) (A) (A) (A) (A) (A) (A)
                 (A) (A) (A) (A) (A) (A) (A) (A) (A) (A) (A) (A)
                 (A) (A) (A) (A) (A) (A) (A) (A) (A) (A) (A) (A)
                 (A) (A) (A) (A) (A) (A) (A) (A) (A) (A)
 The electronic state of the initial guess is 1-A.
 Requested convergence on RMS density matrix=1.00D-04 within 128 cycles.
 Requested convergence on MAX density matrix=1.00D-02.
 Requested convergence on             energy=1.00D-02.
 No special actions if energy rises.
 EnCoef did     3 forward-backward iterations
 SCF Done:  E(RB+HF-LYP) =  -2750.19417662     A.U. after    9 cycles
             Convg  =    0.4252D-04             -V/T =  2.0029
             S**2   =   0.0000

 **********************************************************************

            Population analysis using the SCF density.

 **********************************************************************

 Orbital symmetries:
       Occupied  (A) (A) (A) (A) (A) (A) (A) (A) (A) (A) (A) (A)
                 (A) (A) (A) (A) (A) (A) (A) (A) (A) (A) (A) (A)
                 (A) (A) (A) (A) (A) (A) (A) (A) (A) (A) (A) (A)
                 (A) (A) (A) (A) (A) (A) (A) (A) (A) (A) (A) (A)
                 (A) (A) (A) (A) (A) (A) (A) (A) (A)
       Virtual   (A) (A) (A) (A) (A) (A) (A) (A) (A) (A) (A) (A)
                 (A) (A) (A) (A) (A) (A) (A) (A) (A) (A) (A) (A)
                 (A) (A) (A) (A) (A) (A) (A) (A) (A) (A) (A) (A)
                 (A) (A) (A) (A) (A) (A) (A) (A) (A) (A) (A) (A)
                 (A) (A) (A) (A) (A) (A) (A) (A) (A) (A) (A) (A)
                 (A) (A) (A) (A) (A) (A) (A) (A) (A) (A) (A) (A)
                 (A) (A) (A) (A) (A) (A) (A) (A) (A) (A) (A) (A)
                 (A) (A) (A) (A) (A) (A) (A) (A) (A) (A) (A) (A)
                 (A) (A) (A) (A) (A) (A) (A) (A) (A) (A) (A) (A)
                 (A) (A) (A) (A) (A) (A) (A) (A) (A) (A) (A) (A)
                 (A) (A) (A) (A) (A) (A) (A) (A) (A) (A) (A) (A)
                 (A) (A) (A) (A) (A) (A) (A) (A) (A) (A)
 The electronic state is 1-A.
 Alpha  occ. eigenvalues -- -145.51666-145.51597-145.48703 -77.27303 -19.29099
 Alpha  occ. eigenvalues --  -19.23572 -19.23493 -19.23306 -19.17355 -15.58479
 Alpha  occ. eigenvalues --  -15.58423 -15.55551 -12.71692 -12.71655 -12.71630
 Alpha  occ. eigenvalues --  -12.71606 -12.71595 -12.71550 -12.68779 -12.68745
 Alpha  occ. eigenvalues --  -12.68645  -6.72400  -4.88806  -4.88692  -4.88158
 Alpha  occ. eigenvalues --   -1.95724  -1.95669  -1.92862  -1.23978  -1.23552
 Alpha  occ. eigenvalues --   -1.23415  -1.23063  -1.23029  -1.22528  -1.21067
 Alpha  occ. eigenvalues --   -1.20538  -1.19967  -1.13366  -1.07576  -1.03119
 Alpha  occ. eigenvalues --   -0.92327  -0.90598  -0.65540  -0.55305  -0.53396
 Alpha  occ. eigenvalues --   -0.51719  -0.49587  -0.46921  -0.44131  -0.42337
 Alpha  occ. eigenvalues --   -0.40306  -0.37804  -0.37639  -0.36831  -0.35229
 Alpha  occ. eigenvalues --   -0.33507  -0.32030
 Alpha virt. eigenvalues --   -0.20904  -0.19066  -0.17414  -0.13459  -0.12277
 Alpha virt. eigenvalues --   -0.11629  -0.10498  -0.10038  -0.08917  -0.08220
 Alpha virt. eigenvalues --   -0.07984  -0.06859  -0.06591  -0.06167  -0.05828
 Alpha virt. eigenvalues --   -0.05026  -0.04876  -0.04697  -0.04539  -0.04331
 Alpha virt. eigenvalues --   -0.04009  -0.03630  -0.03309  -0.03184  -0.02971
 Alpha virt. eigenvalues --   -0.02966  -0.02002  -0.00870   0.00732   0.01603
 Alpha virt. eigenvalues --    0.01798   0.02563   0.03297   0.04143   0.04757
 Alpha virt. eigenvalues --    0.04940   0.05316   0.05711   0.05830   0.06040
 Alpha virt. eigenvalues --    0.06392   0.06751   0.07238   0.07599   0.08123
 Alpha virt. eigenvalues --    0.08943   0.09519   0.09871   0.10453   0.11386
 Alpha virt. eigenvalues --    0.13096   0.14205   0.14820   0.17087   0.17799
 Alpha virt. eigenvalues --    0.18451   0.19743   0.20383   0.21062   0.22366
 Alpha virt. eigenvalues --    0.22977   0.24031   0.24369   0.26029   0.26750
 Alpha virt. eigenvalues --    0.28256   0.29331   0.31426   0.33103   0.33394
 Alpha virt. eigenvalues --    0.34387   0.35329   0.35633   0.37006   0.38654
 Alpha virt. eigenvalues --    0.40219   0.42021   0.43855   0.49201   0.51872
 Alpha virt. eigenvalues --    0.52353   0.57974   0.61339   0.64217   0.65862
 Alpha virt. eigenvalues --    0.78194   0.83734   0.86168   0.90815   0.94385
 Alpha virt. eigenvalues --    1.09173   1.11334   1.13664   1.15705   1.15907
 Alpha virt. eigenvalues --    1.17803   1.19011   1.19236   1.21815   1.21922
 Alpha virt. eigenvalues --    1.23171   1.24331   1.28694   1.31227   1.33711
 Alpha virt. eigenvalues --    1.36885   1.51244   1.53376   1.54903   1.57597
 Alpha virt. eigenvalues --    1.60295   1.63686   1.67896   1.70937   1.73713
 Alpha virt. eigenvalues --    1.75137   1.80593   1.82483   1.84088   1.84833
 Alpha virt. eigenvalues --    1.85767   1.86555   1.88284   1.90443   1.91828
 Alpha virt. eigenvalues --    1.92718   1.97223   1.98872   2.01434   2.10397
 Alpha virt. eigenvalues --    2.15534   2.24685   2.32329   2.48572   2.57924
 Alpha virt. eigenvalues --    3.09304   3.50957   3.99653   4.07027   4.15191
 Alpha virt. eigenvalues --    4.23967   4.36698
          Condensed to atoms (all electrons):
              1          2          3          4          5          6
     1  O    8.860625   0.108665  -0.010434   0.019170  -0.042550   0.028216
     2  Ca   0.108665  18.368993   0.174235  -0.022198  -0.051072   0.013781
     3  O   -0.010434   0.174235   8.558026  -0.112019  -0.066204   0.009971
     4  O    0.019170  -0.022198  -0.112019   8.596828  -0.061312   0.085950
     5  P   -0.042550  -0.051072  -0.066204  -0.061312  14.408989  -0.144671
     6  O    0.028216   0.013781   0.009971   0.085950  -0.144671   8.848556
     7  Ca   0.134258  -0.010367  -0.022623   0.064241  -0.011032   0.053958
     8  O    0.029837   0.054907   0.031180   0.007059  -0.153441   0.037880
     9  Ca   0.133746  -0.054301   0.006806   0.012700   0.019803   0.067700
              7          8          9
     1  O    0.134258   0.029837   0.133746
     2  Ca  -0.010367   0.054907  -0.054301
     3  O   -0.022623   0.031180   0.006806
     4  O    0.064241   0.007059   0.012700
     5  P   -0.011032  -0.153441   0.019803
     6  O    0.053958   0.037880   0.067700
     7  Ca  18.353482   0.016032  -0.071289
     8  O    0.016032   8.931017   0.064437
     9  Ca  -0.071289   0.064437  18.391444
 Mulliken atomic charges:
              1
     1  O   -1.261533
     2  Ca   1.417357
     3  O   -0.568937
     4  O   -0.590420
     5  P    1.101488
     6  O   -1.001341
     7  Ca   1.493342
     8  O   -1.018909
     9  Ca   1.428954
 Sum of Mulliken charges=   1.00000
 Atomic charges with hydrogens summed into heavy atoms:
              1
     1  O   -1.261533
     2  Ca   1.417357
     3  O   -0.568937
     4  O   -0.590420
     5  P    1.101488
     6  O   -1.001341
     7  Ca   1.493342
     8  O   -1.018909
     9  Ca   1.428954
 Sum of Mulliken charges=   1.00000
 Electronic spatial extent (au):  <R**2>=  1781.8684
 Charge=     1.0000 electrons
 Dipole moment (field-independent basis, Debye):
    X=    -6.9469    Y=    -0.1193    Z=    -8.5291  Tot=    11.0009
 Quadrupole moment (field-independent basis, Debye-Ang):
   XX=   -58.4141   YY=   -40.8482   ZZ=   -88.3302
   XY=    -0.3361   XZ=    -9.1427   YZ=    -0.2770
 Traceless Quadrupole moment (field-independent basis, Debye-Ang):
   XX=     4.1167   YY=    21.6826   ZZ=   -25.7993
   XY=    -0.3361   XZ=    -9.1427   YZ=    -0.2770
 Octapole moment (field-independent basis, Debye-Ang**2):
  XXX=  -106.8867  YYY=    51.3272  ZZZ=    -6.1083  XYY=     4.1290
  XXY=   -53.6432  XXZ=   -40.7539  XZZ=    18.2082  YZZ=    -1.4667
  YYZ=   -56.5012  XYZ=    12.6065
 Hexadecapole moment (field-independent basis, Debye-Ang**3):
 XXXX=  -741.0017 YYYY=  -407.4398 ZZZZ=  -730.1644 XXXY=    30.5823
 XXXZ=   -27.5617 YYYX=   -19.2210 YYYZ=   -19.5891 ZZZX=   -44.2617
 ZZZY=     2.2155 XXYY=  -182.5010 XXZZ=  -239.9406 YYZZ=  -179.8849
 XXYZ=    16.6851 YYXZ=   -12.9289 ZZXY=    -7.6581
 N-N= 1.090411315626D+03 E-N=-8.681334261317D+03  KE= 2.742204233363D+03
 Merz-Kollman atomic radii used.
 Read replacement radii for each type of atom:
 Rad(20) =   1.188000000000D+00
 Atom Element Radius
    1     8    1.40
    2    20    1.19
    3     8    1.40
    4     8    1.40
    5    15    1.80
    6     8    1.40
    7    20    1.19
    8     8    1.40
    9    20    1.19

 **********************************************************************

            Electrostatic Properties Using The SCF Density

 **********************************************************************

       Atomic Center    1 is at  -0.499381 -0.016807 -1.701080
       Atomic Center    2 is at   1.284443 -1.229797 -0.921780
       Atomic Center    3 is at   2.561510  0.084306  0.389340
       Atomic Center    4 is at   1.260463  0.758623  0.699800
       Atomic Center    5 is at   0.047409 -0.052730  1.763010
       Atomic Center    6 is at  -1.159116  0.879876  1.116480
       Atomic Center    7 is at  -0.084710  1.945350 -0.702980
       Atomic Center    8 is at  -0.166738 -1.447289  0.927370
       Atomic Center    9 is at  -2.033985 -0.779489 -0.270260
     741 points will be used for fitting atomic charges
 Fitting point charges to eletrostatic potential
 Charges from ESP fit, RMS=   0.00539 RRMS=   0.03341:
 Charge=   1.00000 Dipole=    -7.1144    -0.0541    -8.6948 Tot=    11.2346
              1
     1  O   -1.618714
     2  Ca   1.648328
     3  O   -0.637199
     4  O   -0.405735
     5  P    0.548515
     6  O   -0.931862
     7  Ca   1.638122
     8  O   -0.903795
     9  Ca   1.662341
 -----------------------------------------------------------------

              Electrostatic Properties (Atomic Units)

 -----------------------------------------------------------------
    Center     Electric         -------- Electric Field --------
               Potential          X             Y             Z
 -----------------------------------------------------------------
    1 Atom    -22.289730
    2 Atom    -80.054048
    3 Atom    -22.239565
    4 Atom    -22.175663
    5 Atom    -53.943291
    6 Atom    -22.225692
    7 Atom    -80.024255
    8 Atom    -22.231348
    9 Atom    -80.025011
 -----------------------------------------------------------------
 1\1\GINC-N026\SP\RB3LYP\6-31+G(d,p)\Ca3O5P1(1+)\TIMN\12-Jun-2015\0\\# 
 b3lyp/6-31+G(d,p) int=ultrafine pop=(ReadRadii,MK)\\mol_17.29.22.pdbcc
 _plusQ.z58603.zip.xyz\\1,1\O,0,-0.49938,-0.01681,-1.70108\Ca,0,1.28445
 ,-1.22979,-0.92178\O,0,2.56151,0.08432,0.38934\O,0,1.26046,0.75863,0.6
 998\P,0,0.04741,-0.05273,1.76301\O,0,-1.15912,0.87987,1.11648\Ca,0,-0.
 08472,1.94535,-0.70298\O,0,-0.16673,-1.44729,0.92737\Ca,0,-2.03398,-0.
 7795,-0.27026\\Version=EM64T-G03RevE.01\State=1-A\HF=-2750.1941766\RMS
 D=4.252e-05\Thermal=0.\Dipole=-2.7331066,-0.0469595,-3.3556067\PG=C01 
 [X(Ca3O5P1)]\\@


 ALTHOUGH J.J. COULD DIAGNOSE THE FAULTS OF AN
 APPARATUS WITH UNCANNY ACCURACY, IT WAS JUST AS
 WELL NOT TO LET HIM HANDLE IT.
   -- GEORGE THOMPSON, ABOUT HIS FATHER
 Job cpu time:  0 days  0 hours  2 minutes 27.0 seconds.
 File lengths (MBytes):  RWF=     36 Int=      0 D2E=      0 Chk=     11 Scr=      1
 Normal termination of Gaussian 03 at Fri Jun 12 18:12:18 2015.
