 Entering Gaussian System, Link 0=/home/timn/tmp/g03.e01/g03
 Input=mol_17.26.51.pdbc_plusQ.z58463.zip.xyz.gjf
 Output=mol_17.26.51.pdbc_plusQ.z58463.zip.xyz.out
 Initial command:
 /home/timn/tmp/g03.e01/l1.exe /home/timn/tmp/g03.e01/Gau-15162.inp -scrdir=/home/timn/tmp/g03.e01/
 Default is to use a total of   2 processors:
                                2 via shared-memory
                                1 via Linda
 Entering Link 1 = /home/timn/tmp/g03.e01/l1.exe PID=     15163.
  
 Copyright (c) 1988,1990,1992,1993,1995,1998,2003,2004,2007, Gaussian, Inc.
                  All Rights Reserved.
  
 This is the Gaussian(R) 03 program.  It is based on the
 the Gaussian(R) 98 system (copyright 1998, Gaussian, Inc.),
 the Gaussian(R) 94 system (copyright 1995, Gaussian, Inc.),
 the Gaussian 92(TM) system (copyright 1992, Gaussian, Inc.),
 the Gaussian 90(TM) system (copyright 1990, Gaussian, Inc.),
 the Gaussian 88(TM) system (copyright 1988, Gaussian, Inc.),
 the Gaussian 86(TM) system (copyright 1986, Carnegie Mellon
 University), and the Gaussian 82(TM) system (copyright 1983,
 Carnegie Mellon University). Gaussian is a federally registered
 trademark of Gaussian, Inc.
  
 This software contains proprietary and confidential information,
 including trade secrets, belonging to Gaussian, Inc.
  
 This software is provided under written license and may be
 used, copied, transmitted, or stored only in accord with that
 written license.
  
 The following legend is applicable only to US Government
 contracts under FAR:
  
                    RESTRICTED RIGHTS LEGEND
  
 Use, reproduction and disclosure by the US Government is
 subject to restrictions as set forth in subparagraphs (a)
 and (c) of the Commercial Computer Software - Restricted
 Rights clause in FAR 52.227-19.
  
 Gaussian, Inc.
 340 Quinnipiac St., Bldg. 40, Wallingford CT 06492
  
  
 ---------------------------------------------------------------
 Warning -- This program may not be used in any manner that
 competes with the business of Gaussian, Inc. or will provide
 assistance to any competitor of Gaussian, Inc.  The licensee
 of this program is prohibited from giving any competitor of
 Gaussian, Inc. access to this program.  By using this program,
 the user acknowledges that Gaussian, Inc. is engaged in the
 business of creating and licensing software in the field of
 computational chemistry and represents and warrants to the
 licensee that it is not a competitor of Gaussian, Inc. and that
 it will not use this program in any manner prohibited above.
 ---------------------------------------------------------------
  

 Cite this work as:
 Gaussian 03, Revision E.01,
 M. J. Frisch, G. W. Trucks, H. B. Schlegel, G. E. Scuseria, 
 M. A. Robb, J. R. Cheeseman, J. A. Montgomery, Jr., T. Vreven, 
 K. N. Kudin, J. C. Burant, J. M. Millam, S. S. Iyengar, J. Tomasi, 
 V. Barone, B. Mennucci, M. Cossi, G. Scalmani, N. Rega, 
 G. A. Petersson, H. Nakatsuji, M. Hada, M. Ehara, K. Toyota, 
 R. Fukuda, J. Hasegawa, M. Ishida, T. Nakajima, Y. Honda, O. Kitao, 
 H. Nakai, M. Klene, X. Li, J. E. Knox, H. P. Hratchian, J. B. Cross, 
 V. Bakken, C. Adamo, J. Jaramillo, R. Gomperts, R. E. Stratmann, 
 O. Yazyev, A. J. Austin, R. Cammi, C. Pomelli, J. W. Ochterski, 
 P. Y. Ayala, K. Morokuma, G. A. Voth, P. Salvador, J. J. Dannenberg, 
 V. G. Zakrzewski, S. Dapprich, A. D. Daniels, M. C. Strain, 
 O. Farkas, D. K. Malick, A. D. Rabuck, K. Raghavachari, 
 J. B. Foresman, J. V. Ortiz, Q. Cui, A. G. Baboul, S. Clifford, 
 J. Cioslowski, B. B. Stefanov, G. Liu, A. Liashenko, P. Piskorz, 
 I. Komaromi, R. L. Martin, D. J. Fox, T. Keith, M. A. Al-Laham, 
 C. Y. Peng, A. Nanayakkara, M. Challacombe, P. M. W. Gill, 
 B. Johnson, W. Chen, M. W. Wong, C. Gonzalez, and J. A. Pople, 
 Gaussian, Inc., Wallingford CT, 2004.
 
 ******************************************
 Gaussian 03:  EM64T-G03RevE.01 11-Sep-2007
                12-Jun-2015 
 ******************************************
 %nproc=2
 Will use up to    2 processors via shared memory.
 Default route:  MP2=Direct MaxDisk=2000MB
 ----------------------------------------------------
 # b3lyp/6-31+G(d,p) int=ultrafine pop=(ReadRadii,MK)
 ----------------------------------------------------

 Warning!  SCF SP cutoffs with diffuse functions may be unreliable.
 Consider SCF=Tight

 1/38=1/1;
 2/17=6,18=5,40=1/2;
 3/5=1,6=6,7=111,11=2,16=1,25=1,30=1,74=-5,75=5/1,2,3;
 4//1;
 5/5=2,32=1,38=5/2;
 6/7=2,8=2,9=2,10=2,15=8,20=101,28=1/1,2;
 99/5=1,9=1/99;
 --------------------------------------
 mol_17.26.51.pdbc_plusQ.z58463.zip.xyz
 --------------------------------------
 Symbolic Z-matrix:
 Charge =  1 Multiplicity = 1
 O                    -0.33595  -0.93051  -0.29465 
 O                    -2.94315   0.74695  -0.40823 
 O                    -2.45969   0.83435   1.08164 
 Ca                   -0.80896   1.49983  -0.32127 
 Ca                   -2.44654  -1.2825    0.36953 
 P                     1.13977  -0.78815  -0.94527 
 O                     2.21392  -1.47129   0.02684 
 Ca                    3.23969   0.34514   0.69577 
 O                     1.42734   0.89208  -0.49328 
 
                          Input orientation:                          
 ---------------------------------------------------------------------
 Center     Atomic     Atomic              Coordinates (Angstroms)
 Number     Number      Type              X           Y           Z
 ---------------------------------------------------------------------
    1          8             0       -0.335950   -0.930510   -0.294650
    2          8             0       -2.943150    0.746950   -0.408230
    3          8             0       -2.459690    0.834350    1.081640
    4         20             0       -0.808960    1.499830   -0.321270
    5         20             0       -2.446540   -1.282500    0.369530
    6         15             0        1.139770   -0.788150   -0.945270
    7          8             0        2.213920   -1.471290    0.026840
    8         20             0        3.239690    0.345140    0.695770
    9          8             0        1.427340    0.892080   -0.493280
 ---------------------------------------------------------------------
                    Distance matrix (angstroms):
                    1          2          3          4          5
     1  O    0.000000
     2  O    3.102300   0.000000
     3  O    3.085316   1.568785   0.000000
     4  Ca   2.476086   2.264764   2.266259   0.000000
     5  Ca   2.240451   2.229394   2.233456   3.301550   0.000000
     6  P    1.619050   4.394904   4.438128   3.069491   3.851584
     7  O    2.626335   5.630741   5.317068   4.252827   4.676854
     8  Ca   3.923444   6.293471   5.733337   4.331195   5.923585
     9  O    2.543714   4.373726   4.194366   2.323787   4.525504
                    6          7          8          9
     6  P    0.000000
     7  O    1.601710   0.000000
     8  Ca   2.896036   2.190682   0.000000
     9  O    1.763566   2.544553   2.235530   0.000000
 Stoichiometry    Ca3O5P(1+)
 Framework group  C1[X(Ca3O5P)]
 Deg. of freedom    21
 Full point group                 C1
 Largest Abelian subgroup         C1      NOp   1
 Largest concise Abelian subgroup C1      NOp   1
                         Standard orientation:                         
 ---------------------------------------------------------------------
 Center     Atomic     Atomic              Coordinates (Angstroms)
 Number     Number      Type              X           Y           Z
 ---------------------------------------------------------------------
    1          8             0       -0.335950   -0.930508   -0.294651
    2          8             0       -2.943152    0.746949   -0.408231
    3          8             0       -2.459692    0.834350    1.081639
    4         20             0       -0.808962    1.499831   -0.321271
    5         20             0       -2.446540   -1.282500    0.369529
    6         15             0        1.139770   -0.788147   -0.945271
    7          8             0        2.213920   -1.471286    0.026839
    8         20             0        3.239689    0.345144    0.695769
    9          8             0        1.427338    0.892083   -0.493281
 ---------------------------------------------------------------------
 Rotational constants (GHZ):      1.4684703      0.4370308      0.3788411
 Standard basis: 6-31+G(d,p) (6D, 7F)
 There are   199 symmetry adapted basis functions of A   symmetry.
 Integral buffers will be    131072 words long.
 Raffenetti 2 integral format.
 Two-electron integral symmetry is turned on.
   199 basis functions,   456 primitive gaussians,   199 cartesian basis functions
    57 alpha electrons       57 beta electrons
       nuclear repulsion energy       993.4064626729 Hartrees.
 NAtoms=    9 NActive=    9 NUniq=    9 SFac= 7.50D-01 NAtFMM=   80 NAOKFM=F Big=F
 One-electron integrals computed using PRISM.
 NBasis=   199 RedAO= T  NBF=   199
 NBsUse=   199 1.00D-06 NBFU=   199
 Harris functional with IExCor=  402 diagonalized for initial guess.
 ExpMin= 7.10D-03 ExpMax= 3.53D+04 ExpMxC= 5.30D+03 IAcc=3 IRadAn=         5 AccDes= 0.00D+00
 HarFok:  IExCor= 402 AccDes= 0.00D+00 IRadAn=         5 IDoV=1
 ScaDFX=  1.000000  1.000000  1.000000  1.000000
 Initial guess orbital symmetries:
       Occupied  (A) (A) (A) (A) (A) (A) (A) (A) (A) (A) (A) (A)
                 (A) (A) (A) (A) (A) (A) (A) (A) (A) (A) (A) (A)
                 (A) (A) (A) (A) (A) (A) (A) (A) (A) (A) (A) (A)
                 (A) (A) (A) (A) (A) (A) (A) (A) (A) (A) (A) (A)
                 (A) (A) (A) (A) (A) (A) (A) (A) (A)
       Virtual   (A) (A) (A) (A) (A) (A) (A) (A) (A) (A) (A) (A)
                 (A) (A) (A) (A) (A) (A) (A) (A) (A) (A) (A) (A)
                 (A) (A) (A) (A) (A) (A) (A) (A) (A) (A) (A) (A)
                 (A) (A) (A) (A) (A) (A) (A) (A) (A) (A) (A) (A)
                 (A) (A) (A) (A) (A) (A) (A) (A) (A) (A) (A) (A)
                 (A) (A) (A) (A) (A) (A) (A) (A) (A) (A) (A) (A)
                 (A) (A) (A) (A) (A) (A) (A) (A) (A) (A) (A) (A)
                 (A) (A) (A) (A) (A) (A) (A) (A) (A) (A) (A) (A)
                 (A) (A) (A) (A) (A) (A) (A) (A) (A) (A) (A) (A)
                 (A) (A) (A) (A) (A) (A) (A) (A) (A) (A) (A) (A)
                 (A) (A) (A) (A) (A) (A) (A) (A) (A) (A) (A) (A)
                 (A) (A) (A) (A) (A) (A) (A) (A) (A) (A)
 The electronic state of the initial guess is 1-A.
 Requested convergence on RMS density matrix=1.00D-04 within 128 cycles.
 Requested convergence on MAX density matrix=1.00D-02.
 Requested convergence on             energy=1.00D-02.
 No special actions if energy rises.
 SCF Done:  E(RB+HF-LYP) =  -2750.19795263     A.U. after    7 cycles
             Convg  =    0.6403D-04             -V/T =  2.0029
             S**2   =   0.0000

 **********************************************************************

            Population analysis using the SCF density.

 **********************************************************************

 Orbital symmetries:
       Occupied  (A) (A) (A) (A) (A) (A) (A) (A) (A) (A) (A) (A)
                 (A) (A) (A) (A) (A) (A) (A) (A) (A) (A) (A) (A)
                 (A) (A) (A) (A) (A) (A) (A) (A) (A) (A) (A) (A)
                 (A) (A) (A) (A) (A) (A) (A) (A) (A) (A) (A) (A)
                 (A) (A) (A) (A) (A) (A) (A) (A) (A)
       Virtual   (A) (A) (A) (A) (A) (A) (A) (A) (A) (A) (A) (A)
                 (A) (A) (A) (A) (A) (A) (A) (A) (A) (A) (A) (A)
                 (A) (A) (A) (A) (A) (A) (A) (A) (A) (A) (A) (A)
                 (A) (A) (A) (A) (A) (A) (A) (A) (A) (A) (A) (A)
                 (A) (A) (A) (A) (A) (A) (A) (A) (A) (A) (A) (A)
                 (A) (A) (A) (A) (A) (A) (A) (A) (A) (A) (A) (A)
                 (A) (A) (A) (A) (A) (A) (A) (A) (A) (A) (A) (A)
                 (A) (A) (A) (A) (A) (A) (A) (A) (A) (A) (A) (A)
                 (A) (A) (A) (A) (A) (A) (A) (A) (A) (A) (A) (A)
                 (A) (A) (A) (A) (A) (A) (A) (A) (A) (A) (A) (A)
                 (A) (A) (A) (A) (A) (A) (A) (A) (A) (A) (A) (A)
                 (A) (A) (A) (A) (A) (A) (A) (A) (A) (A)
 The electronic state is 1-A.
 Alpha  occ. eigenvalues -- -145.54439-145.49725-145.46326 -77.24441 -19.21801
 Alpha  occ. eigenvalues --  -19.21264 -19.20899 -19.20756 -19.20339 -15.61300
 Alpha  occ. eigenvalues --  -15.56522 -15.53234 -12.74531 -12.74437 -12.74429
 Alpha  occ. eigenvalues --  -12.69733 -12.69708 -12.69649 -12.66469 -12.66457
 Alpha  occ. eigenvalues --  -12.66286  -6.69518  -4.85927  -4.85845  -4.85331
 Alpha  occ. eigenvalues --   -1.98415  -1.93706  -1.90586  -1.26080  -1.25907
 Alpha  occ. eigenvalues --   -1.25554  -1.21833  -1.21222  -1.21112  -1.18483
 Alpha  occ. eigenvalues --   -1.18339  -1.18048  -1.06955  -1.03525  -1.01174
 Alpha  occ. eigenvalues --   -0.99564  -0.84639  -0.62350  -0.51030  -0.50135
 Alpha  occ. eigenvalues --   -0.47440  -0.44520  -0.44229  -0.42688  -0.41960
 Alpha  occ. eigenvalues --   -0.40830  -0.38693  -0.37824  -0.37551  -0.31581
 Alpha  occ. eigenvalues --   -0.30330  -0.29528
 Alpha virt. eigenvalues --   -0.22205  -0.18033  -0.15324  -0.13697  -0.12621
 Alpha virt. eigenvalues --   -0.11337  -0.10040  -0.08832  -0.08450  -0.07261
 Alpha virt. eigenvalues --   -0.07131  -0.06056  -0.05725  -0.05628  -0.05087
 Alpha virt. eigenvalues --   -0.04880  -0.04459  -0.04280  -0.04211  -0.03822
 Alpha virt. eigenvalues --   -0.03603  -0.03415  -0.03269  -0.03100  -0.02680
 Alpha virt. eigenvalues --   -0.02342  -0.01442  -0.00709   0.00727   0.01194
 Alpha virt. eigenvalues --    0.01644   0.02988   0.03082   0.03784   0.04225
 Alpha virt. eigenvalues --    0.04819   0.05041   0.05265   0.05887   0.06699
 Alpha virt. eigenvalues --    0.07075   0.07554   0.08009   0.08612   0.09295
 Alpha virt. eigenvalues --    0.09649   0.10350   0.10432   0.11221   0.12282
 Alpha virt. eigenvalues --    0.13012   0.14309   0.15669   0.16246   0.16892
 Alpha virt. eigenvalues --    0.17939   0.18714   0.20203   0.21039   0.21691
 Alpha virt. eigenvalues --    0.23130   0.23746   0.24046   0.24147   0.27294
 Alpha virt. eigenvalues --    0.28351   0.30139   0.30600   0.32150   0.32805
 Alpha virt. eigenvalues --    0.33416   0.35832   0.37334   0.38793   0.39953
 Alpha virt. eigenvalues --    0.40989   0.42000   0.44472   0.47006   0.52568
 Alpha virt. eigenvalues --    0.56785   0.62243   0.64749   0.66090   0.71049
 Alpha virt. eigenvalues --    0.75475   0.82950   0.88977   0.90938   0.96972
 Alpha virt. eigenvalues --    1.10066   1.13248   1.14259   1.15700   1.16258
 Alpha virt. eigenvalues --    1.17265   1.18355   1.19506   1.20038   1.21023
 Alpha virt. eigenvalues --    1.22610   1.24594   1.25170   1.27357   1.31452
 Alpha virt. eigenvalues --    1.39840   1.47968   1.53643   1.55668   1.56177
 Alpha virt. eigenvalues --    1.61027   1.65291   1.68799   1.72296   1.74884
 Alpha virt. eigenvalues --    1.76396   1.76638   1.77657   1.79220   1.80961
 Alpha virt. eigenvalues --    1.82869   1.84991   1.87841   1.89198   1.91344
 Alpha virt. eigenvalues --    1.92213   1.98389   2.00177   2.02468   2.07988
 Alpha virt. eigenvalues --    2.21309   2.23259   2.32556   2.57451   2.66929
 Alpha virt. eigenvalues --    3.06128   3.53116   4.00147   4.04026   4.06376
 Alpha virt. eigenvalues --    4.12072   4.14983
          Condensed to atoms (all electrons):
              1          2          3          4          5          6
     1  O    9.318162   0.006460  -0.003163   0.087451   0.054198  -0.610601
     2  O    0.006460   8.481380  -0.030349   0.105733   0.105262  -0.015721
     3  O   -0.003163  -0.030349   8.494256   0.102905   0.096647  -0.001435
     4  Ca   0.087451   0.105733   0.102905  18.302647  -0.039320  -0.111906
     5  Ca   0.054198   0.105262   0.096647  -0.039320  18.278491   0.024599
     6  P   -0.610601  -0.015721  -0.001435  -0.111906   0.024599  15.305587
     7  O    0.102598   0.000635   0.000142   0.020005  -0.001917  -0.264700
     8  Ca   0.024134  -0.000841  -0.000070  -0.010992   0.005647   0.029939
     9  O    0.031604  -0.001768  -0.001047   0.091109  -0.002755  -0.258054
              7          8          9
     1  O    0.102598   0.024134   0.031604
     2  O    0.000635  -0.000841  -0.001768
     3  O    0.000142  -0.000070  -0.001047
     4  Ca   0.020005  -0.010992   0.091109
     5  Ca  -0.001917   0.005647  -0.002755
     6  P   -0.264700   0.029939  -0.258054
     7  O    8.846591   0.148704   0.012241
     8  Ca   0.148704  18.301454   0.090812
     9  O    0.012241   0.090812   9.099055
 Mulliken atomic charges:
              1
     1  O   -1.010843
     2  O   -0.650793
     3  O   -0.657886
     4  Ca   1.452369
     5  Ca   1.479147
     6  P    0.902291
     7  O   -0.864300
     8  Ca   1.411214
     9  O   -1.061198
 Sum of Mulliken charges=   1.00000
 Atomic charges with hydrogens summed into heavy atoms:
              1
     1  O   -1.010843
     2  O   -0.650793
     3  O   -0.657886
     4  Ca   1.452369
     5  Ca   1.479147
     6  P    0.902291
     7  O   -0.864300
     8  Ca   1.411214
     9  O   -1.061198
 Sum of Mulliken charges=   1.00000
 Electronic spatial extent (au):  <R**2>=  2646.5697
 Charge=     1.0000 electrons
 Dipole moment (field-independent basis, Debye):
    X=     6.6160    Y=     1.0551    Z=     4.9298  Tot=     8.3179
 Quadrupole moment (field-independent basis, Debye-Ang):
   XX=   -22.5960   YY=   -60.2904   ZZ=   -77.3372
   XY=    40.6593   XZ=    17.3820   YZ=    -6.2297
 Traceless Quadrupole moment (field-independent basis, Debye-Ang):
   XX=    30.8118   YY=    -6.8825   ZZ=   -23.9293
   XY=    40.6593   XZ=    17.3820   YZ=    -6.2297
 Octapole moment (field-independent basis, Debye-Ang**2):
  XXX=   218.5277  YYY=    21.6362  ZZZ=    20.9685  XYY=   -59.9199
  XXY=   -48.6896  XXZ=    67.9247  XZZ=    14.2906  YZZ=     0.7422
  YYZ=     4.0995  XYZ=    28.2815
 Hexadecapole moment (field-independent basis, Debye-Ang**3):
 XXXX= -1373.8377 YYYY=  -498.5475 ZZZZ=  -288.9700 XXXY=   467.9324
 XXXZ=   186.6136 YYYX=   116.9672 YYYZ=   -32.9721 ZZZX=    63.1070
 ZZZY=   -28.6067 XXYY=  -405.6441 XXZZ=  -373.5553 YYZZ=  -138.5200
 XXYZ=   -17.7140 YYXZ=     9.0290 ZZXY=    41.0746
 N-N= 9.934064626729D+02 E-N=-8.488824402415D+03  KE= 2.742186624168D+03
 Merz-Kollman atomic radii used.
 Read replacement radii for each type of atom:
 Rad(20) =   1.188000000000D+00
 Atom Element Radius
    1     8    1.40
    2     8    1.40
    3     8    1.40
    4    20    1.19
    5    20    1.19
    6    15    1.80
    7     8    1.40
    8    20    1.19
    9     8    1.40

 **********************************************************************

            Electrostatic Properties Using The SCF Density

 **********************************************************************

       Atomic Center    1 is at  -0.335950 -0.930508 -0.294651
       Atomic Center    2 is at  -2.943152  0.746949 -0.408231
       Atomic Center    3 is at  -2.459692  0.834350  1.081639
       Atomic Center    4 is at  -0.808962  1.499831 -0.321271
       Atomic Center    5 is at  -2.446540 -1.282500  0.369529
       Atomic Center    6 is at   1.139770 -0.788147 -0.945271
       Atomic Center    7 is at   2.213920 -1.471286  0.026839
       Atomic Center    8 is at   3.239689  0.345144  0.695769
       Atomic Center    9 is at   1.427338  0.892083 -0.493281
     800 points will be used for fitting atomic charges
 Fitting point charges to eletrostatic potential
 Charges from ESP fit, RMS=   0.00711 RRMS=   0.04631:
 Charge=   1.00000 Dipole=     7.0708     1.1599     5.1022 Tot=     8.7963
              1
     1  O   -0.905434
     2  O   -0.772911
     3  O   -0.812827
     4  Ca   1.690305
     5  Ca   1.680028
     6  P    0.375597
     7  O   -0.702470
     8  Ca   1.577814
     9  O   -1.130102
 -----------------------------------------------------------------

              Electrostatic Properties (Atomic Units)

 -----------------------------------------------------------------
    Center     Electric         -------- Electric Field --------
               Potential          X             Y             Z
 -----------------------------------------------------------------
    1 Atom    -22.245939
    2 Atom    -22.259879
    3 Atom    -22.263611
    4 Atom    -80.077424
    5 Atom    -80.042619
    6 Atom    -53.964469
    7 Atom    -22.260699
    8 Atom    -79.998247
    9 Atom    -22.242199
 -----------------------------------------------------------------
 1\1\GINC-N035\SP\RB3LYP\6-31+G(d,p)\Ca3O5P1(1+)\TIMN\12-Jun-2015\0\\# 
 b3lyp/6-31+G(d,p) int=ultrafine pop=(ReadRadii,MK)\\mol_17.26.51.pdbc_
 plusQ.z58463.zip.xyz\\1,1\O,0,-0.33595,-0.93051,-0.29465\O,0,-2.94315,
 0.74695,-0.40823\O,0,-2.45969,0.83435,1.08164\Ca,0,-0.80896,1.49983,-0
 .32127\Ca,0,-2.44654,-1.2825,0.36953\P,0,1.13977,-0.78815,-0.94527\O,0
 ,2.21392,-1.47129,0.02684\Ca,0,3.23969,0.34514,0.69577\O,0,1.42734,0.8
 9208,-0.49328\\Version=EM64T-G03RevE.01\State=1-A\HF=-2750.1979526\RMS
 D=6.403e-05\Thermal=0.\Dipole=2.6029369,0.4151081,1.9395321\PG=C01 [X(
 Ca3O5P1)]\\@


 SI MONUMENTUM REQUIRIS, CIRCUMSPICE
     -- FROM SIR CHRISTOPHER WREN'S TOMBSTONE
 Job cpu time:  0 days  0 hours  1 minutes 44.9 seconds.
 File lengths (MBytes):  RWF=     36 Int=      0 D2E=      0 Chk=     11 Scr=      1
 Normal termination of Gaussian 03 at Fri Jun 12 18:01:42 2015.
