 Entering Gaussian System, Link 0=/home/timn/tmp/g03.e01/g03
 Input=mol_17.23.42.pdbcc_plusQ.z58243.zip.xyz.gjf
 Output=mol_17.23.42.pdbcc_plusQ.z58243.zip.xyz.out
 Initial command:
 /home/timn/tmp/g03.e01/l1.exe /home/timn/tmp/g03.e01/Gau-18150.inp -scrdir=/home/timn/tmp/g03.e01/
 Default is to use a total of   2 processors:
                                2 via shared-memory
                                1 via Linda
 Entering Link 1 = /home/timn/tmp/g03.e01/l1.exe PID=     18151.
  
 Copyright (c) 1988,1990,1992,1993,1995,1998,2003,2004,2007, Gaussian, Inc.
                  All Rights Reserved.
  
 This is the Gaussian(R) 03 program.  It is based on the
 the Gaussian(R) 98 system (copyright 1998, Gaussian, Inc.),
 the Gaussian(R) 94 system (copyright 1995, Gaussian, Inc.),
 the Gaussian 92(TM) system (copyright 1992, Gaussian, Inc.),
 the Gaussian 90(TM) system (copyright 1990, Gaussian, Inc.),
 the Gaussian 88(TM) system (copyright 1988, Gaussian, Inc.),
 the Gaussian 86(TM) system (copyright 1986, Carnegie Mellon
 University), and the Gaussian 82(TM) system (copyright 1983,
 Carnegie Mellon University). Gaussian is a federally registered
 trademark of Gaussian, Inc.
  
 This software contains proprietary and confidential information,
 including trade secrets, belonging to Gaussian, Inc.
  
 This software is provided under written license and may be
 used, copied, transmitted, or stored only in accord with that
 written license.
  
 The following legend is applicable only to US Government
 contracts under FAR:
  
                    RESTRICTED RIGHTS LEGEND
  
 Use, reproduction and disclosure by the US Government is
 subject to restrictions as set forth in subparagraphs (a)
 and (c) of the Commercial Computer Software - Restricted
 Rights clause in FAR 52.227-19.
  
 Gaussian, Inc.
 340 Quinnipiac St., Bldg. 40, Wallingford CT 06492
  
  
 ---------------------------------------------------------------
 Warning -- This program may not be used in any manner that
 competes with the business of Gaussian, Inc. or will provide
 assistance to any competitor of Gaussian, Inc.  The licensee
 of this program is prohibited from giving any competitor of
 Gaussian, Inc. access to this program.  By using this program,
 the user acknowledges that Gaussian, Inc. is engaged in the
 business of creating and licensing software in the field of
 computational chemistry and represents and warrants to the
 licensee that it is not a competitor of Gaussian, Inc. and that
 it will not use this program in any manner prohibited above.
 ---------------------------------------------------------------
  

 Cite this work as:
 Gaussian 03, Revision E.01,
 M. J. Frisch, G. W. Trucks, H. B. Schlegel, G. E. Scuseria, 
 M. A. Robb, J. R. Cheeseman, J. A. Montgomery, Jr., T. Vreven, 
 K. N. Kudin, J. C. Burant, J. M. Millam, S. S. Iyengar, J. Tomasi, 
 V. Barone, B. Mennucci, M. Cossi, G. Scalmani, N. Rega, 
 G. A. Petersson, H. Nakatsuji, M. Hada, M. Ehara, K. Toyota, 
 R. Fukuda, J. Hasegawa, M. Ishida, T. Nakajima, Y. Honda, O. Kitao, 
 H. Nakai, M. Klene, X. Li, J. E. Knox, H. P. Hratchian, J. B. Cross, 
 V. Bakken, C. Adamo, J. Jaramillo, R. Gomperts, R. E. Stratmann, 
 O. Yazyev, A. J. Austin, R. Cammi, C. Pomelli, J. W. Ochterski, 
 P. Y. Ayala, K. Morokuma, G. A. Voth, P. Salvador, J. J. Dannenberg, 
 V. G. Zakrzewski, S. Dapprich, A. D. Daniels, M. C. Strain, 
 O. Farkas, D. K. Malick, A. D. Rabuck, K. Raghavachari, 
 J. B. Foresman, J. V. Ortiz, Q. Cui, A. G. Baboul, S. Clifford, 
 J. Cioslowski, B. B. Stefanov, G. Liu, A. Liashenko, P. Piskorz, 
 I. Komaromi, R. L. Martin, D. J. Fox, T. Keith, M. A. Al-Laham, 
 C. Y. Peng, A. Nanayakkara, M. Challacombe, P. M. W. Gill, 
 B. Johnson, W. Chen, M. W. Wong, C. Gonzalez, and J. A. Pople, 
 Gaussian, Inc., Wallingford CT, 2004.
 
 ******************************************
 Gaussian 03:  EM64T-G03RevE.01 11-Sep-2007
                12-Jun-2015 
 ******************************************
 %nproc=2
 Will use up to    2 processors via shared memory.
 Default route:  MP2=Direct MaxDisk=2000MB
 ----------------------------------------------------
 # b3lyp/6-31+G(d,p) int=ultrafine pop=(ReadRadii,MK)
 ----------------------------------------------------

 Warning!  SCF SP cutoffs with diffuse functions may be unreliable.
 Consider SCF=Tight

 1/38=1/1;
 2/17=6,18=5,40=1/2;
 3/5=1,6=6,7=111,11=2,16=1,25=1,30=1,74=-5,75=5/1,2,3;
 4//1;
 5/5=2,32=1,38=5/2;
 6/7=2,8=2,9=2,10=2,15=8,20=101,28=1/1,2;
 99/5=1,9=1/99;
 ---------------------------------------
 mol_17.23.42.pdbcc_plusQ.z58243.zip.xyz
 ---------------------------------------
 Symbolic Z-matrix:
 Charge =  1 Multiplicity = 1
 O                    -1.47597   0.00011   0.00027 
 P                    -3.08657   0.00022  -0.00032 
 Ca                   -0.75302   2.21709   0.0001 
 O                     1.28679   1.85986   0.78313 
 O                     1.28697   1.86025  -0.7829 
 Ca                    2.35294  -0.00017  -0.00023 
 O                     1.28666  -1.86041  -0.78291 
 O                     1.28649  -1.86003   0.78312 
 Ca                   -0.75337  -2.21699   0.0001 
 
                          Input orientation:                          
 ---------------------------------------------------------------------
 Center     Atomic     Atomic              Coordinates (Angstroms)
 Number     Number      Type              X           Y           Z
 ---------------------------------------------------------------------
    1          8             0       -1.475970    0.000110    0.000270
    2         15             0       -3.086570    0.000220   -0.000320
    3         20             0       -0.753020    2.217090    0.000100
    4          8             0        1.286790    1.859860    0.783130
    5          8             0        1.286970    1.860250   -0.782900
    6         20             0        2.352940   -0.000170   -0.000230
    7          8             0        1.286660   -1.860410   -0.782910
    8          8             0        1.286490   -1.860030    0.783120
    9         20             0       -0.753370   -2.216990    0.000100
 ---------------------------------------------------------------------
                    Distance matrix (angstroms):
                    1          2          3          4          5
     1  O    0.000000
     2  P    1.610600   0.000000
     3  Ca   2.331878   3.218690   0.000000
     4  O    3.421167   4.816465   2.213950   0.000000
     5  O    3.421595   4.816637   2.214042   1.566030   0.000000
     6  Ca   3.828910   5.439510   3.816180   2.282551   2.282548
     7  O    3.421554   4.816589   4.625949   4.036445   3.720660
     8  O    3.421134   4.816426   4.625541   3.719890   4.036447
     9  Ca   2.331884   3.218671   4.434080   4.625591   4.626009
                    6          7          8          9
     6  Ca   0.000000
     7  O    2.282550   0.000000
     8  O    2.282549   1.566030   0.000000
     9  Ca   3.816209   2.214041   2.213949   0.000000
 Stoichiometry    Ca3O5P(1+)
 Framework group  C1[X(Ca3O5P)]
 Deg. of freedom    21
 Full point group                 C1
 Largest Abelian subgroup         C1      NOp   1
 Largest concise Abelian subgroup C1      NOp   1
                         Standard orientation:                         
 ---------------------------------------------------------------------
 Center     Atomic     Atomic              Coordinates (Angstroms)
 Number     Number      Type              X           Y           Z
 ---------------------------------------------------------------------
    1          8             0       -1.475970    0.000117    0.000268
    2         15             0       -3.086570    0.000235   -0.000322
    3         20             0       -0.753008    2.217093    0.000098
    4          8             0        1.286800    1.859852    0.783128
    5          8             0        1.286980    1.860242   -0.782902
    6         20             0        2.352940   -0.000184   -0.000232
    7          8             0        1.286650   -1.860418   -0.782912
    8          8             0        1.286480   -1.860038    0.783118
    9         20             0       -0.753381   -2.216987    0.000098
 ---------------------------------------------------------------------
 Rotational constants (GHZ):      0.7733928      0.6814416      0.3838412
 Standard basis: 6-31+G(d,p) (6D, 7F)
 There are   199 symmetry adapted basis functions of A   symmetry.
 Integral buffers will be    131072 words long.
 Raffenetti 2 integral format.
 Two-electron integral symmetry is turned on.
   199 basis functions,   456 primitive gaussians,   199 cartesian basis functions
    57 alpha electrons       57 beta electrons
       nuclear repulsion energy       965.7886111577 Hartrees.
 NAtoms=    9 NActive=    9 NUniq=    9 SFac= 7.50D-01 NAtFMM=   80 NAOKFM=F Big=F
 One-electron integrals computed using PRISM.
 NBasis=   199 RedAO= T  NBF=   199
 NBsUse=   199 1.00D-06 NBFU=   199
 Harris functional with IExCor=  402 diagonalized for initial guess.
 ExpMin= 7.10D-03 ExpMax= 3.53D+04 ExpMxC= 5.30D+03 IAcc=3 IRadAn=         5 AccDes= 0.00D+00
 HarFok:  IExCor= 402 AccDes= 0.00D+00 IRadAn=         5 IDoV=1
 ScaDFX=  1.000000  1.000000  1.000000  1.000000
 Initial guess orbital symmetries:
       Occupied  (A) (A) (A) (A) (A) (A) (A) (A) (A) (A) (A) (A)
                 (A) (A) (A) (A) (A) (A) (A) (A) (A) (A) (A) (A)
                 (A) (A) (A) (A) (A) (A) (A) (A) (A) (A) (A) (A)
                 (A) (A) (A) (A) (A) (A) (A) (A) (A) (A) (A) (A)
                 (A) (A) (A) (A) (A) (A) (A) (A) (A)
       Virtual   (A) (A) (A) (A) (A) (A) (A) (A) (A) (A) (A) (A)
                 (A) (A) (A) (A) (A) (A) (A) (A) (A) (A) (A) (A)
                 (A) (A) (A) (A) (A) (A) (A) (A) (A) (A) (A) (A)
                 (A) (A) (A) (A) (A) (A) (A) (A) (A) (A) (A) (A)
                 (A) (A) (A) (A) (A) (A) (A) (A) (A) (A) (A) (A)
                 (A) (A) (A) (A) (A) (A) (A) (A) (A) (A) (A) (A)
                 (A) (A) (A) (A) (A) (A) (A) (A) (A) (A) (A) (A)
                 (A) (A) (A) (A) (A) (A) (A) (A) (A) (A) (A) (A)
                 (A) (A) (A) (A) (A) (A) (A) (A) (A) (A) (A) (A)
                 (A) (A) (A) (A) (A) (A) (A) (A) (A) (A) (A) (A)
                 (A) (A) (A) (A) (A) (A) (A) (A) (A) (A) (A) (A)
                 (A) (A) (A) (A) (A) (A) (A) (A) (A) (A)
 The electronic state of the initial guess is 1-A.
 Requested convergence on RMS density matrix=1.00D-04 within 128 cycles.
 Requested convergence on MAX density matrix=1.00D-02.
 Requested convergence on             energy=1.00D-02.
 No special actions if energy rises.
 EnCoef did     8 forward-backward iterations
 EnCoef did    12 forward-backward iterations
 EnCoef did    11 forward-backward iterations
 EnCoef did     2 forward-backward iterations
 SCF Done:  E(RB+HF-LYP) =  -2750.02738200     A.U. after   11 cycles
             Convg  =    0.4519D-04             -V/T =  2.0029
             S**2   =   0.0000

 **********************************************************************

            Population analysis using the SCF density.

 **********************************************************************

 Orbital symmetries:
       Occupied  (A) (A) (A) (A) (A) (A) (A) (A) (A) (A) (A) (A)
                 (A) (A) (A) (A) (A) (A) (A) (A) (A) (A) (A) (A)
                 (A) (A) (A) (A) (A) (A) (A) (A) (A) (A) (A) (A)
                 (A) (A) (A) (A) (A) (A) (A) (A) (A) (A) (A) (A)
                 (A) (A) (A) (A) (A) (A) (A) (A) (A)
       Virtual   (A) (A) (A) (A) (A) (A) (A) (A) (A) (A) (A) (A)
                 (A) (A) (A) (A) (A) (A) (A) (A) (A) (A) (A) (A)
                 (A) (A) (A) (A) (A) (A) (A) (A) (A) (A) (A) (A)
                 (A) (A) (A) (A) (A) (A) (A) (A) (A) (A) (A) (A)
                 (A) (A) (A) (A) (A) (A) (A) (A) (A) (A) (A) (A)
                 (A) (A) (A) (A) (A) (A) (A) (A) (A) (A) (A) (A)
                 (A) (A) (A) (A) (A) (A) (A) (A) (A) (A) (A) (A)
                 (A) (A) (A) (A) (A) (A) (A) (A) (A) (A) (A) (A)
                 (A) (A) (A) (A) (A) (A) (A) (A) (A) (A) (A) (A)
                 (A) (A) (A) (A) (A) (A) (A) (A) (A) (A) (A) (A)
                 (A) (A) (A) (A) (A) (A) (A) (A) (A) (A) (A) (A)
                 (A) (A) (A) (A) (A) (A) (A) (A) (A) (A)
 The electronic state is 1-A.
 Alpha  occ. eigenvalues -- -145.51627-145.51623-145.45501 -77.27390 -19.31783
 Alpha  occ. eigenvalues --  -19.22749 -19.22722 -19.22662 -19.22635 -15.58457
 Alpha  occ. eigenvalues --  -15.58454 -15.52382 -12.71675 -12.71672 -12.71656
 Alpha  occ. eigenvalues --  -12.71653 -12.71569 -12.71566 -12.65631 -12.65573
 Alpha  occ. eigenvalues --  -12.65462  -6.73682  -4.90415  -4.89915  -4.88986
 Alpha  occ. eigenvalues --   -1.95610  -1.95606  -1.89703  -1.23682  -1.23426
 Alpha  occ. eigenvalues --   -1.23383  -1.23179  -1.23173  -1.23040  -1.17859
 Alpha  occ. eigenvalues --   -1.17667  -1.17230  -1.13162  -1.05780  -1.04881
 Alpha  occ. eigenvalues --   -0.86462  -0.86319  -0.69446  -0.54697  -0.52507
 Alpha  occ. eigenvalues --   -0.51588  -0.46254  -0.45994  -0.45650  -0.44370
 Alpha  occ. eigenvalues --   -0.43505  -0.42908  -0.34337  -0.33846  -0.32512
 Alpha  occ. eigenvalues --   -0.31522  -0.30545
 Alpha virt. eigenvalues --   -0.26489  -0.20391  -0.18087  -0.14001  -0.13058
 Alpha virt. eigenvalues --   -0.12683  -0.11924  -0.10060  -0.09057  -0.08516
 Alpha virt. eigenvalues --   -0.07717  -0.07161  -0.06674  -0.05952  -0.05825
 Alpha virt. eigenvalues --   -0.05689  -0.04763  -0.04736  -0.04667  -0.04317
 Alpha virt. eigenvalues --   -0.04312  -0.03704  -0.03695  -0.03570  -0.03541
 Alpha virt. eigenvalues --   -0.03023  -0.02375  -0.02297  -0.02290  -0.01778
 Alpha virt. eigenvalues --   -0.00236   0.00905   0.02022   0.02221   0.02973
 Alpha virt. eigenvalues --    0.04025   0.04307   0.04592   0.05531   0.06119
 Alpha virt. eigenvalues --    0.07123   0.07127   0.08525   0.08603   0.08674
 Alpha virt. eigenvalues --    0.09288   0.10256   0.10807   0.11209   0.12102
 Alpha virt. eigenvalues --    0.12867   0.12990   0.13501   0.13991   0.15659
 Alpha virt. eigenvalues --    0.16392   0.17510   0.18705   0.19915   0.21610
 Alpha virt. eigenvalues --    0.21739   0.21823   0.22842   0.23964   0.26487
 Alpha virt. eigenvalues --    0.28892   0.30414   0.31021   0.31687   0.33739
 Alpha virt. eigenvalues --    0.35159   0.35221   0.36594   0.36646   0.36946
 Alpha virt. eigenvalues --    0.38698   0.40771   0.42992   0.44233   0.47750
 Alpha virt. eigenvalues --    0.53512   0.54064   0.55803   0.57430   0.59494
 Alpha virt. eigenvalues --    0.63431   0.67072   0.72782   0.87748   0.89557
 Alpha virt. eigenvalues --    1.03205   1.04341   1.10530   1.10841   1.11185
 Alpha virt. eigenvalues --    1.12401   1.17347   1.18517   1.19067   1.20073
 Alpha virt. eigenvalues --    1.20772   1.23064   1.23549   1.24555   1.27934
 Alpha virt. eigenvalues --    1.40133   1.41958   1.52668   1.52748   1.52978
 Alpha virt. eigenvalues --    1.53567   1.54183   1.55323   1.65246   1.67041
 Alpha virt. eigenvalues --    1.71756   1.75316   1.78056   1.78455   1.79097
 Alpha virt. eigenvalues --    1.82413   1.83942   1.85496   1.85510   1.88817
 Alpha virt. eigenvalues --    1.88991   1.89196   1.93710   2.02783   2.19136
 Alpha virt. eigenvalues --    2.20524   2.20969   2.21627   2.47250   3.03843
 Alpha virt. eigenvalues --    3.04444   3.35359   3.87052   4.05622   4.12536
 Alpha virt. eigenvalues --    4.13077   4.13675
          Condensed to atoms (all electrons):
              1          2          3          4          5          6
     1  O    8.883813  -0.223940   0.022193   0.002229   0.002231   0.004235
     2  P   -0.223940  15.193817   0.037900  -0.003887  -0.003888   0.010668
     3  Ca   0.022193   0.037900  18.248004   0.115834   0.116026  -0.024878
     4  O    0.002229  -0.003887   0.115834   8.501627  -0.043645   0.080808
     5  O    0.002231  -0.003888   0.116026  -0.043645   8.499555   0.080982
     6  Ca   0.004235   0.010668  -0.024878   0.080808   0.080982  18.276413
     7  O    0.002232  -0.003885   0.003455  -0.009502   0.012122   0.080957
     8  O    0.002229  -0.003884   0.003459   0.012144  -0.009502   0.080784
     9  Ca   0.022177   0.037886  -0.000074   0.003460   0.003455  -0.024877
              7          8          9
     1  O    0.002232   0.002229   0.022177
     2  P   -0.003885  -0.003884   0.037886
     3  Ca   0.003455   0.003459  -0.000074
     4  O   -0.009502   0.012144   0.003460
     5  O    0.012122  -0.009502   0.003455
     6  Ca   0.080957   0.080784  -0.024877
     7  O    8.499596  -0.043464   0.115974
     8  O   -0.043464   8.501658   0.115784
     9  Ca   0.115974   0.115784  18.247926
 Mulliken atomic charges:
              1
     1  O   -0.717398
     2  P   -0.040786
     3  Ca   1.478081
     4  O   -0.659068
     5  O   -0.657336
     6  Ca   1.434909
     7  O   -0.657483
     8  O   -0.659207
     9  Ca   1.478289
 Sum of Mulliken charges=   1.00000
 Atomic charges with hydrogens summed into heavy atoms:
              1
     1  O   -0.717398
     2  P   -0.040786
     3  Ca   1.478081
     4  O   -0.659068
     5  O   -0.657336
     6  Ca   1.434909
     7  O   -0.657483
     8  O   -0.659207
     9  Ca   1.478289
 Sum of Mulliken charges=   1.00000
 Electronic spatial extent (au):  <R**2>=  2544.1742
 Charge=     1.0000 electrons
 Dipole moment (field-independent basis, Debye):
    X=    -5.1431    Y=     0.0005    Z=    -0.0159  Tot=     5.1432
 Quadrupole moment (field-independent basis, Debye-Ang):
   XX=   -55.2252   YY=   -49.6714   ZZ=   -81.2558
   XY=     0.0058   XZ=    -0.0248   YZ=    -0.0001
 Traceless Quadrupole moment (field-independent basis, Debye-Ang):
   XX=     6.8256   YY=    12.3794   ZZ=   -19.2050
   XY=     0.0058   XZ=    -0.0248   YZ=    -0.0001
 Octapole moment (field-independent basis, Debye-Ang**2):
  XXX=   126.2778  YYY=     0.0077  ZZZ=    -0.0122  XYY=   -99.0061
  XXY=    -0.0316  XXZ=    -0.0244  XZZ=    -8.2145  YZZ=    -0.0057
  YYZ=    -0.0275  XYZ=    -0.0002
 Hexadecapole moment (field-independent basis, Debye-Ang**3):
 XXXX= -1372.8836 YYYY=  -947.3912 ZZZZ=  -175.4609 XXXY=    -0.0248
 XXXZ=    -0.0716 YYYX=     0.0523 YYYZ=    -0.0008 ZZZX=    -0.0362
 ZZZY=    -0.0009 XXYY=  -550.9358 XXZZ=  -287.9639 YYZZ=  -258.4639
 XXYZ=    -0.0003 YYXZ=    -0.0714 ZZXY=    -0.0045
 N-N= 9.657886111577D+02 E-N=-8.432305942352D+03  KE= 2.742121312569D+03
 Merz-Kollman atomic radii used.
 Read replacement radii for each type of atom:
 Rad(20) =   1.188000000000D+00
 Atom Element Radius
    1     8    1.40
    2    15    1.80
    3    20    1.19
    4     8    1.40
    5     8    1.40
    6    20    1.19
    7     8    1.40
    8     8    1.40
    9    20    1.19

 **********************************************************************

            Electrostatic Properties Using The SCF Density

 **********************************************************************

       Atomic Center    1 is at  -1.475970  0.000117  0.000268
       Atomic Center    2 is at  -3.086570  0.000235 -0.000322
       Atomic Center    3 is at  -0.753008  2.217093  0.000098
       Atomic Center    4 is at   1.286800  1.859852  0.783128
       Atomic Center    5 is at   1.286980  1.860242 -0.782902
       Atomic Center    6 is at   2.352940 -0.000184 -0.000232
       Atomic Center    7 is at   1.286650 -1.860418 -0.782912
       Atomic Center    8 is at   1.286480 -1.860038  0.783118
       Atomic Center    9 is at  -0.753381 -2.216987  0.000098
     909 points will be used for fitting atomic charges
 Fitting point charges to eletrostatic potential
 Charges from ESP fit, RMS=   0.00842 RRMS=   0.05762:
 Charge=   1.00000 Dipole=    -5.3182     0.0006    -0.0161 Tot=     5.3182
              1
     1  O   -0.782489
     2  P   -0.073288
     3  Ca   1.637753
     4  O   -0.779246
     5  O   -0.777479
     6  Ca   1.693806
     7  O   -0.777626
     8  O   -0.779385
     9  Ca   1.637954
 -----------------------------------------------------------------

              Electrostatic Properties (Atomic Units)

 -----------------------------------------------------------------
    Center     Electric         -------- Electric Field --------
               Potential          X             Y             Z
 -----------------------------------------------------------------
    1 Atom    -22.148085
    2 Atom    -53.948741
    3 Atom    -80.023859
    4 Atom    -22.241183
    5 Atom    -22.238505
    6 Atom    -80.083793
    7 Atom    -22.239021
    8 Atom    -22.241688
    9 Atom    -80.023832
 -----------------------------------------------------------------
 1\1\GINC-N021\SP\RB3LYP\6-31+G(d,p)\Ca3O5P1(1+)\TIMN\12-Jun-2015\0\\# 
 b3lyp/6-31+G(d,p) int=ultrafine pop=(ReadRadii,MK)\\mol_17.23.42.pdbcc
 _plusQ.z58243.zip.xyz\\1,1\O,0,-1.47597,0.00011,0.00027\P,0,-3.08657,0
 .00022,-0.00032\Ca,0,-0.75302,2.21709,0.0001\O,0,1.28679,1.85986,0.783
 13\O,0,1.28697,1.86025,-0.7829\Ca,0,2.35294,-0.00017,-0.00023\O,0,1.28
 666,-1.86041,-0.78291\O,0,1.28649,-1.86003,0.78312\Ca,0,-0.75337,-2.21
 699,0.0001\\Version=EM64T-G03RevE.01\State=1-A\HF=-2750.027382\RMSD=4.
 519e-05\Thermal=0.\Dipole=-2.0234626,0.0001701,-0.0062538\PG=C01 [X(Ca
 3O5P1)]\\@


 THE PROBLEM WITH THE LADDER OF SUCCESS IS YOU CAN'T
 CLIMB IT WHILE YOU'RE TWIDDLING YOUR THUMBS.
 Job cpu time:  0 days  0 hours  2 minutes 39.1 seconds.
 File lengths (MBytes):  RWF=     36 Int=      0 D2E=      0 Chk=     11 Scr=      1
 Normal termination of Gaussian 03 at Fri Jun 12 17:54:07 2015.
