 Entering Gaussian System, Link 0=/home/timn/tmp/g03.e01/g03
 Input=mol_17.27.43.pdbcccc_plusQ.z58509.zip.xyz.gjf
 Output=mol_17.27.43.pdbcccc_plusQ.z58509.zip.xyz.out
 Initial command:
 /home/timn/tmp/g03.e01/l1.exe /home/timn/tmp/g03.e01/Gau-13496.inp -scrdir=/home/timn/tmp/g03.e01/
 Default is to use a total of   2 processors:
                                2 via shared-memory
                                1 via Linda
 Entering Link 1 = /home/timn/tmp/g03.e01/l1.exe PID=     13499.
  
 Copyright (c) 1988,1990,1992,1993,1995,1998,2003,2004,2007, Gaussian, Inc.
                  All Rights Reserved.
  
 This is the Gaussian(R) 03 program.  It is based on the
 the Gaussian(R) 98 system (copyright 1998, Gaussian, Inc.),
 the Gaussian(R) 94 system (copyright 1995, Gaussian, Inc.),
 the Gaussian 92(TM) system (copyright 1992, Gaussian, Inc.),
 the Gaussian 90(TM) system (copyright 1990, Gaussian, Inc.),
 the Gaussian 88(TM) system (copyright 1988, Gaussian, Inc.),
 the Gaussian 86(TM) system (copyright 1986, Carnegie Mellon
 University), and the Gaussian 82(TM) system (copyright 1983,
 Carnegie Mellon University). Gaussian is a federally registered
 trademark of Gaussian, Inc.
  
 This software contains proprietary and confidential information,
 including trade secrets, belonging to Gaussian, Inc.
  
 This software is provided under written license and may be
 used, copied, transmitted, or stored only in accord with that
 written license.
  
 The following legend is applicable only to US Government
 contracts under FAR:
  
                    RESTRICTED RIGHTS LEGEND
  
 Use, reproduction and disclosure by the US Government is
 subject to restrictions as set forth in subparagraphs (a)
 and (c) of the Commercial Computer Software - Restricted
 Rights clause in FAR 52.227-19.
  
 Gaussian, Inc.
 340 Quinnipiac St., Bldg. 40, Wallingford CT 06492
  
  
 ---------------------------------------------------------------
 Warning -- This program may not be used in any manner that
 competes with the business of Gaussian, Inc. or will provide
 assistance to any competitor of Gaussian, Inc.  The licensee
 of this program is prohibited from giving any competitor of
 Gaussian, Inc. access to this program.  By using this program,
 the user acknowledges that Gaussian, Inc. is engaged in the
 business of creating and licensing software in the field of
 computational chemistry and represents and warrants to the
 licensee that it is not a competitor of Gaussian, Inc. and that
 it will not use this program in any manner prohibited above.
 ---------------------------------------------------------------
  

 Cite this work as:
 Gaussian 03, Revision E.01,
 M. J. Frisch, G. W. Trucks, H. B. Schlegel, G. E. Scuseria, 
 M. A. Robb, J. R. Cheeseman, J. A. Montgomery, Jr., T. Vreven, 
 K. N. Kudin, J. C. Burant, J. M. Millam, S. S. Iyengar, J. Tomasi, 
 V. Barone, B. Mennucci, M. Cossi, G. Scalmani, N. Rega, 
 G. A. Petersson, H. Nakatsuji, M. Hada, M. Ehara, K. Toyota, 
 R. Fukuda, J. Hasegawa, M. Ishida, T. Nakajima, Y. Honda, O. Kitao, 
 H. Nakai, M. Klene, X. Li, J. E. Knox, H. P. Hratchian, J. B. Cross, 
 V. Bakken, C. Adamo, J. Jaramillo, R. Gomperts, R. E. Stratmann, 
 O. Yazyev, A. J. Austin, R. Cammi, C. Pomelli, J. W. Ochterski, 
 P. Y. Ayala, K. Morokuma, G. A. Voth, P. Salvador, J. J. Dannenberg, 
 V. G. Zakrzewski, S. Dapprich, A. D. Daniels, M. C. Strain, 
 O. Farkas, D. K. Malick, A. D. Rabuck, K. Raghavachari, 
 J. B. Foresman, J. V. Ortiz, Q. Cui, A. G. Baboul, S. Clifford, 
 J. Cioslowski, B. B. Stefanov, G. Liu, A. Liashenko, P. Piskorz, 
 I. Komaromi, R. L. Martin, D. J. Fox, T. Keith, M. A. Al-Laham, 
 C. Y. Peng, A. Nanayakkara, M. Challacombe, P. M. W. Gill, 
 B. Johnson, W. Chen, M. W. Wong, C. Gonzalez, and J. A. Pople, 
 Gaussian, Inc., Wallingford CT, 2004.
 
 ******************************************
 Gaussian 03:  EM64T-G03RevE.01 11-Sep-2007
                12-Jun-2015 
 ******************************************
 %nproc=2
 Will use up to    2 processors via shared memory.
 Default route:  MP2=Direct MaxDisk=2000MB
 ----------------------------------------------------
 # b3lyp/6-31+G(d,p) int=ultrafine pop=(ReadRadii,MK)
 ----------------------------------------------------

 Warning!  SCF SP cutoffs with diffuse functions may be unreliable.
 Consider SCF=Tight

 1/38=1/1;
 2/17=6,18=5,40=1/2;
 3/5=1,6=6,7=111,11=2,16=1,25=1,30=1,74=-5,75=5/1,2,3;
 4//1;
 5/5=2,32=1,38=5/2;
 6/7=2,8=2,9=2,10=2,15=8,20=101,28=1/1,2;
 99/5=1,9=1/99;
 -----------------------------------------
 mol_17.27.43.pdbcccc_plusQ.z58509.zip.xyz
 -----------------------------------------
 Symbolic Z-matrix:
 Charge =  1 Multiplicity = 1
 O                    -3.41068  -0.65362   0.00002 
 O                     0.82184  -0.87963   0.77836 
 O                     0.82236  -0.88147  -0.77714 
 Ca                    3.07638  -0.69344  -0.00033 
 O                     2.87435   1.41645  -0.00045 
 Ca                    0.72556   1.51879   0.00044 
 P                    -3.17089   0.86668  -0.00021 
 Ca                   -1.22151  -1.49228   0.00014 
 O                    -1.61351   1.04054  -0.00102 
 
                          Input orientation:                          
 ---------------------------------------------------------------------
 Center     Atomic     Atomic              Coordinates (Angstroms)
 Number     Number      Type              X           Y           Z
 ---------------------------------------------------------------------
    1          8             0       -3.410680   -0.653620    0.000020
    2          8             0        0.821840   -0.879630    0.778360
    3          8             0        0.822360   -0.881470   -0.777140
    4         20             0        3.076380   -0.693440   -0.000330
    5          8             0        2.874350    1.416450   -0.000450
    6         20             0        0.725560    1.518790    0.000440
    7         15             0       -3.170890    0.866680   -0.000210
    8         20             0       -1.221510   -1.492280    0.000140
    9          8             0       -1.613510    1.040540   -0.001020
 ---------------------------------------------------------------------
                    Distance matrix (angstroms):
                    1          2          3          4          5
     1  O    0.000000
     2  O    4.309422   0.000000
     3  O    4.309817   1.555501   0.000000
     4  Ca   6.487182   2.392483   2.391526   0.000000
     5  O    6.617159   3.176685   3.177160   2.119541   0.000000
     6  Ca   4.672028   2.523261   2.524926   3.228052   2.151226
     7  P    1.539094   4.426925   4.427832   6.439127   6.070187
     8  Ca   2.344316   2.270737   2.270387   4.371499   5.023622
     9  O    2.469818   3.197720   3.198429   5.000176   4.503576
                    6          7          8          9
     6  Ca   0.000000
     7  P    3.950642   0.000000
     8  Ca   3.585753   3.060192   0.000000
     9  O    2.387462   1.567055   2.562975   0.000000
 Stoichiometry    Ca3O5P(1+)
 Framework group  C1[X(Ca3O5P)]
 Deg. of freedom    21
 Full point group                 C1
 Largest Abelian subgroup         C1      NOp   1
 Largest concise Abelian subgroup C1      NOp   1
                         Standard orientation:                         
 ---------------------------------------------------------------------
 Center     Atomic     Atomic              Coordinates (Angstroms)
 Number     Number      Type              X           Y           Z
 ---------------------------------------------------------------------
    1          8             0       -3.410681   -0.653620    0.000020
    2          8             0        0.821839   -0.879627    0.778360
    3          8             0        0.822359   -0.881467   -0.777140
    4         20             0        3.076379   -0.693436   -0.000330
    5          8             0        2.874348    1.416454   -0.000450
    6         20             0        0.725558    1.518792    0.000440
    7         15             0       -3.170892    0.866680   -0.000210
    8         20             0       -1.221510   -1.492279    0.000140
    9          8             0       -1.613512    1.040541   -0.001020
 ---------------------------------------------------------------------
 Rotational constants (GHZ):      1.5596089      0.4315448      0.3469975
 Standard basis: 6-31+G(d,p) (6D, 7F)
 There are   199 symmetry adapted basis functions of A   symmetry.
 Integral buffers will be    131072 words long.
 Raffenetti 2 integral format.
 Two-electron integral symmetry is turned on.
   199 basis functions,   456 primitive gaussians,   199 cartesian basis functions
    57 alpha electrons       57 beta electrons
       nuclear repulsion energy       978.3505055896 Hartrees.
 NAtoms=    9 NActive=    9 NUniq=    9 SFac= 7.50D-01 NAtFMM=   80 NAOKFM=F Big=F
 One-electron integrals computed using PRISM.
 NBasis=   199 RedAO= T  NBF=   199
 NBsUse=   199 1.00D-06 NBFU=   199
 Harris functional with IExCor=  402 diagonalized for initial guess.
 ExpMin= 7.10D-03 ExpMax= 3.53D+04 ExpMxC= 5.30D+03 IAcc=3 IRadAn=         5 AccDes= 0.00D+00
 HarFok:  IExCor= 402 AccDes= 0.00D+00 IRadAn=         5 IDoV=1
 ScaDFX=  1.000000  1.000000  1.000000  1.000000
 Initial guess orbital symmetries:
       Occupied  (A) (A) (A) (A) (A) (A) (A) (A) (A) (A) (A) (A)
                 (A) (A) (A) (A) (A) (A) (A) (A) (A) (A) (A) (A)
                 (A) (A) (A) (A) (A) (A) (A) (A) (A) (A) (A) (A)
                 (A) (A) (A) (A) (A) (A) (A) (A) (A) (A) (A) (A)
                 (A) (A) (A) (A) (A) (A) (A) (A) (A)
       Virtual   (A) (A) (A) (A) (A) (A) (A) (A) (A) (A) (A) (A)
                 (A) (A) (A) (A) (A) (A) (A) (A) (A) (A) (A) (A)
                 (A) (A) (A) (A) (A) (A) (A) (A) (A) (A) (A) (A)
                 (A) (A) (A) (A) (A) (A) (A) (A) (A) (A) (A) (A)
                 (A) (A) (A) (A) (A) (A) (A) (A) (A) (A) (A) (A)
                 (A) (A) (A) (A) (A) (A) (A) (A) (A) (A) (A) (A)
                 (A) (A) (A) (A) (A) (A) (A) (A) (A) (A) (A) (A)
                 (A) (A) (A) (A) (A) (A) (A) (A) (A) (A) (A) (A)
                 (A) (A) (A) (A) (A) (A) (A) (A) (A) (A) (A) (A)
                 (A) (A) (A) (A) (A) (A) (A) (A) (A) (A) (A) (A)
                 (A) (A) (A) (A) (A) (A) (A) (A) (A) (A) (A) (A)
                 (A) (A) (A) (A) (A) (A) (A) (A) (A) (A)
 The electronic state of the initial guess is 1-A.
 Requested convergence on RMS density matrix=1.00D-04 within 128 cycles.
 Requested convergence on MAX density matrix=1.00D-02.
 Requested convergence on             energy=1.00D-02.
 No special actions if energy rises.
 EnCoef did     3 forward-backward iterations
 SCF Done:  E(RB+HF-LYP) =  -2750.19922756     A.U. after    8 cycles
             Convg  =    0.8777D-04             -V/T =  2.0029
             S**2   =   0.0000

 **********************************************************************

            Population analysis using the SCF density.

 **********************************************************************

 Orbital symmetries:
       Occupied  (A) (A) (A) (A) (A) (A) (A) (A) (A) (A) (A) (A)
                 (A) (A) (A) (A) (A) (A) (A) (A) (A) (A) (A) (A)
                 (A) (A) (A) (A) (A) (A) (A) (A) (A) (A) (A) (A)
                 (A) (A) (A) (A) (A) (A) (A) (A) (A) (A) (A) (A)
                 (A) (A) (A) (A) (A) (A) (A) (A) (A)
       Virtual   (A) (A) (A) (A) (A) (A) (A) (A) (A) (A) (A) (A)
                 (A) (A) (A) (A) (A) (A) (A) (A) (A) (A) (A) (A)
                 (A) (A) (A) (A) (A) (A) (A) (A) (A) (A) (A) (A)
                 (A) (A) (A) (A) (A) (A) (A) (A) (A) (A) (A) (A)
                 (A) (A) (A) (A) (A) (A) (A) (A) (A) (A) (A) (A)
                 (A) (A) (A) (A) (A) (A) (A) (A) (A) (A) (A) (A)
                 (A) (A) (A) (A) (A) (A) (A) (A) (A) (A) (A) (A)
                 (A) (A) (A) (A) (A) (A) (A) (A) (A) (A) (A) (A)
                 (A) (A) (A) (A) (A) (A) (A) (A) (A) (A) (A) (A)
                 (A) (A) (A) (A) (A) (A) (A) (A) (A) (A) (A) (A)
                 (A) (A) (A) (A) (A) (A) (A) (A) (A) (A) (A) (A)
                 (A) (A) (A) (A) (A) (A) (A) (A) (A) (A)
 The electronic state is 1-A.
 Alpha  occ. eigenvalues -- -145.53297-145.48103-145.46504 -77.31651 -19.29961
 Alpha  occ. eigenvalues --  -19.29139 -19.27654 -19.27649 -19.10312 -15.60142
 Alpha  occ. eigenvalues --  -15.54940 -15.53363 -12.73378 -12.73373 -12.73208
 Alpha  occ. eigenvalues --  -12.68158 -12.68122 -12.68043 -12.66617 -12.66581
 Alpha  occ. eigenvalues --  -12.66412  -6.77275  -4.93707  -4.93475  -4.93057
 Alpha  occ. eigenvalues --   -1.97328  -1.92137  -1.90672  -1.25311  -1.25142
 Alpha  occ. eigenvalues --   -1.25001  -1.20357  -1.19792  -1.19241  -1.18533
 Alpha  occ. eigenvalues --   -1.18455  -1.17874  -1.15555  -1.10914  -1.09766
 Alpha  occ. eigenvalues --   -0.91286  -0.84521  -0.68934  -0.57901  -0.55274
 Alpha  occ. eigenvalues --   -0.54486  -0.51222  -0.50447  -0.49463  -0.46904
 Alpha  occ. eigenvalues --   -0.45456  -0.42704  -0.38844  -0.36711  -0.30149
 Alpha  occ. eigenvalues --   -0.28564  -0.28511
 Alpha virt. eigenvalues --   -0.21601  -0.19561  -0.17910  -0.15030  -0.15006
 Alpha virt. eigenvalues --   -0.11253  -0.10529  -0.09852  -0.09286  -0.08794
 Alpha virt. eigenvalues --   -0.08675  -0.08137  -0.07318  -0.06843  -0.06403
 Alpha virt. eigenvalues --   -0.05269  -0.05160  -0.04773  -0.04393  -0.04325
 Alpha virt. eigenvalues --   -0.04067  -0.03928  -0.03833  -0.03754  -0.03164
 Alpha virt. eigenvalues --   -0.02886  -0.02820  -0.02756  -0.02036  -0.00679
 Alpha virt. eigenvalues --    0.01192   0.02367   0.03018   0.03129   0.03558
 Alpha virt. eigenvalues --    0.04613   0.04771   0.05244   0.05719   0.05975
 Alpha virt. eigenvalues --    0.06044   0.07069   0.07152   0.08137   0.08649
 Alpha virt. eigenvalues --    0.09107   0.09286   0.10065   0.10525   0.11194
 Alpha virt. eigenvalues --    0.12845   0.12873   0.14783   0.14994   0.16232
 Alpha virt. eigenvalues --    0.16458   0.16522   0.17566   0.18105   0.20917
 Alpha virt. eigenvalues --    0.21380   0.22312   0.22846   0.23441   0.24455
 Alpha virt. eigenvalues --    0.26188   0.28130   0.28792   0.29849   0.31216
 Alpha virt. eigenvalues --    0.31304   0.33453   0.35771   0.37587   0.39302
 Alpha virt. eigenvalues --    0.42554   0.43238   0.45403   0.47296   0.47386
 Alpha virt. eigenvalues --    0.51485   0.53829   0.56491   0.60319   0.61234
 Alpha virt. eigenvalues --    0.63772   0.84708   0.89754   0.94114   0.99244
 Alpha virt. eigenvalues --    1.04392   1.06949   1.08622   1.10105   1.11268
 Alpha virt. eigenvalues --    1.11281   1.14317   1.15319   1.17568   1.19321
 Alpha virt. eigenvalues --    1.19826   1.21098   1.24059   1.29934   1.34426
 Alpha virt. eigenvalues --    1.35824   1.41137   1.46714   1.47082   1.53227
 Alpha virt. eigenvalues --    1.54279   1.60406   1.65364   1.66157   1.66530
 Alpha virt. eigenvalues --    1.69487   1.73049   1.74289   1.76448   1.78971
 Alpha virt. eigenvalues --    1.82209   1.83848   1.84149   1.86184   1.87441
 Alpha virt. eigenvalues --    1.89435   1.92639   1.95943   2.01016   2.04341
 Alpha virt. eigenvalues --    2.16483   2.17822   2.17906   2.50715   2.67346
 Alpha virt. eigenvalues --    3.00532   3.38855   3.87250   3.89007   4.00822
 Alpha virt. eigenvalues --    4.08741   4.08987
          Condensed to atoms (all electrons):
              1          2          3          4          5          6
     1  O    8.529397  -0.001245  -0.001260   0.001062   0.000000   0.003471
     2  O   -0.001245   8.576931  -0.050551   0.050850   0.000568   0.027672
     3  O   -0.001260  -0.050551   8.576960   0.050870   0.000523   0.027585
     4  Ca   0.001062   0.050850   0.050870  18.361315   0.224143  -0.027462
     5  O    0.000000   0.000568   0.000523   0.224143   8.679341   0.224609
     6  Ca   0.003471   0.027672   0.027585  -0.027462   0.224609  18.364742
     7  P    0.111339  -0.004140  -0.004136  -0.012413  -0.001396  -0.006669
     8  Ca   0.079161   0.094624   0.094737  -0.016943   0.001287  -0.004195
     9  O   -0.074573  -0.000392  -0.000408   0.005516  -0.005211   0.034105
              7          8          9
     1  O    0.111339   0.079161  -0.074573
     2  O   -0.004140   0.094624  -0.000392
     3  O   -0.004136   0.094737  -0.000408
     4  Ca  -0.012413  -0.016943   0.005516
     5  O   -0.001396   0.001287  -0.005211
     6  Ca  -0.006669  -0.004195   0.034105
     7  P   14.415253  -0.018418  -0.159638
     8  Ca  -0.018418  18.244317   0.022349
     9  O   -0.159638   0.022349   8.920897
 Mulliken atomic charges:
              1
     1  O   -0.647352
     2  O   -0.694318
     3  O   -0.694320
     4  Ca   1.363063
     5  O   -1.123864
     6  Ca   1.356141
     7  P    0.680218
     8  Ca   1.503079
     9  O   -0.742647
 Sum of Mulliken charges=   1.00000
 Atomic charges with hydrogens summed into heavy atoms:
              1
     1  O   -0.647352
     2  O   -0.694318
     3  O   -0.694320
     4  Ca   1.363063
     5  O   -1.123864
     6  Ca   1.356141
     7  P    0.680218
     8  Ca   1.503079
     9  O   -0.742647
 Sum of Mulliken charges=   1.00000
 Electronic spatial extent (au):  <R**2>=  2764.7356
 Charge=     1.0000 electrons
 Dipole moment (field-independent basis, Debye):
    X=    -0.3515    Y=    -7.6356    Z=     0.0031  Tot=     7.6437
 Quadrupole moment (field-independent basis, Debye-Ang):
   XX=   -63.3766   YY=   -57.0910   ZZ=   -77.2560
   XY=   -23.1673   XZ=     0.0004   YZ=     0.0114
 Traceless Quadrupole moment (field-independent basis, Debye-Ang):
   XX=     2.5312   YY=     8.8169   ZZ=   -11.3481
   XY=   -23.1673   XZ=     0.0004   YZ=     0.0114
 Octapole moment (field-independent basis, Debye-Ang**2):
  XXX=   107.9050  YYY=   -38.0025  ZZZ=    -0.0011  XYY=   -27.7831
  XXY=  -109.4963  XXZ=    -0.0059  XZZ=    -2.9062  YZZ=    -3.4920
  YYZ=     0.0275  XYZ=     0.0191
 Hexadecapole moment (field-independent basis, Debye-Ang**3):
 XXXX= -2334.2253 YYYY=  -569.8269 ZZZZ=  -129.5742 XXXY=  -483.7314
 XXXZ=     0.0367 YYYX=    -2.9664 YYYZ=     0.0263 ZZZX=    -0.0048
 ZZZY=     0.0351 XXYY=  -576.1700 XXZZ=  -421.9463 YYZZ=  -130.0754
 XXYZ=     0.0486 YYXZ=     0.0201 ZZXY=    -6.1424
 N-N= 9.783505055896D+02 E-N=-8.456698811171D+03  KE= 2.742195013922D+03
 Merz-Kollman atomic radii used.
 Read replacement radii for each type of atom:
 Rad(20) =   1.188000000000D+00
 Atom Element Radius
    1     8    1.40
    2     8    1.40
    3     8    1.40
    4    20    1.19
    5     8    1.40
    6    20    1.19
    7    15    1.80
    8    20    1.19
    9     8    1.40

 **********************************************************************

            Electrostatic Properties Using The SCF Density

 **********************************************************************

       Atomic Center    1 is at  -3.410681 -0.653620  0.000020
       Atomic Center    2 is at   0.821839 -0.879627  0.778360
       Atomic Center    3 is at   0.822359 -0.881467 -0.777140
       Atomic Center    4 is at   3.076379 -0.693436 -0.000330
       Atomic Center    5 is at   2.874348  1.416454 -0.000450
       Atomic Center    6 is at   0.725558  1.518792  0.000440
       Atomic Center    7 is at  -3.170892  0.866680 -0.000210
       Atomic Center    8 is at  -1.221510 -1.492279  0.000140
       Atomic Center    9 is at  -1.613512  1.040541 -0.001020
     869 points will be used for fitting atomic charges
 Fitting point charges to eletrostatic potential
 Charges from ESP fit, RMS=   0.00488 RRMS=   0.03304:
 Charge=   1.00000 Dipole=    -0.1013    -7.7036     0.0038 Tot=     7.7043
              1
     1  O   -0.648705
     2  O   -0.865343
     3  O   -0.865485
     4  Ca   1.627511
     5  O   -1.476545
     6  Ca   1.663752
     7  P    0.599755
     8  Ca   1.730391
     9  O   -0.765331
 -----------------------------------------------------------------

              Electrostatic Properties (Atomic Units)

 -----------------------------------------------------------------
    Center     Electric         -------- Electric Field --------
               Potential          X             Y             Z
 -----------------------------------------------------------------
    1 Atom    -22.175257
    2 Atom    -22.188387
    3 Atom    -22.188387
    4 Atom    -80.060467
    5 Atom    -22.360304
    6 Atom    -80.075534
    7 Atom    -53.900310
    8 Atom    -80.007488
    9 Atom    -22.165578
 -----------------------------------------------------------------
 1\1\GINC-N031\SP\RB3LYP\6-31+G(d,p)\Ca3O5P1(1+)\TIMN\12-Jun-2015\0\\# 
 b3lyp/6-31+G(d,p) int=ultrafine pop=(ReadRadii,MK)\\mol_17.27.43.pdbcc
 cc_plusQ.z58509.zip.xyz\\1,1\O,0,-3.41068,-0.65362,0.00002\O,0,0.82184
 ,-0.87963,0.77836\O,0,0.82236,-0.88147,-0.77714\Ca,0,3.07638,-0.69344,
 -0.00033\O,0,2.87435,1.41645,-0.00045\Ca,0,0.72556,1.51879,0.00044\P,0
 ,-3.17089,0.86668,-0.00021\Ca,0,-1.22151,-1.49228,0.00014\O,0,-1.61351
 ,1.04054,-0.00102\\Version=EM64T-G03RevE.01\State=1-A\HF=-2750.1992276
 \RMSD=8.777e-05\Thermal=0.\Dipole=-0.1382868,-3.0040776,0.0012255\PG=C
 01 [X(Ca3O5P1)]\\@


 MARY HAD A LITTLE LAMB
      HIS FEET WERE BLACK AS SOOT,
           AND EVERYWHERE THAT MARY WENT
                HIS SOOTY FOOT HE PUT.

                    -- NONAME
 Job cpu time:  0 days  0 hours  1 minutes 55.8 seconds.
 File lengths (MBytes):  RWF=     36 Int=      0 D2E=      0 Chk=     11 Scr=      1
 Normal termination of Gaussian 03 at Fri Jun 12 18:06:34 2015.
