 Entering Gaussian System, Link 0=/home/timn/tmp/g03.e01/g03
 Input=mol_17.28.34.pdbc_plusQ.z58558.zip.xyz.gjf
 Output=mol_17.28.34.pdbc_plusQ.z58558.zip.xyz.out
 Initial command:
 /home/timn/tmp/g03.e01/l1.exe /home/timn/tmp/g03.e01/Gau-13530.inp -scrdir=/home/timn/tmp/g03.e01/
 Default is to use a total of   2 processors:
                                2 via shared-memory
                                1 via Linda
 Entering Link 1 = /home/timn/tmp/g03.e01/l1.exe PID=     13531.
  
 Copyright (c) 1988,1990,1992,1993,1995,1998,2003,2004,2007, Gaussian, Inc.
                  All Rights Reserved.
  
 This is the Gaussian(R) 03 program.  It is based on the
 the Gaussian(R) 98 system (copyright 1998, Gaussian, Inc.),
 the Gaussian(R) 94 system (copyright 1995, Gaussian, Inc.),
 the Gaussian 92(TM) system (copyright 1992, Gaussian, Inc.),
 the Gaussian 90(TM) system (copyright 1990, Gaussian, Inc.),
 the Gaussian 88(TM) system (copyright 1988, Gaussian, Inc.),
 the Gaussian 86(TM) system (copyright 1986, Carnegie Mellon
 University), and the Gaussian 82(TM) system (copyright 1983,
 Carnegie Mellon University). Gaussian is a federally registered
 trademark of Gaussian, Inc.
  
 This software contains proprietary and confidential information,
 including trade secrets, belonging to Gaussian, Inc.
  
 This software is provided under written license and may be
 used, copied, transmitted, or stored only in accord with that
 written license.
  
 The following legend is applicable only to US Government
 contracts under FAR:
  
                    RESTRICTED RIGHTS LEGEND
  
 Use, reproduction and disclosure by the US Government is
 subject to restrictions as set forth in subparagraphs (a)
 and (c) of the Commercial Computer Software - Restricted
 Rights clause in FAR 52.227-19.
  
 Gaussian, Inc.
 340 Quinnipiac St., Bldg. 40, Wallingford CT 06492
  
  
 ---------------------------------------------------------------
 Warning -- This program may not be used in any manner that
 competes with the business of Gaussian, Inc. or will provide
 assistance to any competitor of Gaussian, Inc.  The licensee
 of this program is prohibited from giving any competitor of
 Gaussian, Inc. access to this program.  By using this program,
 the user acknowledges that Gaussian, Inc. is engaged in the
 business of creating and licensing software in the field of
 computational chemistry and represents and warrants to the
 licensee that it is not a competitor of Gaussian, Inc. and that
 it will not use this program in any manner prohibited above.
 ---------------------------------------------------------------
  

 Cite this work as:
 Gaussian 03, Revision E.01,
 M. J. Frisch, G. W. Trucks, H. B. Schlegel, G. E. Scuseria, 
 M. A. Robb, J. R. Cheeseman, J. A. Montgomery, Jr., T. Vreven, 
 K. N. Kudin, J. C. Burant, J. M. Millam, S. S. Iyengar, J. Tomasi, 
 V. Barone, B. Mennucci, M. Cossi, G. Scalmani, N. Rega, 
 G. A. Petersson, H. Nakatsuji, M. Hada, M. Ehara, K. Toyota, 
 R. Fukuda, J. Hasegawa, M. Ishida, T. Nakajima, Y. Honda, O. Kitao, 
 H. Nakai, M. Klene, X. Li, J. E. Knox, H. P. Hratchian, J. B. Cross, 
 V. Bakken, C. Adamo, J. Jaramillo, R. Gomperts, R. E. Stratmann, 
 O. Yazyev, A. J. Austin, R. Cammi, C. Pomelli, J. W. Ochterski, 
 P. Y. Ayala, K. Morokuma, G. A. Voth, P. Salvador, J. J. Dannenberg, 
 V. G. Zakrzewski, S. Dapprich, A. D. Daniels, M. C. Strain, 
 O. Farkas, D. K. Malick, A. D. Rabuck, K. Raghavachari, 
 J. B. Foresman, J. V. Ortiz, Q. Cui, A. G. Baboul, S. Clifford, 
 J. Cioslowski, B. B. Stefanov, G. Liu, A. Liashenko, P. Piskorz, 
 I. Komaromi, R. L. Martin, D. J. Fox, T. Keith, M. A. Al-Laham, 
 C. Y. Peng, A. Nanayakkara, M. Challacombe, P. M. W. Gill, 
 B. Johnson, W. Chen, M. W. Wong, C. Gonzalez, and J. A. Pople, 
 Gaussian, Inc., Wallingford CT, 2004.
 
 ******************************************
 Gaussian 03:  EM64T-G03RevE.01 11-Sep-2007
                12-Jun-2015 
 ******************************************
 %nproc=2
 Will use up to    2 processors via shared memory.
 Default route:  MP2=Direct MaxDisk=2000MB
 ----------------------------------------------------
 # b3lyp/6-31+G(d,p) int=ultrafine pop=(ReadRadii,MK)
 ----------------------------------------------------

 Warning!  SCF SP cutoffs with diffuse functions may be unreliable.
 Consider SCF=Tight

 1/38=1/1;
 2/17=6,18=5,40=1/2;
 3/5=1,6=6,7=111,11=2,16=1,25=1,30=1,74=-5,75=5/1,2,3;
 4//1;
 5/5=2,32=1,38=5/2;
 6/7=2,8=2,9=2,10=2,15=8,20=101,28=1/1,2;
 99/5=1,9=1/99;
 --------------------------------------
 mol_17.28.34.pdbc_plusQ.z58558.zip.xyz
 --------------------------------------
 Symbolic Z-matrix:
 Charge =  1 Multiplicity = 1
 O                     1.7257   -1.48972  -0.00023 
 O                    -0.56497   1.10584  -0.00013 
 Ca                   -2.81848   0.99392  -0.00006 
 O                    -2.71336  -1.08796   0.78505 
 O                    -2.71345  -1.08812  -0.78477 
 Ca                   -0.59855  -1.30829   0.00002 
 P                     3.19477  -1.02888  -0.00005 
 Ca                    1.43268   1.90106  -0.00001 
 O                     3.23677   0.52239   0.00031 
 
                          Input orientation:                          
 ---------------------------------------------------------------------
 Center     Atomic     Atomic              Coordinates (Angstroms)
 Number     Number      Type              X           Y           Z
 ---------------------------------------------------------------------
    1          8             0        1.725700   -1.489720   -0.000230
    2          8             0       -0.564970    1.105840   -0.000130
    3         20             0       -2.818480    0.993920   -0.000060
    4          8             0       -2.713360   -1.087960    0.785050
    5          8             0       -2.713450   -1.088120   -0.784770
    6         20             0       -0.598550   -1.308290    0.000020
    7         15             0        3.194770   -1.028880   -0.000050
    8         20             0        1.432680    1.901060   -0.000010
    9          8             0        3.236770    0.522390    0.000310
 ---------------------------------------------------------------------
                    Distance matrix (angstroms):
                    1          2          3          4          5
     1  O    0.000000
     2  O    3.461806   0.000000
     3  Ca   5.178614   2.256288   0.000000
     4  O    4.525851   3.169360   2.227481   0.000000
     5  O    4.525797   3.169398   2.227485   1.569820   0.000000
     6  Ca   2.331320   2.414364   3.198165   2.266548   2.266533
     7  P    1.539656   4.323503   6.344359   5.960358   5.960399
     8  Ca   3.403417   2.150112   4.346868   5.171093   5.171213
     9  O    2.516331   3.846250   6.073582   6.213943   6.214114
                    6          7          8          9
     6  Ca   0.000000
     7  P    3.803597   0.000000
     8  Ca   3.798134   3.418992   0.000000
     9  O    4.249832   1.551839   2.270566   0.000000
 Stoichiometry    Ca3O5P(1+)
 Framework group  C1[X(Ca3O5P)]
 Deg. of freedom    21
 Full point group                 C1
 Largest Abelian subgroup         C1      NOp   1
 Largest concise Abelian subgroup C1      NOp   1
                         Standard orientation:                         
 ---------------------------------------------------------------------
 Center     Atomic     Atomic              Coordinates (Angstroms)
 Number     Number      Type              X           Y           Z
 ---------------------------------------------------------------------
    1          8             0        1.725698   -1.489722   -0.000231
    2          8             0       -0.564970    1.105840   -0.000131
    3         20             0       -2.818480    0.993922   -0.000061
    4          8             0       -2.713361   -1.087958    0.785049
    5          8             0       -2.713451   -1.088118   -0.784771
    6         20             0       -0.598552   -1.308290    0.000019
    7         15             0        3.194769   -1.028883   -0.000051
    8         20             0        1.432681    1.901059   -0.000011
    9          8             0        3.236770    0.522387    0.000309
 ---------------------------------------------------------------------
 Rotational constants (GHZ):      1.2569225      0.4192445      0.3222851
 Standard basis: 6-31+G(d,p) (6D, 7F)
 There are   199 symmetry adapted basis functions of A   symmetry.
 Integral buffers will be    131072 words long.
 Raffenetti 2 integral format.
 Two-electron integral symmetry is turned on.
   199 basis functions,   456 primitive gaussians,   199 cartesian basis functions
    57 alpha electrons       57 beta electrons
       nuclear repulsion energy       946.9718982267 Hartrees.
 NAtoms=    9 NActive=    9 NUniq=    9 SFac= 7.50D-01 NAtFMM=   80 NAOKFM=F Big=F
 One-electron integrals computed using PRISM.
 NBasis=   199 RedAO= T  NBF=   199
 NBsUse=   199 1.00D-06 NBFU=   199
 Harris functional with IExCor=  402 diagonalized for initial guess.
 ExpMin= 7.10D-03 ExpMax= 3.53D+04 ExpMxC= 5.30D+03 IAcc=3 IRadAn=         5 AccDes= 0.00D+00
 HarFok:  IExCor= 402 AccDes= 0.00D+00 IRadAn=         5 IDoV=1
 ScaDFX=  1.000000  1.000000  1.000000  1.000000
 Initial guess orbital symmetries:
       Occupied  (A) (A) (A) (A) (A) (A) (A) (A) (A) (A) (A) (A)
                 (A) (A) (A) (A) (A) (A) (A) (A) (A) (A) (A) (A)
                 (A) (A) (A) (A) (A) (A) (A) (A) (A) (A) (A) (A)
                 (A) (A) (A) (A) (A) (A) (A) (A) (A) (A) (A) (A)
                 (A) (A) (A) (A) (A) (A) (A) (A) (A)
       Virtual   (A) (A) (A) (A) (A) (A) (A) (A) (A) (A) (A) (A)
                 (A) (A) (A) (A) (A) (A) (A) (A) (A) (A) (A) (A)
                 (A) (A) (A) (A) (A) (A) (A) (A) (A) (A) (A) (A)
                 (A) (A) (A) (A) (A) (A) (A) (A) (A) (A) (A) (A)
                 (A) (A) (A) (A) (A) (A) (A) (A) (A) (A) (A) (A)
                 (A) (A) (A) (A) (A) (A) (A) (A) (A) (A) (A) (A)
                 (A) (A) (A) (A) (A) (A) (A) (A) (A) (A) (A) (A)
                 (A) (A) (A) (A) (A) (A) (A) (A) (A) (A) (A) (A)
                 (A) (A) (A) (A) (A) (A) (A) (A) (A) (A) (A) (A)
                 (A) (A) (A) (A) (A) (A) (A) (A) (A) (A) (A) (A)
                 (A) (A) (A) (A) (A) (A) (A) (A) (A) (A) (A) (A)
                 (A) (A) (A) (A) (A) (A) (A) (A) (A) (A)
 The electronic state of the initial guess is 1-A.
 Requested convergence on RMS density matrix=1.00D-04 within 128 cycles.
 Requested convergence on MAX density matrix=1.00D-02.
 Requested convergence on             energy=1.00D-02.
 No special actions if energy rises.
 EnCoef did     1 forward-backward iterations
 SCF Done:  E(RB+HF-LYP) =  -2750.20951879     A.U. after    8 cycles
             Convg  =    0.5018D-04             -V/T =  2.0029
             S**2   =   0.0000

 **********************************************************************

            Population analysis using the SCF density.

 **********************************************************************

 Orbital symmetries:
       Occupied  (A) (A) (A) (A) (A) (A) (A) (A) (A) (A) (A) (A)
                 (A) (A) (A) (A) (A) (A) (A) (A) (A) (A) (A) (A)
                 (A) (A) (A) (A) (A) (A) (A) (A) (A) (A) (A) (A)
                 (A) (A) (A) (A) (A) (A) (A) (A) (A) (A) (A) (A)
                 (A) (A) (A) (A) (A) (A) (A) (A) (A)
       Virtual   (A) (A) (A) (A) (A) (A) (A) (A) (A) (A) (A) (A)
                 (A) (A) (A) (A) (A) (A) (A) (A) (A) (A) (A) (A)
                 (A) (A) (A) (A) (A) (A) (A) (A) (A) (A) (A) (A)
                 (A) (A) (A) (A) (A) (A) (A) (A) (A) (A) (A) (A)
                 (A) (A) (A) (A) (A) (A) (A) (A) (A) (A) (A) (A)
                 (A) (A) (A) (A) (A) (A) (A) (A) (A) (A) (A) (A)
                 (A) (A) (A) (A) (A) (A) (A) (A) (A) (A) (A) (A)
                 (A) (A) (A) (A) (A) (A) (A) (A) (A) (A) (A) (A)
                 (A) (A) (A) (A) (A) (A) (A) (A) (A) (A) (A) (A)
                 (A) (A) (A) (A) (A) (A) (A) (A) (A) (A) (A) (A)
                 (A) (A) (A) (A) (A) (A) (A) (A) (A) (A) (A) (A)
                 (A) (A) (A) (A) (A) (A) (A) (A) (A) (A)
 The electronic state is 1-A.
 Alpha  occ. eigenvalues -- -145.53392-145.48024-145.44983 -77.30022 -19.27961
 Alpha  occ. eigenvalues --  -19.27493 -19.19911 -19.19906 -19.17873 -15.60295
 Alpha  occ. eigenvalues --  -15.54890 -15.51860 -12.73551 -12.73504 -12.73331
 Alpha  occ. eigenvalues --  -12.68098 -12.68071 -12.67999 -12.65103 -12.65066
 Alpha  occ. eigenvalues --  -12.64936  -6.75542  -4.91986  -4.91758  -4.91322
 Alpha  occ. eigenvalues --   -1.97516  -1.92193  -1.89243  -1.25375  -1.25255
 Alpha  occ. eigenvalues --   -1.24379  -1.20508  -1.19791  -1.19393  -1.17221
 Alpha  occ. eigenvalues --   -1.17085  -1.16767  -1.13774  -1.08261  -1.02445
 Alpha  occ. eigenvalues --   -0.92458  -0.83747  -0.67359  -0.56794  -0.52846
 Alpha  occ. eigenvalues --   -0.52592  -0.45481  -0.43604  -0.43399  -0.41977
 Alpha  occ. eigenvalues --   -0.41116  -0.40754  -0.37987  -0.37309  -0.36416
 Alpha  occ. eigenvalues --   -0.30522  -0.28909
 Alpha virt. eigenvalues --   -0.21325  -0.19768  -0.18063  -0.13537  -0.13440
 Alpha virt. eigenvalues --   -0.11687  -0.10902  -0.10464  -0.08651  -0.08277
 Alpha virt. eigenvalues --   -0.07167  -0.06875  -0.06458  -0.06205  -0.05656
 Alpha virt. eigenvalues --   -0.05515  -0.04723  -0.04635  -0.04612  -0.04285
 Alpha virt. eigenvalues --   -0.03761  -0.03628  -0.03454  -0.03302  -0.03129
 Alpha virt. eigenvalues --   -0.02676  -0.02580  -0.02062  -0.01583   0.00556
 Alpha virt. eigenvalues --    0.00842   0.02241   0.03294   0.03714   0.03967
 Alpha virt. eigenvalues --    0.04367   0.04684   0.05415   0.06069   0.06134
 Alpha virt. eigenvalues --    0.06476   0.07046   0.07465   0.07678   0.08276
 Alpha virt. eigenvalues --    0.08433   0.10254   0.10982   0.11252   0.11331
 Alpha virt. eigenvalues --    0.13150   0.14017   0.14945   0.15748   0.17098
 Alpha virt. eigenvalues --    0.17101   0.17938   0.19389   0.19778   0.20757
 Alpha virt. eigenvalues --    0.21387   0.22645   0.23693   0.25452   0.26726
 Alpha virt. eigenvalues --    0.27611   0.29620   0.31175   0.31676   0.31943
 Alpha virt. eigenvalues --    0.33450   0.35109   0.36309   0.37197   0.38470
 Alpha virt. eigenvalues --    0.40685   0.43726   0.46246   0.48319   0.53213
 Alpha virt. eigenvalues --    0.53707   0.56106   0.56510   0.58891   0.62029
 Alpha virt. eigenvalues --    0.69407   0.83816   0.89908   0.94253   1.03090
 Alpha virt. eigenvalues --    1.06346   1.07899   1.08671   1.10164   1.10507
 Alpha virt. eigenvalues --    1.15088   1.18022   1.18477   1.19141   1.20881
 Alpha virt. eigenvalues --    1.20958   1.24164   1.25784   1.29660   1.32697
 Alpha virt. eigenvalues --    1.38073   1.41666   1.43430   1.52001   1.54160
 Alpha virt. eigenvalues --    1.55004   1.66086   1.66892   1.68534   1.70568
 Alpha virt. eigenvalues --    1.71035   1.76795   1.77264   1.77421   1.79909
 Alpha virt. eigenvalues --    1.82584   1.84463   1.85078   1.85617   1.86856
 Alpha virt. eigenvalues --    1.87732   1.92702   1.94522   2.01977   2.09746
 Alpha virt. eigenvalues --    2.16975   2.21958   2.24288   2.53609   2.68667
 Alpha virt. eigenvalues --    3.07106   3.39452   3.84582   3.90247   3.93988
 Alpha virt. eigenvalues --    4.13717   4.14729
          Condensed to atoms (all electrons):
              1          2          3          4          5          6
     1  O    8.825504  -0.010496   0.009576  -0.000635  -0.000634   0.043537
     2  O   -0.010496   9.017490   0.105153  -0.004351  -0.004350   0.054357
     3  Ca   0.009576   0.105153  18.303819   0.102991   0.102994  -0.047634
     4  O   -0.000635  -0.004351   0.102991   8.484157  -0.032732   0.102280
     5  O   -0.000634  -0.004350   0.102994  -0.032732   8.484154   0.102284
     6  Ca   0.043537   0.054357  -0.047634   0.102280   0.102284  18.336685
     7  P   -0.110285  -0.005765  -0.014940  -0.000226  -0.000224   0.008661
     8  Ca   0.003450   0.192277  -0.009777  -0.000353  -0.000360  -0.006135
     9  O   -0.082421   0.003540   0.004341   0.000043   0.000043  -0.000307
              7          8          9
     1  O   -0.110285   0.003450  -0.082421
     2  O   -0.005765   0.192277   0.003540
     3  Ca  -0.014940  -0.009777   0.004341
     4  O   -0.000226  -0.000353   0.000043
     5  O   -0.000224  -0.000360   0.000043
     6  Ca   0.008661  -0.006135  -0.000307
     7  P   14.540714  -0.033611  -0.050155
     8  Ca  -0.033611  18.240543   0.086645
     9  O   -0.050155   0.086645   8.753367
 Mulliken atomic charges:
              1
     1  O   -0.677595
     2  O   -1.347855
     3  Ca   1.443477
     4  O   -0.651174
     5  O   -0.651177
     6  Ca   1.406271
     7  P    0.665831
     8  Ca   1.527320
     9  O   -0.715098
 Sum of Mulliken charges=   1.00000
 Atomic charges with hydrogens summed into heavy atoms:
              1
     1  O   -0.677595
     2  O   -1.347855
     3  Ca   1.443477
     4  O   -0.651174
     5  O   -0.651177
     6  Ca   1.406271
     7  P    0.665831
     8  Ca   1.527320
     9  O   -0.715098
 Sum of Mulliken charges=   1.00000
 Electronic spatial extent (au):  <R**2>=  2955.9187
 Charge=     1.0000 electrons
 Dipole moment (field-independent basis, Debye):
    X=     1.2586    Y=    12.1811    Z=    -0.0008  Tot=    12.2460
 Quadrupole moment (field-independent basis, Debye-Ang):
   XX=   -63.3435   YY=   -46.2141   ZZ=   -77.2349
   XY=   -15.9769   XZ=     0.0009   YZ=    -0.0013
 Traceless Quadrupole moment (field-independent basis, Debye-Ang):
   XX=    -1.0794   YY=    16.0501   ZZ=   -14.9707
   XY=   -15.9769   XZ=     0.0009   YZ=    -0.0013
 Octapole moment (field-independent basis, Debye-Ang**2):
  XXX=   -86.9948  YYY=    79.7744  ZZZ=    -0.0024  XYY=    20.7406
  XXY=   125.5768  XXZ=    -0.0180  XZZ=     8.9381  YZZ=    12.7738
  YYZ=     0.0023  XYZ=    -0.0055
 Hexadecapole moment (field-independent basis, Debye-Ang**3):
 XXXX= -2460.3764 YYYY=  -630.6013 ZZZZ=  -129.1367 XXXY=  -382.7107
 XXXZ=    -0.0011 YYYX=    77.1646 YYYZ=    -0.0050 ZZZX=     0.0079
 ZZZY=     0.0006 XXYY=  -482.3167 XXZZ=  -455.1311 YYZZ=  -148.7326
 XXYZ=    -0.0157 YYXZ=     0.0039 ZZXY=   -13.7239
 N-N= 9.469718982267D+02 E-N=-8.395514729110D+03  KE= 2.742216825608D+03
 Merz-Kollman atomic radii used.
 Read replacement radii for each type of atom:
 Rad(20) =   1.188000000000D+00
 Atom Element Radius
    1     8    1.40
    2     8    1.40
    3    20    1.19
    4     8    1.40
    5     8    1.40
    6    20    1.19
    7    15    1.80
    8    20    1.19
    9     8    1.40

 **********************************************************************

            Electrostatic Properties Using The SCF Density

 **********************************************************************

       Atomic Center    1 is at   1.725698 -1.489722 -0.000231
       Atomic Center    2 is at  -0.564970  1.105840 -0.000131
       Atomic Center    3 is at  -2.818480  0.993922 -0.000061
       Atomic Center    4 is at  -2.713361 -1.087958  0.785049
       Atomic Center    5 is at  -2.713451 -1.088118 -0.784771
       Atomic Center    6 is at  -0.598552 -1.308290  0.000019
       Atomic Center    7 is at   3.194769 -1.028883 -0.000051
       Atomic Center    8 is at   1.432681  1.901059 -0.000011
       Atomic Center    9 is at   3.236770  0.522387  0.000309
     886 points will be used for fitting atomic charges
 Fitting point charges to eletrostatic potential
 Charges from ESP fit, RMS=   0.00468 RRMS=   0.03163:
 Charge=   1.00000 Dipole=     1.3126    12.3895    -0.0009 Tot=    12.4589
              1
     1  O   -0.669172
     2  O   -1.743191
     3  Ca   1.685439
     4  O   -0.773565
     5  O   -0.773556
     6  Ca   1.677933
     7  P    0.572517
     8  Ca   1.741735
     9  O   -0.718139
 -----------------------------------------------------------------

              Electrostatic Properties (Atomic Units)

 -----------------------------------------------------------------
    Center     Electric         -------- Electric Field --------
               Potential          X             Y             Z
 -----------------------------------------------------------------
    1 Atom    -22.185050
    2 Atom    -22.285580
    3 Atom    -80.060371
    4 Atom    -22.271007
    5 Atom    -22.271004
    6 Atom    -80.090726
    7 Atom    -53.919990
    8 Atom    -80.006626
    9 Atom    -22.189431
 -----------------------------------------------------------------
 1\1\GINC-N033\SP\RB3LYP\6-31+G(d,p)\Ca3O5P1(1+)\TIMN\12-Jun-2015\0\\# 
 b3lyp/6-31+G(d,p) int=ultrafine pop=(ReadRadii,MK)\\mol_17.28.34.pdbc_
 plusQ.z58558.zip.xyz\\1,1\O,0,1.7257,-1.48972,-0.00023\O,0,-0.56497,1.
 10584,-0.00013\Ca,0,-2.81848,0.99392,-0.00006\O,0,-2.71336,-1.08796,0.
 78505\O,0,-2.71345,-1.08812,-0.78477\Ca,0,-0.59855,-1.30829,0.00002\P,
 0,3.19477,-1.02888,-0.00005\Ca,0,1.43268,1.90106,-0.00001\O,0,3.23677,
 0.52239,0.00031\\Version=EM64T-G03RevE.01\State=1-A\HF=-2750.2095188\R
 MSD=5.018e-05\Thermal=0.\Dipole=0.4951665,4.7924164,-0.0003065\PG=C01 
 [X(Ca3O5P1)]\\@


 BLESSED ARE THOSE WHO NOUGHT EXPECT,
 FOR THEY SHALL NOT BE DISAPPOINTED..  WALCOT - ODE TO PITT
 Job cpu time:  0 days  0 hours  1 minutes 51.9 seconds.
 File lengths (MBytes):  RWF=     36 Int=      0 D2E=      0 Chk=     11 Scr=      1
 Normal termination of Gaussian 03 at Fri Jun 12 18:09:48 2015.
