 Entering Gaussian System, Link 0=/home/timn/tmp/g03.e01/g03
 Input=mol_17.27.21.pdbccc_plusQ.z58489.zip.xyz.gjf
 Output=mol_17.27.21.pdbccc_plusQ.z58489.zip.xyz.out
 Initial command:
 /home/timn/tmp/g03.e01/l1.exe /home/timn/tmp/g03.e01/Gau-20584.inp -scrdir=/home/timn/tmp/g03.e01/
 Default is to use a total of   2 processors:
                                2 via shared-memory
                                1 via Linda
 Entering Link 1 = /home/timn/tmp/g03.e01/l1.exe PID=     20586.
  
 Copyright (c) 1988,1990,1992,1993,1995,1998,2003,2004,2007, Gaussian, Inc.
                  All Rights Reserved.
  
 This is the Gaussian(R) 03 program.  It is based on the
 the Gaussian(R) 98 system (copyright 1998, Gaussian, Inc.),
 the Gaussian(R) 94 system (copyright 1995, Gaussian, Inc.),
 the Gaussian 92(TM) system (copyright 1992, Gaussian, Inc.),
 the Gaussian 90(TM) system (copyright 1990, Gaussian, Inc.),
 the Gaussian 88(TM) system (copyright 1988, Gaussian, Inc.),
 the Gaussian 86(TM) system (copyright 1986, Carnegie Mellon
 University), and the Gaussian 82(TM) system (copyright 1983,
 Carnegie Mellon University). Gaussian is a federally registered
 trademark of Gaussian, Inc.
  
 This software contains proprietary and confidential information,
 including trade secrets, belonging to Gaussian, Inc.
  
 This software is provided under written license and may be
 used, copied, transmitted, or stored only in accord with that
 written license.
  
 The following legend is applicable only to US Government
 contracts under FAR:
  
                    RESTRICTED RIGHTS LEGEND
  
 Use, reproduction and disclosure by the US Government is
 subject to restrictions as set forth in subparagraphs (a)
 and (c) of the Commercial Computer Software - Restricted
 Rights clause in FAR 52.227-19.
  
 Gaussian, Inc.
 340 Quinnipiac St., Bldg. 40, Wallingford CT 06492
  
  
 ---------------------------------------------------------------
 Warning -- This program may not be used in any manner that
 competes with the business of Gaussian, Inc. or will provide
 assistance to any competitor of Gaussian, Inc.  The licensee
 of this program is prohibited from giving any competitor of
 Gaussian, Inc. access to this program.  By using this program,
 the user acknowledges that Gaussian, Inc. is engaged in the
 business of creating and licensing software in the field of
 computational chemistry and represents and warrants to the
 licensee that it is not a competitor of Gaussian, Inc. and that
 it will not use this program in any manner prohibited above.
 ---------------------------------------------------------------
  

 Cite this work as:
 Gaussian 03, Revision E.01,
 M. J. Frisch, G. W. Trucks, H. B. Schlegel, G. E. Scuseria, 
 M. A. Robb, J. R. Cheeseman, J. A. Montgomery, Jr., T. Vreven, 
 K. N. Kudin, J. C. Burant, J. M. Millam, S. S. Iyengar, J. Tomasi, 
 V. Barone, B. Mennucci, M. Cossi, G. Scalmani, N. Rega, 
 G. A. Petersson, H. Nakatsuji, M. Hada, M. Ehara, K. Toyota, 
 R. Fukuda, J. Hasegawa, M. Ishida, T. Nakajima, Y. Honda, O. Kitao, 
 H. Nakai, M. Klene, X. Li, J. E. Knox, H. P. Hratchian, J. B. Cross, 
 V. Bakken, C. Adamo, J. Jaramillo, R. Gomperts, R. E. Stratmann, 
 O. Yazyev, A. J. Austin, R. Cammi, C. Pomelli, J. W. Ochterski, 
 P. Y. Ayala, K. Morokuma, G. A. Voth, P. Salvador, J. J. Dannenberg, 
 V. G. Zakrzewski, S. Dapprich, A. D. Daniels, M. C. Strain, 
 O. Farkas, D. K. Malick, A. D. Rabuck, K. Raghavachari, 
 J. B. Foresman, J. V. Ortiz, Q. Cui, A. G. Baboul, S. Clifford, 
 J. Cioslowski, B. B. Stefanov, G. Liu, A. Liashenko, P. Piskorz, 
 I. Komaromi, R. L. Martin, D. J. Fox, T. Keith, M. A. Al-Laham, 
 C. Y. Peng, A. Nanayakkara, M. Challacombe, P. M. W. Gill, 
 B. Johnson, W. Chen, M. W. Wong, C. Gonzalez, and J. A. Pople, 
 Gaussian, Inc., Wallingford CT, 2004.
 
 ******************************************
 Gaussian 03:  EM64T-G03RevE.01 11-Sep-2007
                12-Jun-2015 
 ******************************************
 %nproc=2
 Will use up to    2 processors via shared memory.
 Default route:  MP2=Direct MaxDisk=2000MB
 ----------------------------------------------------
 # b3lyp/6-31+G(d,p) int=ultrafine pop=(ReadRadii,MK)
 ----------------------------------------------------

 Warning!  SCF SP cutoffs with diffuse functions may be unreliable.
 Consider SCF=Tight

 1/38=1/1;
 2/17=6,18=5,40=1/2;
 3/5=1,6=6,7=111,11=2,16=1,25=1,30=1,74=-5,75=5/1,2,3;
 4//1;
 5/5=2,32=1,38=5/2;
 6/7=2,8=2,9=2,10=2,15=8,20=101,28=1/1,2;
 99/5=1,9=1/99;
 ----------------------------------------
 mol_17.27.21.pdbccc_plusQ.z58489.zip.xyz
 ----------------------------------------
 Symbolic Z-matrix:
 Charge =  1 Multiplicity = 1
 O                    -1.71586  -0.44786  -1.15438 
 O                     2.90218  -1.10723  -0.15351 
 Ca                    2.8284    0.92028   0.47368 
 O                     0.61154   0.98222   0.0004 
 Ca                   -1.30296   1.90339  -0.40889 
 O                    -2.61477   0.3914    1.05484 
 P                    -1.97381  -0.75446   0.31934 
 O                    -1.31557  -1.96941   0.87886 
 Ca                    0.80791  -1.39747  -0.55478 
 
                          Input orientation:                          
 ---------------------------------------------------------------------
 Center     Atomic     Atomic              Coordinates (Angstroms)
 Number     Number      Type              X           Y           Z
 ---------------------------------------------------------------------
    1          8             0       -1.715860   -0.447860   -1.154380
    2          8             0        2.902180   -1.107230   -0.153510
    3         20             0        2.828400    0.920280    0.473680
    4          8             0        0.611540    0.982220    0.000400
    5         20             0       -1.302960    1.903390   -0.408890
    6          8             0       -2.614770    0.391400    1.054840
    7         15             0       -1.973810   -0.754460    0.319340
    8          8             0       -1.315570   -1.969410    0.878860
    9         20             0        0.807910   -1.397470   -0.554780
 ---------------------------------------------------------------------
                    Distance matrix (angstroms):
                    1          2          3          4          5
     1  O    0.000000
     2  O    4.771038   0.000000
     3  Ca   5.017239   2.123584   0.000000
     4  O    2.965710   3.104275   2.267664   0.000000
     5  Ca   2.500923   5.178055   4.337461   2.163650   0.000000
     6  O    2.528448   5.843179   5.499596   3.445285   2.479811
     7  P    1.527217   4.911549   5.088202   3.130785   2.836287
     8  O    2.570878   4.427026   5.068231   3.632845   4.081304
     9  Ca   2.762371   2.152028   3.242233   2.451471   3.920808
                    6          7          8          9
     6  O    0.000000
     7  P    1.504920   0.000000
     8  O    2.700428   1.490787   0.000000
     9  Ca   4.183978   2.985886   2.625187   0.000000
 Stoichiometry    Ca3O5P(1+)
 Framework group  C1[X(Ca3O5P)]
 Deg. of freedom    21
 Full point group                 C1
 Largest Abelian subgroup         C1      NOp   1
 Largest concise Abelian subgroup C1      NOp   1
                         Standard orientation:                         
 ---------------------------------------------------------------------
 Center     Atomic     Atomic              Coordinates (Angstroms)
 Number     Number      Type              X           Y           Z
 ---------------------------------------------------------------------
    1          8             0       -1.715860   -0.447859   -1.154380
    2          8             0        2.902179   -1.107233   -0.153510
    3         20             0        2.828401    0.920277    0.473680
    4          8             0        0.611541    0.982219    0.000400
    5         20             0       -1.302958    1.903391   -0.408890
    6          8             0       -2.614770    0.391402    1.054840
    7         15             0       -1.973811   -0.754459    0.319340
    8          8             0       -1.315572   -1.969409    0.878860
    9         20             0        0.807909   -1.397471   -0.554780
 ---------------------------------------------------------------------
 Rotational constants (GHZ):      1.0987041      0.5364588      0.4088346
 Standard basis: 6-31+G(d,p) (6D, 7F)
 There are   199 symmetry adapted basis functions of A   symmetry.
 Integral buffers will be    131072 words long.
 Raffenetti 2 integral format.
 Two-electron integral symmetry is turned on.
   199 basis functions,   456 primitive gaussians,   199 cartesian basis functions
    57 alpha electrons       57 beta electrons
       nuclear repulsion energy       996.5641575263 Hartrees.
 NAtoms=    9 NActive=    9 NUniq=    9 SFac= 7.50D-01 NAtFMM=   80 NAOKFM=F Big=F
 One-electron integrals computed using PRISM.
 NBasis=   199 RedAO= T  NBF=   199
 NBsUse=   199 1.00D-06 NBFU=   199
 Harris functional with IExCor=  402 diagonalized for initial guess.
 ExpMin= 7.10D-03 ExpMax= 3.53D+04 ExpMxC= 5.30D+03 IAcc=3 IRadAn=         5 AccDes= 0.00D+00
 HarFok:  IExCor= 402 AccDes= 0.00D+00 IRadAn=         5 IDoV=1
 ScaDFX=  1.000000  1.000000  1.000000  1.000000
 Initial guess orbital symmetries:
       Occupied  (A) (A) (A) (A) (A) (A) (A) (A) (A) (A) (A) (A)
                 (A) (A) (A) (A) (A) (A) (A) (A) (A) (A) (A) (A)
                 (A) (A) (A) (A) (A) (A) (A) (A) (A) (A) (A) (A)
                 (A) (A) (A) (A) (A) (A) (A) (A) (A) (A) (A) (A)
                 (A) (A) (A) (A) (A) (A) (A) (A) (A)
       Virtual   (A) (A) (A) (A) (A) (A) (A) (A) (A) (A) (A) (A)
                 (A) (A) (A) (A) (A) (A) (A) (A) (A) (A) (A) (A)
                 (A) (A) (A) (A) (A) (A) (A) (A) (A) (A) (A) (A)
                 (A) (A) (A) (A) (A) (A) (A) (A) (A) (A) (A) (A)
                 (A) (A) (A) (A) (A) (A) (A) (A) (A) (A) (A) (A)
                 (A) (A) (A) (A) (A) (A) (A) (A) (A) (A) (A) (A)
                 (A) (A) (A) (A) (A) (A) (A) (A) (A) (A) (A) (A)
                 (A) (A) (A) (A) (A) (A) (A) (A) (A) (A) (A) (A)
                 (A) (A) (A) (A) (A) (A) (A) (A) (A) (A) (A) (A)
                 (A) (A) (A) (A) (A) (A) (A) (A) (A) (A) (A) (A)
                 (A) (A) (A) (A) (A) (A) (A) (A) (A) (A) (A) (A)
                 (A) (A) (A) (A) (A) (A) (A) (A) (A) (A)
 The electronic state of the initial guess is 1-A.
 Requested convergence on RMS density matrix=1.00D-04 within 128 cycles.
 Requested convergence on MAX density matrix=1.00D-02.
 Requested convergence on             energy=1.00D-02.
 No special actions if energy rises.
 EnCoef did     6 forward-backward iterations
 EnCoef did   100 forward-backward iterations
 EnCoef did     3 forward-backward iterations
 EnCoef did     1 forward-backward iterations
 EnCoef did   100 forward-backward iterations
 EnCoef did     2 forward-backward iterations
 EnCoef did     3 forward-backward iterations
 SCF Done:  E(RB+HF-LYP) =  -2750.22409188     A.U. after   12 cycles
             Convg  =    0.6998D-04             -V/T =  2.0029
             S**2   =   0.0000

 **********************************************************************

            Population analysis using the SCF density.

 **********************************************************************

 Orbital symmetries:
       Occupied  (A) (A) (A) (A) (A) (A) (A) (A) (A) (A) (A) (A)
                 (A) (A) (A) (A) (A) (A) (A) (A) (A) (A) (A) (A)
                 (A) (A) (A) (A) (A) (A) (A) (A) (A) (A) (A) (A)
                 (A) (A) (A) (A) (A) (A) (A) (A) (A) (A) (A) (A)
                 (A) (A) (A) (A) (A) (A) (A) (A) (A)
       Virtual   (A) (A) (A) (A) (A) (A) (A) (A) (A) (A) (A) (A)
                 (A) (A) (A) (A) (A) (A) (A) (A) (A) (A) (A) (A)
                 (A) (A) (A) (A) (A) (A) (A) (A) (A) (A) (A) (A)
                 (A) (A) (A) (A) (A) (A) (A) (A) (A) (A) (A) (A)
                 (A) (A) (A) (A) (A) (A) (A) (A) (A) (A) (A) (A)
                 (A) (A) (A) (A) (A) (A) (A) (A) (A) (A) (A) (A)
                 (A) (A) (A) (A) (A) (A) (A) (A) (A) (A) (A) (A)
                 (A) (A) (A) (A) (A) (A) (A) (A) (A) (A) (A) (A)
                 (A) (A) (A) (A) (A) (A) (A) (A) (A) (A) (A) (A)
                 (A) (A) (A) (A) (A) (A) (A) (A) (A) (A) (A) (A)
                 (A) (A) (A) (A) (A) (A) (A) (A) (A) (A) (A) (A)
                 (A) (A) (A) (A) (A) (A) (A) (A) (A) (A)
 The electronic state is 1-A.
 Alpha  occ. eigenvalues -- -145.55018-145.47607-145.46735 -77.37128 -19.30900
 Alpha  occ. eigenvalues --  -19.30847 -19.30658 -19.18387 -19.11096 -15.61799
 Alpha  occ. eigenvalues --  -15.54511 -15.53591 -12.75021 -12.75010 -12.74905
 Alpha  occ. eigenvalues --  -12.67751 -12.67668 -12.67591 -12.66842 -12.66779
 Alpha  occ. eigenvalues --  -12.66673  -6.82492  -4.99086  -4.98601  -4.98571
 Alpha  occ. eigenvalues --   -1.98832  -1.91813  -1.90829  -1.26938  -1.26367
 Alpha  occ. eigenvalues --   -1.25697  -1.20668  -1.19672  -1.19438  -1.18798
 Alpha  occ. eigenvalues --   -1.18622  -1.18149  -1.17511  -1.13067  -1.12241
 Alpha  occ. eigenvalues --   -0.92912  -0.85114  -0.67759  -0.59239  -0.58691
 Alpha  occ. eigenvalues --   -0.58423  -0.52174  -0.49540  -0.48539  -0.48366
 Alpha  occ. eigenvalues --   -0.44658  -0.39037  -0.37854  -0.36629  -0.30687
 Alpha  occ. eigenvalues --   -0.29196  -0.28909
 Alpha virt. eigenvalues --   -0.22755  -0.19704  -0.18653  -0.14495  -0.13326
 Alpha virt. eigenvalues --   -0.13167  -0.12507  -0.10626  -0.09403  -0.08783
 Alpha virt. eigenvalues --   -0.07948  -0.07670  -0.06652  -0.06257  -0.05514
 Alpha virt. eigenvalues --   -0.05282  -0.04787  -0.04470  -0.04325  -0.04253
 Alpha virt. eigenvalues --   -0.03978  -0.03534  -0.03317  -0.03229  -0.02557
 Alpha virt. eigenvalues --   -0.02503  -0.02029  -0.01029  -0.00411   0.00185
 Alpha virt. eigenvalues --    0.00820   0.02523   0.03228   0.03901   0.03998
 Alpha virt. eigenvalues --    0.04614   0.05157   0.05305   0.06075   0.06166
 Alpha virt. eigenvalues --    0.06710   0.07386   0.08114   0.08552   0.09081
 Alpha virt. eigenvalues --    0.09633   0.10067   0.10436   0.10742   0.11238
 Alpha virt. eigenvalues --    0.11963   0.13354   0.14207   0.14913   0.16255
 Alpha virt. eigenvalues --    0.16702   0.17840   0.18283   0.19607   0.19745
 Alpha virt. eigenvalues --    0.19991   0.21011   0.21370   0.22169   0.23634
 Alpha virt. eigenvalues --    0.24974   0.26301   0.28364   0.28566   0.30338
 Alpha virt. eigenvalues --    0.30734   0.34629   0.35870   0.36630   0.37091
 Alpha virt. eigenvalues --    0.38952   0.40156   0.44704   0.47807   0.50149
 Alpha virt. eigenvalues --    0.51798   0.54366   0.57579   0.61121   0.63522
 Alpha virt. eigenvalues --    0.74437   0.84342   0.85477   0.89159   0.93971
 Alpha virt. eigenvalues --    1.03950   1.07921   1.08722   1.09403   1.12022
 Alpha virt. eigenvalues --    1.13255   1.14071   1.14451   1.16663   1.16960
 Alpha virt. eigenvalues --    1.18726   1.20699   1.22444   1.25726   1.26875
 Alpha virt. eigenvalues --    1.32281   1.38171   1.39718   1.41592   1.51565
 Alpha virt. eigenvalues --    1.58207   1.60787   1.65689   1.67876   1.70638
 Alpha virt. eigenvalues --    1.72066   1.72991   1.75810   1.78780   1.79901
 Alpha virt. eigenvalues --    1.83333   1.86011   1.86729   1.87468   1.88292
 Alpha virt. eigenvalues --    1.90211   1.93355   1.96289   1.98318   2.00844
 Alpha virt. eigenvalues --    2.09185   2.11084   2.18959   2.60351   2.70719
 Alpha virt. eigenvalues --    2.72576   3.34118   3.90797   3.95321   3.95493
 Alpha virt. eigenvalues --    4.00623   4.06098
          Condensed to atoms (all electrons):
              1          2          3          4          5          6
     1  O    8.639551  -0.000092  -0.004851  -0.023264   0.057214  -0.122407
     2  O   -0.000092   8.692239   0.221824  -0.022023  -0.003329  -0.000239
     3  Ca  -0.004851   0.221824  18.373804   0.085849  -0.007268  -0.005698
     4  O   -0.023264  -0.022023   0.085849   9.043187   0.177486  -0.016216
     5  Ca   0.057214  -0.003329  -0.007268   0.177486  18.264500   0.046466
     6  O   -0.122407  -0.000239  -0.005698  -0.016216   0.046466   8.619163
     7  P    0.197311   0.004365   0.024211   0.081023   0.006223   0.236171
     8  O   -0.134250  -0.000854  -0.012025  -0.025194  -0.004410  -0.133404
     9  Ca   0.026618   0.223767  -0.032134   0.034432  -0.009065  -0.010661
              7          8          9
     1  O    0.197311  -0.134250   0.026618
     2  O    0.004365  -0.000854   0.223767
     3  Ca   0.024211  -0.012025  -0.032134
     4  O    0.081023  -0.025194   0.034432
     5  Ca   0.006223  -0.004410  -0.009065
     6  O    0.236171  -0.133404  -0.010661
     7  P   13.001083   0.301015   0.002405
     8  O    0.301015   8.543808   0.056441
     9  Ca   0.002405   0.056441  18.391795
 Mulliken atomic charges:
              1
     1  O   -0.635830
     2  O   -1.115658
     3  Ca   1.356289
     4  O   -1.335280
     5  Ca   1.472184
     6  O   -0.613175
     7  P    1.146194
     8  O   -0.591127
     9  Ca   1.316402
 Sum of Mulliken charges=   1.00000
 Atomic charges with hydrogens summed into heavy atoms:
              1
     1  O   -0.635830
     2  O   -1.115658
     3  Ca   1.356289
     4  O   -1.335280
     5  Ca   1.472184
     6  O   -0.613175
     7  P    1.146194
     8  O   -0.591127
     9  Ca   1.316402
 Sum of Mulliken charges=   1.00000
 Electronic spatial extent (au):  <R**2>=  2488.7833
 Charge=     1.0000 electrons
 Dipole moment (field-independent basis, Debye):
    X=    -0.7978    Y=    12.1096    Z=    -2.5675  Tot=    12.4045
 Quadrupole moment (field-independent basis, Debye-Ang):
   XX=   -65.0032   YY=   -46.1387   ZZ=   -77.1141
   XY=    10.5986   XZ=    14.6765   YZ=     2.4386
 Traceless Quadrupole moment (field-independent basis, Debye-Ang):
   XX=    -2.2512   YY=    16.6133   ZZ=   -14.3621
   XY=    10.5986   XZ=    14.6765   YZ=     2.4386
 Octapole moment (field-independent basis, Debye-Ang**2):
  XXX=    19.8379  YYY=    77.0796  ZZZ=    -6.6053  XYY=   -28.4429
  XXY=   123.3257  XXZ=    22.8841  XZZ=    19.5383  YZZ=    12.0577
  YYZ=   -26.7897  XYZ=    23.0893
 Hexadecapole moment (field-independent basis, Debye-Ang**3):
 XXXX= -1772.1921 YYYY=  -635.9917 ZZZZ=  -254.0476 XXXY=   354.4363
 XXXZ=   160.4662 YYYX=   -76.1654 YYYZ=     9.8078 ZZZX=    31.1297
 ZZZY=     5.7093 XXYY=  -374.3349 XXZZ=  -354.9531 YYZZ=  -158.5147
 XXYZ=     1.1263 YYXZ=    35.6508 ZZXY=    -2.3941
 N-N= 9.965641575263D+02 E-N=-8.492189679846D+03  KE= 2.742182031895D+03
 Merz-Kollman atomic radii used.
 Read replacement radii for each type of atom:
 Rad(20) =   1.188000000000D+00
 Atom Element Radius
    1     8    1.40
    2     8    1.40
    3    20    1.19
    4     8    1.40
    5    20    1.19
    6     8    1.40
    7    15    1.80
    8     8    1.40
    9    20    1.19

 **********************************************************************

            Electrostatic Properties Using The SCF Density

 **********************************************************************

       Atomic Center    1 is at  -1.715860 -0.447859 -1.154380
       Atomic Center    2 is at   2.902179 -1.107233 -0.153510
       Atomic Center    3 is at   2.828401  0.920277  0.473680
       Atomic Center    4 is at   0.611541  0.982219  0.000400
       Atomic Center    5 is at  -1.302958  1.903391 -0.408890
       Atomic Center    6 is at  -2.614770  0.391402  1.054840
       Atomic Center    7 is at  -1.973811 -0.754459  0.319340
       Atomic Center    8 is at  -1.315572 -1.969409  0.878860
       Atomic Center    9 is at   0.807909 -1.397471 -0.554780
     814 points will be used for fitting atomic charges
 Fitting point charges to eletrostatic potential
 Charges from ESP fit, RMS=   0.00514 RRMS=   0.03327:
 Charge=   1.00000 Dipole=    -0.3112    12.5892    -2.6714 Tot=    12.8733
              1
     1  O   -0.863165
     2  O   -1.444523
     3  Ca   1.619081
     4  O   -1.703240
     5  Ca   1.681150
     6  O   -0.748110
     7  P    1.478917
     8  O   -0.692431
     9  Ca   1.672321
 -----------------------------------------------------------------

              Electrostatic Properties (Atomic Units)

 -----------------------------------------------------------------
    Center     Electric         -------- Electric Field --------
               Potential          X             Y             Z
 -----------------------------------------------------------------
    1 Atom    -22.161508
    2 Atom    -22.355444
    3 Atom    -80.066264
    4 Atom    -22.279528
    5 Atom    -79.990744
    6 Atom    -22.154803
    7 Atom    -53.836725
    8 Atom    -22.158589
    9 Atom    -80.074567
 -----------------------------------------------------------------
 1\1\GINC-N022\SP\RB3LYP\6-31+G(d,p)\Ca3O5P1(1+)\TIMN\12-Jun-2015\0\\# 
 b3lyp/6-31+G(d,p) int=ultrafine pop=(ReadRadii,MK)\\mol_17.27.21.pdbcc
 c_plusQ.z58489.zip.xyz\\1,1\O,0,-1.71586,-0.44786,-1.15438\O,0,2.90218
 ,-1.10723,-0.15351\Ca,0,2.8284,0.92028,0.47368\O,0,0.61154,0.98222,0.0
 004\Ca,0,-1.30296,1.90339,-0.40889\O,0,-2.61477,0.3914,1.05484\P,0,-1.
 97381,-0.75446,0.31934\O,0,-1.31557,-1.96941,0.87886\Ca,0,0.80791,-1.3
 9747,-0.55478\\Version=EM64T-G03RevE.01\State=1-A\HF=-2750.2240919\RMS
 D=6.998e-05\Thermal=0.\Dipole=-0.3138867,4.7642875,-1.0101211\PG=C01 [
 X(Ca3O5P1)]\\@


 MODELS ARE TO BE USED, NOT BELIEVED.

    -- PARAPHRASED BY H. THIEL IN "PRINCIPLES OF ECONOMETRICS"
 Job cpu time:  0 days  0 hours  2 minutes 55.7 seconds.
 File lengths (MBytes):  RWF=     36 Int=      0 D2E=      0 Chk=     11 Scr=      1
 Normal termination of Gaussian 03 at Fri Jun 12 18:07:20 2015.
