 Entering Gaussian System, Link 0=/home/timn/tmp/g03.e01/g03
 Input=mol_16.4.29.pdb_plusQccc.out.z51579.zip.xyz.gjf
 Output=mol_16.4.29.pdb_plusQccc.out.z51579.zip.xyz.out
 Initial command:
 /home/timn/tmp/g03.e01/l1.exe /home/timn/tmp/g03.e01/Gau-16637.inp -scrdir=/home/timn/tmp/g03.e01/
 Default is to use a total of   2 processors:
                                2 via shared-memory
                                1 via Linda
 Entering Link 1 = /home/timn/tmp/g03.e01/l1.exe PID=     16639.
  
 Copyright (c) 1988,1990,1992,1993,1995,1998,2003,2004,2007, Gaussian, Inc.
                  All Rights Reserved.
  
 This is the Gaussian(R) 03 program.  It is based on the
 the Gaussian(R) 98 system (copyright 1998, Gaussian, Inc.),
 the Gaussian(R) 94 system (copyright 1995, Gaussian, Inc.),
 the Gaussian 92(TM) system (copyright 1992, Gaussian, Inc.),
 the Gaussian 90(TM) system (copyright 1990, Gaussian, Inc.),
 the Gaussian 88(TM) system (copyright 1988, Gaussian, Inc.),
 the Gaussian 86(TM) system (copyright 1986, Carnegie Mellon
 University), and the Gaussian 82(TM) system (copyright 1983,
 Carnegie Mellon University). Gaussian is a federally registered
 trademark of Gaussian, Inc.
  
 This software contains proprietary and confidential information,
 including trade secrets, belonging to Gaussian, Inc.
  
 This software is provided under written license and may be
 used, copied, transmitted, or stored only in accord with that
 written license.
  
 The following legend is applicable only to US Government
 contracts under FAR:
  
                    RESTRICTED RIGHTS LEGEND
  
 Use, reproduction and disclosure by the US Government is
 subject to restrictions as set forth in subparagraphs (a)
 and (c) of the Commercial Computer Software - Restricted
 Rights clause in FAR 52.227-19.
  
 Gaussian, Inc.
 340 Quinnipiac St., Bldg. 40, Wallingford CT 06492
  
  
 ---------------------------------------------------------------
 Warning -- This program may not be used in any manner that
 competes with the business of Gaussian, Inc. or will provide
 assistance to any competitor of Gaussian, Inc.  The licensee
 of this program is prohibited from giving any competitor of
 Gaussian, Inc. access to this program.  By using this program,
 the user acknowledges that Gaussian, Inc. is engaged in the
 business of creating and licensing software in the field of
 computational chemistry and represents and warrants to the
 licensee that it is not a competitor of Gaussian, Inc. and that
 it will not use this program in any manner prohibited above.
 ---------------------------------------------------------------
  

 Cite this work as:
 Gaussian 03, Revision E.01,
 M. J. Frisch, G. W. Trucks, H. B. Schlegel, G. E. Scuseria, 
 M. A. Robb, J. R. Cheeseman, J. A. Montgomery, Jr., T. Vreven, 
 K. N. Kudin, J. C. Burant, J. M. Millam, S. S. Iyengar, J. Tomasi, 
 V. Barone, B. Mennucci, M. Cossi, G. Scalmani, N. Rega, 
 G. A. Petersson, H. Nakatsuji, M. Hada, M. Ehara, K. Toyota, 
 R. Fukuda, J. Hasegawa, M. Ishida, T. Nakajima, Y. Honda, O. Kitao, 
 H. Nakai, M. Klene, X. Li, J. E. Knox, H. P. Hratchian, J. B. Cross, 
 V. Bakken, C. Adamo, J. Jaramillo, R. Gomperts, R. E. Stratmann, 
 O. Yazyev, A. J. Austin, R. Cammi, C. Pomelli, J. W. Ochterski, 
 P. Y. Ayala, K. Morokuma, G. A. Voth, P. Salvador, J. J. Dannenberg, 
 V. G. Zakrzewski, S. Dapprich, A. D. Daniels, M. C. Strain, 
 O. Farkas, D. K. Malick, A. D. Rabuck, K. Raghavachari, 
 J. B. Foresman, J. V. Ortiz, Q. Cui, A. G. Baboul, S. Clifford, 
 J. Cioslowski, B. B. Stefanov, G. Liu, A. Liashenko, P. Piskorz, 
 I. Komaromi, R. L. Martin, D. J. Fox, T. Keith, M. A. Al-Laham, 
 C. Y. Peng, A. Nanayakkara, M. Challacombe, P. M. W. Gill, 
 B. Johnson, W. Chen, M. W. Wong, C. Gonzalez, and J. A. Pople, 
 Gaussian, Inc., Wallingford CT, 2004.
 
 ******************************************
 Gaussian 03:  EM64T-G03RevE.01 11-Sep-2007
                12-Jun-2015 
 ******************************************
 %nproc=2
 Will use up to    2 processors via shared memory.
 Default route:  MP2=Direct MaxDisk=2000MB
 ----------------------------------------------------
 # b3lyp/6-31+G(d,p) int=ultrafine pop=(ReadRadii,MK)
 ----------------------------------------------------

 Warning!  SCF SP cutoffs with diffuse functions may be unreliable.
 Consider SCF=Tight

 1/38=1/1;
 2/17=6,18=5,40=1/2;
 3/5=1,6=6,7=111,11=2,16=1,25=1,30=1,74=-5,75=5/1,2,3;
 4//1;
 5/5=2,32=1,38=5/2;
 6/7=2,8=2,9=2,10=2,15=8,20=101,28=1/1,2;
 99/5=1,9=1/99;
 -------------------------------------------
 mol_16.4.29.pdb_plusQccc.out.z51579.zip.xyz
 -------------------------------------------
 Symbolic Z-matrix:
 Charge =  1 Multiplicity = 1
 O                     1.44127   0.96344   0.80671 
 O                     1.45223   0.97951  -0.76554 
 Ca                    1.59101  -1.11114   0.00033 
 P                    -2.00731  -1.11147  -0.02218 
 O                    -0.5982   -1.74888  -0.01976 
 O                    -1.91314   0.43211  -0.00673 
 Ca                   -0.32799   2.07099   0.0195 
 
                          Input orientation:                          
 ---------------------------------------------------------------------
 Center     Atomic     Atomic              Coordinates (Angstroms)
 Number     Number      Type              X           Y           Z
 ---------------------------------------------------------------------
    1          8             0        1.441270    0.963440    0.806710
    2          8             0        1.452230    0.979510   -0.765540
    3         20             0        1.591010   -1.111140    0.000330
    4         15             0       -2.007310   -1.111470   -0.022180
    5          8             0       -0.598200   -1.748880   -0.019760
    6          8             0       -1.913140    0.432110   -0.006730
    7         20             0       -0.327990    2.070990    0.019500
 ---------------------------------------------------------------------
                    Distance matrix (angstroms):
                    1          2          3          4          5
     1  O    0.000000
     2  O    1.572370   0.000000
     3  Ca   2.230819   2.230837   0.000000
     4  P    4.109138   4.110134   3.598390   0.000000
     5  O    3.492731   3.493503   2.280297   1.546573   0.000000
     6  O    3.492286   3.493015   3.828934   1.546527   2.546754
     7  Ca   2.230840   2.230874   3.716030   3.598598   3.829616
                    6          7
     6  O    0.000000
     7  Ca   2.280201   0.000000
 Stoichiometry    Ca2O4P(1+)
 Framework group  C1[X(Ca2O4P)]
 Deg. of freedom    15
 Full point group                 C1
 Largest Abelian subgroup         C1      NOp   1
 Largest concise Abelian subgroup C1      NOp   1
                         Standard orientation:                         
 ---------------------------------------------------------------------
 Center     Atomic     Atomic              Coordinates (Angstroms)
 Number     Number      Type              X           Y           Z
 ---------------------------------------------------------------------
    1          8             0       -1.713030    0.001337    0.786670
    2          8             0       -1.714184    0.001337   -0.785700
    3         20             0       -0.760047    1.858547   -0.000189
    4         15             0        2.320127   -0.001814    0.000128
    5          8             0        1.443632    1.272409   -0.000117
    6          8             0        1.441256   -1.274344   -0.000210
    7         20             0       -0.763118   -1.857482   -0.000164
 ---------------------------------------------------------------------
 Rotational constants (GHZ):      1.4540648      1.2848838      0.7205859
 Standard basis: 6-31+G(d,p) (6D, 7F)
 There are   153 symmetry adapted basis functions of A   symmetry.
 Integral buffers will be    131072 words long.
 Raffenetti 2 integral format.
 Two-electron integral symmetry is turned on.
   153 basis functions,   344 primitive gaussians,   153 cartesian basis functions
    43 alpha electrons       43 beta electrons
       nuclear repulsion energy       602.1379361265 Hartrees.
 NAtoms=    7 NActive=    7 NUniq=    7 SFac= 7.50D-01 NAtFMM=   80 NAOKFM=F Big=F
 One-electron integrals computed using PRISM.
 NBasis=   153 RedAO= T  NBF=   153
 NBsUse=   153 1.00D-06 NBFU=   153
 Harris functional with IExCor=  402 diagonalized for initial guess.
 ExpMin= 7.10D-03 ExpMax= 3.53D+04 ExpMxC= 5.30D+03 IAcc=3 IRadAn=         5 AccDes= 0.00D+00
 HarFok:  IExCor= 402 AccDes= 0.00D+00 IRadAn=         5 IDoV=1
 ScaDFX=  1.000000  1.000000  1.000000  1.000000
 Initial guess orbital symmetries:
       Occupied  (A) (A) (A) (A) (A) (A) (A) (A) (A) (A) (A) (A)
                 (A) (A) (A) (A) (A) (A) (A) (A) (A) (A) (A) (A)
                 (A) (A) (A) (A) (A) (A) (A) (A) (A) (A) (A) (A)
                 (A) (A) (A) (A) (A) (A) (A)
       Virtual   (A) (A) (A) (A) (A) (A) (A) (A) (A) (A) (A) (A)
                 (A) (A) (A) (A) (A) (A) (A) (A) (A) (A) (A) (A)
                 (A) (A) (A) (A) (A) (A) (A) (A) (A) (A) (A) (A)
                 (A) (A) (A) (A) (A) (A) (A) (A) (A) (A) (A) (A)
                 (A) (A) (A) (A) (A) (A) (A) (A) (A) (A) (A) (A)
                 (A) (A) (A) (A) (A) (A) (A) (A) (A) (A) (A) (A)
                 (A) (A) (A) (A) (A) (A) (A) (A) (A) (A) (A) (A)
                 (A) (A) (A) (A) (A) (A) (A) (A) (A) (A) (A) (A)
                 (A) (A) (A) (A) (A) (A) (A) (A) (A) (A) (A) (A)
                 (A) (A)
 The electronic state of the initial guess is 1-A.
 Requested convergence on RMS density matrix=1.00D-04 within 128 cycles.
 Requested convergence on MAX density matrix=1.00D-02.
 Requested convergence on             energy=1.00D-02.
 No special actions if energy rises.
 SCF Done:  E(RB+HF-LYP) =  -1997.33372463     A.U. after    6 cycles
             Convg  =    0.4409D-04             -V/T =  2.0031
             S**2   =   0.0000

 **********************************************************************

            Population analysis using the SCF density.

 **********************************************************************

 Orbital symmetries:
       Occupied  (A) (A) (A) (A) (A) (A) (A) (A) (A) (A) (A) (A)
                 (A) (A) (A) (A) (A) (A) (A) (A) (A) (A) (A) (A)
                 (A) (A) (A) (A) (A) (A) (A) (A) (A) (A) (A) (A)
                 (A) (A) (A) (A) (A) (A) (A)
       Virtual   (A) (A) (A) (A) (A) (A) (A) (A) (A) (A) (A) (A)
                 (A) (A) (A) (A) (A) (A) (A) (A) (A) (A) (A) (A)
                 (A) (A) (A) (A) (A) (A) (A) (A) (A) (A) (A) (A)
                 (A) (A) (A) (A) (A) (A) (A) (A) (A) (A) (A) (A)
                 (A) (A) (A) (A) (A) (A) (A) (A) (A) (A) (A) (A)
                 (A) (A) (A) (A) (A) (A) (A) (A) (A) (A) (A) (A)
                 (A) (A) (A) (A) (A) (A) (A) (A) (A) (A) (A) (A)
                 (A) (A) (A) (A) (A) (A) (A) (A) (A) (A) (A) (A)
                 (A) (A) (A) (A) (A) (A) (A) (A) (A) (A) (A) (A)
                 (A) (A)
 The electronic state is 1-A.
 Alpha  occ. eigenvalues -- -145.53247-145.53246 -77.30162 -19.27955 -19.27949
 Alpha  occ. eigenvalues --  -19.25605 -19.25572 -15.60094 -15.60093 -12.73309
 Alpha  occ. eigenvalues --  -12.73308 -12.73291 -12.73290 -12.73209 -12.73206
 Alpha  occ. eigenvalues --   -6.75643  -4.92083  -4.91868  -4.91423  -1.97237
 Alpha  occ. eigenvalues --   -1.97210  -1.25766  -1.24806  -1.24792  -1.24726
 Alpha  occ. eigenvalues --   -1.24726  -1.24303  -1.13926  -1.08555  -1.08251
 Alpha  occ. eigenvalues --   -0.89521  -0.67705  -0.57282  -0.52824  -0.52601
 Alpha  occ. eigenvalues --   -0.48994  -0.47945  -0.46121  -0.45762  -0.43900
 Alpha  occ. eigenvalues --   -0.40702  -0.37190  -0.34166
 Alpha virt. eigenvalues --   -0.20457  -0.19853  -0.19631  -0.14481  -0.11367
 Alpha virt. eigenvalues --   -0.11280  -0.10319  -0.09667  -0.09043  -0.07375
 Alpha virt. eigenvalues --   -0.07215  -0.06432  -0.05962  -0.05215  -0.04858
 Alpha virt. eigenvalues --   -0.04431  -0.04389  -0.04083  -0.03999  -0.03874
 Alpha virt. eigenvalues --   -0.03337  -0.02378   0.00222   0.01109   0.02011
 Alpha virt. eigenvalues --    0.02949   0.03324   0.03644   0.04210   0.05047
 Alpha virt. eigenvalues --    0.05143   0.05190   0.06782   0.07029   0.07278
 Alpha virt. eigenvalues --    0.07476   0.08123   0.08217   0.12231   0.13582
 Alpha virt. eigenvalues --    0.14151   0.14768   0.16274   0.16814   0.16922
 Alpha virt. eigenvalues --    0.18688   0.20333   0.21715   0.24406   0.26749
 Alpha virt. eigenvalues --    0.28310   0.29466   0.31798   0.32142   0.32487
 Alpha virt. eigenvalues --    0.36021   0.36749   0.40444   0.43967   0.45540
 Alpha virt. eigenvalues --    0.48015   0.56600   0.57821   0.60212   0.65647
 Alpha virt. eigenvalues --    0.71341   0.87008   0.90193   0.94379   1.03570
 Alpha virt. eigenvalues --    1.05864   1.07984   1.08400   1.12008   1.12334
 Alpha virt. eigenvalues --    1.14814   1.15166   1.17890   1.20708   1.23937
 Alpha virt. eigenvalues --    1.28615   1.38348   1.42999   1.46781   1.50561
 Alpha virt. eigenvalues --    1.50921   1.58077   1.66233   1.68012   1.70617
 Alpha virt. eigenvalues --    1.71275   1.75747   1.80024   1.81206   1.82379
 Alpha virt. eigenvalues --    1.84420   1.85979   1.86061   1.92958   2.09469
 Alpha virt. eigenvalues --    2.16198   2.16966   2.53544   2.67523   3.00301
 Alpha virt. eigenvalues --    3.38473   3.83791   3.90578   3.97505   4.05860
          Condensed to atoms (all electrons):
              1          2          3          4          5          6
     1  O    8.516087  -0.059769   0.105896  -0.004359   0.002549   0.002546
     2  O   -0.059769   8.515295   0.106029  -0.004401   0.002534   0.002534
     3  Ca   0.105896   0.106029  18.210054  -0.019100   0.067449   0.002341
     4  P   -0.004359  -0.004401  -0.019100  14.566881  -0.094252  -0.094417
     5  O    0.002549   0.002534   0.067449  -0.094252   8.815255  -0.085982
     6  O    0.002546   0.002534   0.002341  -0.094417  -0.085982   8.815303
     7  Ca   0.105897   0.106018  -0.016662  -0.019103   0.002347   0.067444
              7
     1  O    0.105897
     2  O    0.106018
     3  Ca  -0.016662
     4  P   -0.019103
     5  O    0.002347
     6  O    0.067444
     7  Ca  18.210049
 Mulliken atomic charges:
              1
     1  O   -0.668847
     2  O   -0.668240
     3  Ca   1.543994
     4  P    0.668751
     5  O   -0.709899
     6  O   -0.709768
     7  Ca   1.544010
 Sum of Mulliken charges=   1.00000
 Atomic charges with hydrogens summed into heavy atoms:
              1
     1  O   -0.668847
     2  O   -0.668240
     3  Ca   1.543994
     4  P    0.668751
     5  O   -0.709899
     6  O   -0.709768
     7  Ca   1.544010
 Sum of Mulliken charges=   1.00000
 Electronic spatial extent (au):  <R**2>=  1378.3096
 Charge=     1.0000 electrons
 Dipole moment (field-independent basis, Debye):
    X=    -3.1391    Y=     0.0000    Z=    -0.0070  Tot=     3.1391
 Quadrupole moment (field-independent basis, Debye-Ang):
   XX=   -66.5082   YY=    -8.8891   ZZ=   -58.2531
   XY=     0.0448   XZ=     0.0099   YZ=    -0.0009
 Traceless Quadrupole moment (field-independent basis, Debye-Ang):
   XX=   -21.9580   YY=    35.6610   ZZ=   -13.7030
   XY=     0.0448   XZ=     0.0099   YZ=    -0.0009
 Octapole moment (field-independent basis, Debye-Ang**2):
  XXX=     6.9465  YYY=     0.1459  ZZZ=    -0.0158  XYY=   -70.8566
  XXY=    -0.1278  XXZ=    -0.0108  XZZ=     1.4185  YZZ=    -0.0020
  YYZ=    -0.0094  XYZ=    -0.0003
 Hexadecapole moment (field-independent basis, Debye-Ang**3):
 XXXX=  -943.0647 YYYY=  -329.5149 ZZZZ=  -103.9562 XXXY=     0.1880
 XXXZ=    -0.0047 YYYX=     0.2369 YYYZ=    -0.0034 ZZZX=     0.0235
 ZZZY=    -0.0013 XXYY=  -220.7448 XXZZ=  -174.5080 YYZZ=  -103.3705
 XXYZ=    -0.0014 YYXZ=     0.0108 ZZXY=     0.0464
 N-N= 6.021379361265D+02 E-N=-5.923709831187D+03  KE= 1.991110691021D+03
 Merz-Kollman atomic radii used.
 Read replacement radii for each type of atom:
 Rad(20) =   1.188000000000D+00
 Atom Element Radius
    1     8    1.40
    2     8    1.40
    3    20    1.19
    4    15    1.80
    5     8    1.40
    6     8    1.40
    7    20    1.19

 **********************************************************************

            Electrostatic Properties Using The SCF Density

 **********************************************************************

       Atomic Center    1 is at  -1.713030  0.001337  0.786670
       Atomic Center    2 is at  -1.714184  0.001337 -0.785700
       Atomic Center    3 is at  -0.760047  1.858547 -0.000189
       Atomic Center    4 is at   2.320127 -0.001814  0.000128
       Atomic Center    5 is at   1.443632  1.272409 -0.000117
       Atomic Center    6 is at   1.441256 -1.274344 -0.000210
       Atomic Center    7 is at  -0.763118 -1.857482 -0.000164
     705 points will be used for fitting atomic charges
 Fitting point charges to eletrostatic potential
 Charges from ESP fit, RMS=   0.00424 RRMS=   0.02787:
 Charge=   1.00000 Dipole=    -2.9799    -0.0002    -0.0067 Tot=     2.9799
              1
     1  O   -0.787875
     2  O   -0.787420
     3  Ca   1.723228
     4  P    0.639793
     5  O   -0.755502
     6  O   -0.755454
     7  Ca   1.723232
 -----------------------------------------------------------------

              Electrostatic Properties (Atomic Units)

 -----------------------------------------------------------------
    Center     Electric         -------- Electric Field --------
               Potential          X             Y             Z
 -----------------------------------------------------------------
    1 Atom    -22.214560
    2 Atom    -22.213533
    3 Atom    -80.007954
    4 Atom    -53.916357
    5 Atom    -22.184218
    6 Atom    -22.184037
    7 Atom    -80.007935
 -----------------------------------------------------------------
 1\1\GINC-N028\SP\RB3LYP\6-31+G(d,p)\Ca2O4P1(1+)\TIMN\12-Jun-2015\0\\# 
 b3lyp/6-31+G(d,p) int=ultrafine pop=(ReadRadii,MK)\\mol_16.4.29.pdb_pl
 usQccc.out.z51579.zip.xyz\\1,1\O,0,1.44127,0.96344,0.80671\O,0,1.45223
 ,0.97951,-0.76554\Ca,0,1.59101,-1.11114,0.00033\P,0,-2.00731,-1.11147,
 -0.02218\O,0,-0.5982,-1.74888,-0.01976\O,0,-1.91314,0.43211,-0.00673\C
 a,0,-0.32799,2.07099,0.0195\\Version=EM64T-G03RevE.01\State=1-A\HF=-19
 97.3337246\RMSD=4.409e-05\Thermal=0.\Dipole=1.0570549,0.6386061,0.0102
 447\PG=C01 [X(Ca2O4P1)]\\@


 IN-LAWS ARE LIKE SEEDS. YOU DON'T NEED THEM
 BUT THEY COME WITH THE TOMATO.
 Job cpu time:  0 days  0 hours  0 minutes 43.5 seconds.
 File lengths (MBytes):  RWF=     28 Int=      0 D2E=      0 Chk=     10 Scr=      1
 Normal termination of Gaussian 03 at Fri Jun 12 17:48:11 2015.
