 Entering Gaussian System, Link 0=/home/timn/tmp/g03.e01/g03
 Input=mol_17.22.58.pdbc_plusQ.z58208.zip.xyz.gjf
 Output=mol_17.22.58.pdbc_plusQ.z58208.zip.xyz.out
 Initial command:
 /home/timn/tmp/g03.e01/l1.exe /home/timn/tmp/g03.e01/Gau-17925.inp -scrdir=/home/timn/tmp/g03.e01/
 Default is to use a total of   2 processors:
                                2 via shared-memory
                                1 via Linda
 Entering Link 1 = /home/timn/tmp/g03.e01/l1.exe PID=     17926.
  
 Copyright (c) 1988,1990,1992,1993,1995,1998,2003,2004,2007, Gaussian, Inc.
                  All Rights Reserved.
  
 This is the Gaussian(R) 03 program.  It is based on the
 the Gaussian(R) 98 system (copyright 1998, Gaussian, Inc.),
 the Gaussian(R) 94 system (copyright 1995, Gaussian, Inc.),
 the Gaussian 92(TM) system (copyright 1992, Gaussian, Inc.),
 the Gaussian 90(TM) system (copyright 1990, Gaussian, Inc.),
 the Gaussian 88(TM) system (copyright 1988, Gaussian, Inc.),
 the Gaussian 86(TM) system (copyright 1986, Carnegie Mellon
 University), and the Gaussian 82(TM) system (copyright 1983,
 Carnegie Mellon University). Gaussian is a federally registered
 trademark of Gaussian, Inc.
  
 This software contains proprietary and confidential information,
 including trade secrets, belonging to Gaussian, Inc.
  
 This software is provided under written license and may be
 used, copied, transmitted, or stored only in accord with that
 written license.
  
 The following legend is applicable only to US Government
 contracts under FAR:
  
                    RESTRICTED RIGHTS LEGEND
  
 Use, reproduction and disclosure by the US Government is
 subject to restrictions as set forth in subparagraphs (a)
 and (c) of the Commercial Computer Software - Restricted
 Rights clause in FAR 52.227-19.
  
 Gaussian, Inc.
 340 Quinnipiac St., Bldg. 40, Wallingford CT 06492
  
  
 ---------------------------------------------------------------
 Warning -- This program may not be used in any manner that
 competes with the business of Gaussian, Inc. or will provide
 assistance to any competitor of Gaussian, Inc.  The licensee
 of this program is prohibited from giving any competitor of
 Gaussian, Inc. access to this program.  By using this program,
 the user acknowledges that Gaussian, Inc. is engaged in the
 business of creating and licensing software in the field of
 computational chemistry and represents and warrants to the
 licensee that it is not a competitor of Gaussian, Inc. and that
 it will not use this program in any manner prohibited above.
 ---------------------------------------------------------------
  

 Cite this work as:
 Gaussian 03, Revision E.01,
 M. J. Frisch, G. W. Trucks, H. B. Schlegel, G. E. Scuseria, 
 M. A. Robb, J. R. Cheeseman, J. A. Montgomery, Jr., T. Vreven, 
 K. N. Kudin, J. C. Burant, J. M. Millam, S. S. Iyengar, J. Tomasi, 
 V. Barone, B. Mennucci, M. Cossi, G. Scalmani, N. Rega, 
 G. A. Petersson, H. Nakatsuji, M. Hada, M. Ehara, K. Toyota, 
 R. Fukuda, J. Hasegawa, M. Ishida, T. Nakajima, Y. Honda, O. Kitao, 
 H. Nakai, M. Klene, X. Li, J. E. Knox, H. P. Hratchian, J. B. Cross, 
 V. Bakken, C. Adamo, J. Jaramillo, R. Gomperts, R. E. Stratmann, 
 O. Yazyev, A. J. Austin, R. Cammi, C. Pomelli, J. W. Ochterski, 
 P. Y. Ayala, K. Morokuma, G. A. Voth, P. Salvador, J. J. Dannenberg, 
 V. G. Zakrzewski, S. Dapprich, A. D. Daniels, M. C. Strain, 
 O. Farkas, D. K. Malick, A. D. Rabuck, K. Raghavachari, 
 J. B. Foresman, J. V. Ortiz, Q. Cui, A. G. Baboul, S. Clifford, 
 J. Cioslowski, B. B. Stefanov, G. Liu, A. Liashenko, P. Piskorz, 
 I. Komaromi, R. L. Martin, D. J. Fox, T. Keith, M. A. Al-Laham, 
 C. Y. Peng, A. Nanayakkara, M. Challacombe, P. M. W. Gill, 
 B. Johnson, W. Chen, M. W. Wong, C. Gonzalez, and J. A. Pople, 
 Gaussian, Inc., Wallingford CT, 2004.
 
 ******************************************
 Gaussian 03:  EM64T-G03RevE.01 11-Sep-2007
                12-Jun-2015 
 ******************************************
 %nproc=2
 Will use up to    2 processors via shared memory.
 Default route:  MP2=Direct MaxDisk=2000MB
 ----------------------------------------------------
 # b3lyp/6-31+G(d,p) int=ultrafine pop=(ReadRadii,MK)
 ----------------------------------------------------

 Warning!  SCF SP cutoffs with diffuse functions may be unreliable.
 Consider SCF=Tight

 1/38=1/1;
 2/17=6,18=5,40=1/2;
 3/5=1,6=6,7=111,11=2,16=1,25=1,30=1,74=-5,75=5/1,2,3;
 4//1;
 5/5=2,32=1,38=5/2;
 6/7=2,8=2,9=2,10=2,15=8,20=101,28=1/1,2;
 99/5=1,9=1/99;
 --------------------------------------
 mol_17.22.58.pdbc_plusQ.z58208.zip.xyz
 --------------------------------------
 Symbolic Z-matrix:
 Charge =  1 Multiplicity = 1
 Ca                   -1.82274   2.40092  -0.00221 
 O                    -1.38558  -2.18072   0.0003 
 P                    -2.68378  -1.3432    0.00607 
 O                    -2.33905   0.1605   -0.00628 
 Ca                    0.86996  -1.94942  -0.0044 
 O                     1.88991  -0.26039   1.19602 
 O                     1.89552  -0.25685  -1.19512 
 O                     2.76354  -0.49116   0.00216 
 Ca                    1.83588   1.76734   0.00323 
 
                          Input orientation:                          
 ---------------------------------------------------------------------
 Center     Atomic     Atomic              Coordinates (Angstroms)
 Number     Number      Type              X           Y           Z
 ---------------------------------------------------------------------
    1         20             0       -1.822740    2.400920   -0.002210
    2          8             0       -1.385580   -2.180720    0.000300
    3         15             0       -2.683780   -1.343200    0.006070
    4          8             0       -2.339050    0.160500   -0.006280
    5         20             0        0.869960   -1.949420   -0.004400
    6          8             0        1.889910   -0.260390    1.196020
    7          8             0        1.895520   -0.256850   -1.195120
    8          8             0        2.763540   -0.491160    0.002160
    9         20             0        1.835880    1.767340    0.003230
 ---------------------------------------------------------------------
                    Distance matrix (angstroms):
                    1          2          3          4          5
     1  Ca   0.000000
     2  O    4.602449   0.000000
     3  P    3.841861   1.544926   0.000000
     4  O    2.299146   2.527936   1.542759   0.000000
     5  Ca   5.116258   2.267373   3.605091   3.840509   0.000000
     6  O    4.722510   3.980735   4.848412   4.416648   2.309573
     7  O    4.723583   3.986969   4.857263   4.418043   2.309628
     8  O    5.422002   4.479935   5.513554   5.144041   2.390023
     9  Ca   3.713079   5.095585   5.486601   4.473485   3.840230
                    6          7          8          9
     6  O    0.000000
     7  O    2.391149   0.000000
     8  O    1.497259   1.497277   0.000000
     9  Ca   2.353159   2.353071   2.441593   0.000000
 Stoichiometry    Ca3O5P(1+)
 Framework group  C1[X(Ca3O5P)]
 Deg. of freedom    21
 Full point group                 C1
 Largest Abelian subgroup         C1      NOp   1
 Largest concise Abelian subgroup C1      NOp   1
                         Standard orientation:                         
 ---------------------------------------------------------------------
 Center     Atomic     Atomic              Coordinates (Angstroms)
 Number     Number      Type              X           Y           Z
 ---------------------------------------------------------------------
    1         20             0       -1.822730    2.400929   -0.002211
    2          8             0       -1.385590   -2.180713    0.000299
    3         15             0       -2.683786   -1.343187    0.006069
    4          8             0       -2.339049    0.160511   -0.006281
    5         20             0        0.869951   -1.949422   -0.004401
    6          8             0        1.889909   -0.260397    1.196019
    7          8             0        1.895519   -0.256857   -1.195121
    8          8             0        2.763538   -0.491171    0.002159
    9         20             0        1.835887    1.767333    0.003229
 ---------------------------------------------------------------------
 Rotational constants (GHZ):      0.7312960      0.5484129      0.3322359
 Standard basis: 6-31+G(d,p) (6D, 7F)
 There are   199 symmetry adapted basis functions of A   symmetry.
 Integral buffers will be    131072 words long.
 Raffenetti 2 integral format.
 Two-electron integral symmetry is turned on.
   199 basis functions,   456 primitive gaussians,   199 cartesian basis functions
    57 alpha electrons       57 beta electrons
       nuclear repulsion energy       924.0292007633 Hartrees.
 NAtoms=    9 NActive=    9 NUniq=    9 SFac= 7.50D-01 NAtFMM=   80 NAOKFM=F Big=F
 One-electron integrals computed using PRISM.
 NBasis=   199 RedAO= T  NBF=   199
 NBsUse=   199 1.00D-06 NBFU=   199
 Harris functional with IExCor=  402 diagonalized for initial guess.
 ExpMin= 7.10D-03 ExpMax= 3.53D+04 ExpMxC= 5.30D+03 IAcc=3 IRadAn=         5 AccDes= 0.00D+00
 HarFok:  IExCor= 402 AccDes= 0.00D+00 IRadAn=         5 IDoV=1
 ScaDFX=  1.000000  1.000000  1.000000  1.000000
 Initial guess orbital symmetries:
       Occupied  (A) (A) (A) (A) (A) (A) (A) (A) (A) (A) (A) (A)
                 (A) (A) (A) (A) (A) (A) (A) (A) (A) (A) (A) (A)
                 (A) (A) (A) (A) (A) (A) (A) (A) (A) (A) (A) (A)
                 (A) (A) (A) (A) (A) (A) (A) (A) (A) (A) (A) (A)
                 (A) (A) (A) (A) (A) (A) (A) (A) (A)
       Virtual   (A) (A) (A) (A) (A) (A) (A) (A) (A) (A) (A) (A)
                 (A) (A) (A) (A) (A) (A) (A) (A) (A) (A) (A) (A)
                 (A) (A) (A) (A) (A) (A) (A) (A) (A) (A) (A) (A)
                 (A) (A) (A) (A) (A) (A) (A) (A) (A) (A) (A) (A)
                 (A) (A) (A) (A) (A) (A) (A) (A) (A) (A) (A) (A)
                 (A) (A) (A) (A) (A) (A) (A) (A) (A) (A) (A) (A)
                 (A) (A) (A) (A) (A) (A) (A) (A) (A) (A) (A) (A)
                 (A) (A) (A) (A) (A) (A) (A) (A) (A) (A) (A) (A)
                 (A) (A) (A) (A) (A) (A) (A) (A) (A) (A) (A) (A)
                 (A) (A) (A) (A) (A) (A) (A) (A) (A) (A) (A) (A)
                 (A) (A) (A) (A) (A) (A) (A) (A) (A) (A) (A) (A)
                 (A) (A) (A) (A) (A) (A) (A) (A) (A) (A)
 The electronic state of the initial guess is 1-A.
 Requested convergence on RMS density matrix=1.00D-04 within 128 cycles.
 Requested convergence on MAX density matrix=1.00D-02.
 Requested convergence on             energy=1.00D-02.
 No special actions if energy rises.
 EnCoef did     5 forward-backward iterations
 EnCoef did   100 forward-backward iterations
 SCF Done:  E(RB+HF-LYP) =  -2750.06854299     A.U. after   11 cycles
             Convg  =    0.3568D-04             -V/T =  2.0029
             S**2   =   0.0000

 **********************************************************************

            Population analysis using the SCF density.

 **********************************************************************

 Orbital symmetries:
       Occupied  (A) (A) (A) (A) (A) (A) (A) (A) (A) (A) (A) (A)
                 (A) (A) (A) (A) (A) (A) (A) (A) (A) (A) (A) (A)
                 (A) (A) (A) (A) (A) (A) (A) (A) (A) (A) (A) (A)
                 (A) (A) (A) (A) (A) (A) (A) (A) (A) (A) (A) (A)
                 (A) (A) (A) (A) (A) (A) (A) (A) (A)
       Virtual   (A) (A) (A) (A) (A) (A) (A) (A) (A) (A) (A) (A)
                 (A) (A) (A) (A) (A) (A) (A) (A) (A) (A) (A) (A)
                 (A) (A) (A) (A) (A) (A) (A) (A) (A) (A) (A) (A)
                 (A) (A) (A) (A) (A) (A) (A) (A) (A) (A) (A) (A)
                 (A) (A) (A) (A) (A) (A) (A) (A) (A) (A) (A) (A)
                 (A) (A) (A) (A) (A) (A) (A) (A) (A) (A) (A) (A)
                 (A) (A) (A) (A) (A) (A) (A) (A) (A) (A) (A) (A)
                 (A) (A) (A) (A) (A) (A) (A) (A) (A) (A) (A) (A)
                 (A) (A) (A) (A) (A) (A) (A) (A) (A) (A) (A) (A)
                 (A) (A) (A) (A) (A) (A) (A) (A) (A) (A) (A) (A)
                 (A) (A) (A) (A) (A) (A) (A) (A) (A) (A) (A) (A)
                 (A) (A) (A) (A) (A) (A) (A) (A) (A) (A)
 The electronic state is 1-A.
 Alpha  occ. eigenvalues -- -145.52139-145.51762-145.51187 -77.29847 -19.37610
 Alpha  occ. eigenvalues --  -19.28142 -19.28137 -19.27615 -19.27564 -15.58952
 Alpha  occ. eigenvalues --  -15.58728 -15.58107 -12.72191 -12.72158 -12.72051
 Alpha  occ. eigenvalues --  -12.71923 -12.71905 -12.71806 -12.71322 -12.71284
 Alpha  occ. eigenvalues --  -12.71207  -6.75351  -4.91796  -4.91573  -4.91128
 Alpha  occ. eigenvalues --   -1.96085  -1.95839  -1.95235  -1.27005  -1.23788
 Alpha  occ. eigenvalues --   -1.23608  -1.23329  -1.23268  -1.23013  -1.22880
 Alpha  occ. eigenvalues --   -1.22692  -1.22616  -1.19097  -1.13679  -1.08250
 Alpha  occ. eigenvalues --   -1.03872  -0.88792  -0.67563  -0.57891  -0.57301
 Alpha  occ. eigenvalues --   -0.56294  -0.55884  -0.52582  -0.52331  -0.45474
 Alpha  occ. eigenvalues --   -0.44226  -0.43750  -0.42125  -0.40361  -0.39460
 Alpha  occ. eigenvalues --   -0.36812  -0.27610
 Alpha virt. eigenvalues --   -0.19633  -0.19048  -0.17633  -0.14929  -0.14594
 Alpha virt. eigenvalues --   -0.13290  -0.12318  -0.11256  -0.10036  -0.09105
 Alpha virt. eigenvalues --   -0.08163  -0.07828  -0.07737  -0.06860  -0.06792
 Alpha virt. eigenvalues --   -0.05790  -0.05472  -0.05379  -0.05317  -0.05144
 Alpha virt. eigenvalues --   -0.04475  -0.04473  -0.04327  -0.04152  -0.03379
 Alpha virt. eigenvalues --   -0.03241  -0.03016  -0.02951  -0.02625  -0.01752
 Alpha virt. eigenvalues --   -0.00998  -0.00258   0.01547   0.01906   0.03136
 Alpha virt. eigenvalues --    0.03344   0.03496   0.04086   0.04190   0.05055
 Alpha virt. eigenvalues --    0.05454   0.05814   0.05984   0.06503   0.06718
 Alpha virt. eigenvalues --    0.07520   0.08191   0.08639   0.08861   0.09386
 Alpha virt. eigenvalues --    0.10047   0.10095   0.10435   0.11926   0.13468
 Alpha virt. eigenvalues --    0.14478   0.14656   0.14942   0.16159   0.16757
 Alpha virt. eigenvalues --    0.17672   0.18078   0.19456   0.20476   0.22449
 Alpha virt. eigenvalues --    0.23122   0.24016   0.26136   0.26928   0.27671
 Alpha virt. eigenvalues --    0.29722   0.30791   0.32692   0.34554   0.35197
 Alpha virt. eigenvalues --    0.35830   0.36497   0.40221   0.46142   0.46463
 Alpha virt. eigenvalues --    0.47482   0.49292   0.57254   0.58985   0.60316
 Alpha virt. eigenvalues --    0.63426   0.76148   0.83104   0.86560   0.95509
 Alpha virt. eigenvalues --    1.00031   1.05203   1.05938   1.06923   1.08280
 Alpha virt. eigenvalues --    1.08367   1.10236   1.11703   1.12375   1.13948
 Alpha virt. eigenvalues --    1.15650   1.19957   1.20510   1.23719   1.25110
 Alpha virt. eigenvalues --    1.29649   1.37543   1.39354   1.41579   1.43382
 Alpha virt. eigenvalues --    1.50617   1.57833   1.60881   1.65355   1.66494
 Alpha virt. eigenvalues --    1.66533   1.67967   1.72855   1.72943   1.73508
 Alpha virt. eigenvalues --    1.79593   1.80303   1.82687   1.86021   1.86536
 Alpha virt. eigenvalues --    1.86719   1.88852   1.93486   2.08472   2.20908
 Alpha virt. eigenvalues --    2.21623   2.42409   2.53730   2.68745   3.03305
 Alpha virt. eigenvalues --    3.05285   3.40291   3.82616   3.91452   3.99470
 Alpha virt. eigenvalues --    4.04659   4.25328
          Condensed to atoms (all electrons):
              1          2          3          4          5          6
     1  Ca  19.201153   0.016298  -0.105802  -0.055979   0.066251  -0.019602
     2  O    0.016298   8.786436  -0.121887  -0.052351   0.086575   0.002952
     3  P   -0.105802  -0.121887  14.736947  -0.179033  -0.071579   0.000845
     4  O   -0.055979  -0.052351  -0.179033   8.943970  -0.003535   0.002582
     5  Ca   0.066251   0.086575  -0.071579  -0.003535  18.280726   0.093333
     6  O   -0.019602   0.002952   0.000845   0.002582   0.093333   8.425677
     7  O   -0.019518   0.002843   0.000767   0.002584   0.093575   0.009719
     8  O    0.002456  -0.004170  -0.001218  -0.000432   0.032822   0.039999
     9  Ca   0.300166  -0.013223   0.060706  -0.038726   0.002008   0.049105
              7          8          9
     1  Ca  -0.019518   0.002456   0.300166
     2  O    0.002843  -0.004170  -0.013223
     3  P    0.000767  -0.001218   0.060706
     4  O    0.002584  -0.000432  -0.038726
     5  Ca   0.093575   0.032822   0.002008
     6  O    0.009719   0.039999   0.049105
     7  O    8.425722   0.040019   0.048976
     8  O    0.040019   7.930145   0.007840
     9  Ca   0.048976   0.007840  18.718490
 Mulliken atomic charges:
              1
     1  Ca   0.614576
     2  O   -0.703475
     3  P    0.680254
     4  O   -0.619079
     5  Ca   1.419824
     6  O   -0.604610
     7  O   -0.604688
     8  O   -0.047460
     9  Ca   0.864658
 Sum of Mulliken charges=   1.00000
 Atomic charges with hydrogens summed into heavy atoms:
              1
     1  Ca   0.614576
     2  O   -0.703475
     3  P    0.680254
     4  O   -0.619079
     5  Ca   1.419824
     6  O   -0.604610
     7  O   -0.604688
     8  O   -0.047460
     9  Ca   0.864658
 Sum of Mulliken charges=   1.00000
 Electronic spatial extent (au):  <R**2>=  2931.4973
 Charge=     1.0000 electrons
 Dipole moment (field-independent basis, Debye):
    X=    -0.0640    Y=     1.8302    Z=    -0.0121  Tot=     1.8313
 Quadrupole moment (field-independent basis, Debye-Ang):
   XX=   -64.2792   YY=   -44.9758   ZZ=   -89.4929
   XY=    -9.7698   XZ=     0.0161   YZ=     0.0799
 Traceless Quadrupole moment (field-independent basis, Debye-Ang):
   XX=     1.9701   YY=    21.2735   ZZ=   -23.2436
   XY=    -9.7698   XZ=     0.0161   YZ=     0.0799
 Octapole moment (field-independent basis, Debye-Ang**2):
  XXX=    -0.2117  YYY=   -60.1408  ZZZ=    -0.1054  XYY=    33.6841
  XXY=    58.8654  XXZ=     0.0655  XZZ=    -9.0160  YZZ=   -16.9563
  YYZ=    -0.2589  XYZ=     0.1861
 Hexadecapole moment (field-independent basis, Debye-Ang**3):
 XXXX= -1921.3970 YYYY= -1512.1842 ZZZZ=  -252.4193 XXXY=    17.2062
 XXXZ=     0.6848 YYYX=  -164.7847 YYYZ=     0.3276 ZZZX=     0.1137
 ZZZY=     0.1587 XXYY=  -392.8515 XXZZ=  -388.2789 YYZZ=  -307.3280
 XXYZ=     0.3513 YYXZ=     0.2864 ZZXY=     3.8616
 N-N= 9.240292007633D+02 E-N=-8.345234721311D+03  KE= 2.742179611983D+03
 Merz-Kollman atomic radii used.
 Read replacement radii for each type of atom:
 Rad(20) =   1.188000000000D+00
 Atom Element Radius
    1    20    1.19
    2     8    1.40
    3    15    1.80
    4     8    1.40
    5    20    1.19
    6     8    1.40
    7     8    1.40
    8     8    1.40
    9    20    1.19

 **********************************************************************

            Electrostatic Properties Using The SCF Density

 **********************************************************************

       Atomic Center    1 is at  -1.822730  2.400929 -0.002211
       Atomic Center    2 is at  -1.385590 -2.180713  0.000299
       Atomic Center    3 is at  -2.683786 -1.343187  0.006069
       Atomic Center    4 is at  -2.339049  0.160511 -0.006281
       Atomic Center    5 is at   0.869951 -1.949422 -0.004401
       Atomic Center    6 is at   1.889909 -0.260397  1.196019
       Atomic Center    7 is at   1.895519 -0.256857 -1.195121
       Atomic Center    8 is at   2.763538 -0.491171  0.002159
       Atomic Center    9 is at   1.835887  1.767333  0.003229
     908 points will be used for fitting atomic charges
 Fitting point charges to eletrostatic potential
 Charges from ESP fit, RMS=   0.02549 RRMS=   0.17088:
 Charge=   1.00000 Dipole=     0.3388     4.1520    -0.0107 Tot=     4.1658
              1
     1  Ca   0.513825
     2  O   -0.578886
     3  P    0.267515
     4  O   -0.200541
     5  Ca   1.548108
     6  O   -0.803550
     7  O   -0.804016
     8  O    0.224475
     9  Ca   0.833070
 -----------------------------------------------------------------

              Electrostatic Properties (Atomic Units)

 -----------------------------------------------------------------
    Center     Electric         -------- Electric Field --------
               Potential          X             Y             Z
 -----------------------------------------------------------------
    1 Atom    -80.025858
    2 Atom    -22.187845
    3 Atom    -53.918727
    4 Atom    -22.188959
    5 Atom    -80.018790
    6 Atom    -22.191185
    7 Atom    -22.191262
    8 Atom    -22.100759
    9 Atom    -80.031117
 -----------------------------------------------------------------
 1\1\GINC-N025\SP\RB3LYP\6-31+G(d,p)\Ca3O5P1(1+)\TIMN\12-Jun-2015\0\\# 
 b3lyp/6-31+G(d,p) int=ultrafine pop=(ReadRadii,MK)\\mol_17.22.58.pdbc_
 plusQ.z58208.zip.xyz\\1,1\Ca,0,-1.82274,2.40092,-0.00221\O,0,-1.38558,
 -2.18072,0.0003\P,0,-2.68378,-1.3432,0.00607\O,0,-2.33905,0.1605,-0.00
 628\Ca,0,0.86996,-1.94942,-0.0044\O,0,1.88991,-0.26039,1.19602\O,0,1.8
 9552,-0.25685,-1.19512\O,0,2.76354,-0.49116,0.00216\Ca,0,1.83588,1.767
 34,0.00323\\Version=EM64T-G03RevE.01\State=1-A\HF=-2750.068543\RMSD=3.
 568e-05\Thermal=0.\Dipole=-0.0251719,0.7200414,-0.00477\PG=C01 [X(Ca3O
 5P1)]\\@


 ACHIEVEMENT--  THE MAN WHO ROWS THE BOAT GENERALLY 
                DOESN'T HAVE TIME TO ROCK IT.

                   -- FROM THE BACK OF A SUGAR PACKET
 Job cpu time:  0 days  0 hours  2 minutes 28.9 seconds.
 File lengths (MBytes):  RWF=     36 Int=      0 D2E=      0 Chk=     11 Scr=      1
 Normal termination of Gaussian 03 at Fri Jun 12 17:51:28 2015.
