 Entering Gaussian System, Link 0=/home/timn/tmp/g03.e01/g03
 Input=mol_17.25.29.pdbcc_plusQ.z58334.zip.xyz.gjf
 Output=mol_17.25.29.pdbcc_plusQ.z58334.zip.xyz.out
 Initial command:
 /home/timn/tmp/g03.e01/l1.exe /home/timn/tmp/g03.e01/Gau-18303.inp -scrdir=/home/timn/tmp/g03.e01/
 Default is to use a total of   2 processors:
                                2 via shared-memory
                                1 via Linda
 Entering Link 1 = /home/timn/tmp/g03.e01/l1.exe PID=     18304.
  
 Copyright (c) 1988,1990,1992,1993,1995,1998,2003,2004,2007, Gaussian, Inc.
                  All Rights Reserved.
  
 This is the Gaussian(R) 03 program.  It is based on the
 the Gaussian(R) 98 system (copyright 1998, Gaussian, Inc.),
 the Gaussian(R) 94 system (copyright 1995, Gaussian, Inc.),
 the Gaussian 92(TM) system (copyright 1992, Gaussian, Inc.),
 the Gaussian 90(TM) system (copyright 1990, Gaussian, Inc.),
 the Gaussian 88(TM) system (copyright 1988, Gaussian, Inc.),
 the Gaussian 86(TM) system (copyright 1986, Carnegie Mellon
 University), and the Gaussian 82(TM) system (copyright 1983,
 Carnegie Mellon University). Gaussian is a federally registered
 trademark of Gaussian, Inc.
  
 This software contains proprietary and confidential information,
 including trade secrets, belonging to Gaussian, Inc.
  
 This software is provided under written license and may be
 used, copied, transmitted, or stored only in accord with that
 written license.
  
 The following legend is applicable only to US Government
 contracts under FAR:
  
                    RESTRICTED RIGHTS LEGEND
  
 Use, reproduction and disclosure by the US Government is
 subject to restrictions as set forth in subparagraphs (a)
 and (c) of the Commercial Computer Software - Restricted
 Rights clause in FAR 52.227-19.
  
 Gaussian, Inc.
 340 Quinnipiac St., Bldg. 40, Wallingford CT 06492
  
  
 ---------------------------------------------------------------
 Warning -- This program may not be used in any manner that
 competes with the business of Gaussian, Inc. or will provide
 assistance to any competitor of Gaussian, Inc.  The licensee
 of this program is prohibited from giving any competitor of
 Gaussian, Inc. access to this program.  By using this program,
 the user acknowledges that Gaussian, Inc. is engaged in the
 business of creating and licensing software in the field of
 computational chemistry and represents and warrants to the
 licensee that it is not a competitor of Gaussian, Inc. and that
 it will not use this program in any manner prohibited above.
 ---------------------------------------------------------------
  

 Cite this work as:
 Gaussian 03, Revision E.01,
 M. J. Frisch, G. W. Trucks, H. B. Schlegel, G. E. Scuseria, 
 M. A. Robb, J. R. Cheeseman, J. A. Montgomery, Jr., T. Vreven, 
 K. N. Kudin, J. C. Burant, J. M. Millam, S. S. Iyengar, J. Tomasi, 
 V. Barone, B. Mennucci, M. Cossi, G. Scalmani, N. Rega, 
 G. A. Petersson, H. Nakatsuji, M. Hada, M. Ehara, K. Toyota, 
 R. Fukuda, J. Hasegawa, M. Ishida, T. Nakajima, Y. Honda, O. Kitao, 
 H. Nakai, M. Klene, X. Li, J. E. Knox, H. P. Hratchian, J. B. Cross, 
 V. Bakken, C. Adamo, J. Jaramillo, R. Gomperts, R. E. Stratmann, 
 O. Yazyev, A. J. Austin, R. Cammi, C. Pomelli, J. W. Ochterski, 
 P. Y. Ayala, K. Morokuma, G. A. Voth, P. Salvador, J. J. Dannenberg, 
 V. G. Zakrzewski, S. Dapprich, A. D. Daniels, M. C. Strain, 
 O. Farkas, D. K. Malick, A. D. Rabuck, K. Raghavachari, 
 J. B. Foresman, J. V. Ortiz, Q. Cui, A. G. Baboul, S. Clifford, 
 J. Cioslowski, B. B. Stefanov, G. Liu, A. Liashenko, P. Piskorz, 
 I. Komaromi, R. L. Martin, D. J. Fox, T. Keith, M. A. Al-Laham, 
 C. Y. Peng, A. Nanayakkara, M. Challacombe, P. M. W. Gill, 
 B. Johnson, W. Chen, M. W. Wong, C. Gonzalez, and J. A. Pople, 
 Gaussian, Inc., Wallingford CT, 2004.
 
 ******************************************
 Gaussian 03:  EM64T-G03RevE.01 11-Sep-2007
                12-Jun-2015 
 ******************************************
 %nproc=2
 Will use up to    2 processors via shared memory.
 Default route:  MP2=Direct MaxDisk=2000MB
 ----------------------------------------------------
 # b3lyp/6-31+G(d,p) int=ultrafine pop=(ReadRadii,MK)
 ----------------------------------------------------

 Warning!  SCF SP cutoffs with diffuse functions may be unreliable.
 Consider SCF=Tight

 1/38=1/1;
 2/17=6,18=5,40=1/2;
 3/5=1,6=6,7=111,11=2,16=1,25=1,30=1,74=-5,75=5/1,2,3;
 4//1;
 5/5=2,32=1,38=5/2;
 6/7=2,8=2,9=2,10=2,15=8,20=101,28=1/1,2;
 99/5=1,9=1/99;
 ---------------------------------------
 mol_17.25.29.pdbcc_plusQ.z58334.zip.xyz
 ---------------------------------------
 Symbolic Z-matrix:
 Charge =  1 Multiplicity = 1
 O                    -2.05325  -1.88058   0. 
 O                    -2.4066    0.50974   0. 
 O                    -0.49248   2.26603   0. 
 O                     0.        0.90533   0. 
 P                    -1.27429  -0.47681   0. 
 Ca                    1.26806   3.58679   0. 
 O                     0.25237  -1.33584   0. 
 Ca                   -0.55034  -3.44887   0. 
 Ca                    2.11799   0.03382   0. 
 
                          Input orientation:                          
 ---------------------------------------------------------------------
 Center     Atomic     Atomic              Coordinates (Angstroms)
 Number     Number      Type              X           Y           Z
 ---------------------------------------------------------------------
    1          8             0       -2.053250   -1.880580    0.000000
    2          8             0       -2.406600    0.509740    0.000000
    3          8             0       -0.492480    2.266030    0.000000
    4          8             0        0.000000    0.905330    0.000000
    5         15             0       -1.274290   -0.476810    0.000000
    6         20             0        1.268060    3.586790    0.000000
    7          8             0        0.252370   -1.335840    0.000000
    8         20             0       -0.550340   -3.448870    0.000000
    9         20             0        2.117990    0.033820    0.000000
 ---------------------------------------------------------------------
                    Distance matrix (angstroms):
                    1          2          3          4          5
     1  O    0.000000
     2  O    2.416296   0.000000
     3  O    4.430618   2.597770   0.000000
     4  O    3.460799   2.438896   1.447080   0.000000
     5  P    1.605412   1.501801   2.852087   1.879927   0.000000
     6  Ca   6.397127   4.792845   2.200888   2.966177   4.793369
     7  O    2.369098   3.236709   3.678080   2.255334   1.751749
     8  Ca   2.172158   4.372218   5.715193   4.388842   3.058961
     9  Ca   4.589572   4.549551   3.434722   2.290286   3.430497
                    6          7          8          9
     6  Ca   0.000000
     7  O    5.026322   0.000000
     8  Ca   7.266849   2.260363   0.000000
     9  Ca   3.653215   2.314413   4.387381   0.000000
 Stoichiometry    Ca3O5P(1+)
 Framework group  CS[SG(Ca3O5P)]
 Deg. of freedom    15
 Full point group                 CS
 Largest Abelian subgroup         CS      NOp   2
 Largest concise Abelian subgroup C1      NOp   1
                         Standard orientation:                         
 ---------------------------------------------------------------------
 Center     Atomic     Atomic              Coordinates (Angstroms)
 Number     Number      Type              X           Y           Z
 ---------------------------------------------------------------------
    1          8             0       -2.053255   -1.880577    0.000000
    2          8             0       -2.406601    0.509743    0.000000
    3          8             0       -0.492478    2.266030    0.000000
    4          8             0        0.000000    0.905329    0.000000
    5         15             0       -1.274292   -0.476809    0.000000
    6         20             0        1.268064    3.586787    0.000000
    7          8             0        0.252366   -1.335841    0.000000
    8         20             0       -0.550347   -3.448870    0.000000
    9         20             0        2.117989    0.033816    0.000000
 ---------------------------------------------------------------------
 Rotational constants (GHZ):      1.3949613      0.3918712      0.3059297
 Standard basis: 6-31+G(d,p) (6D, 7F)
 There are   147 symmetry adapted basis functions of A'  symmetry.
 There are    52 symmetry adapted basis functions of A"  symmetry.
 Integral buffers will be    131072 words long.
 Raffenetti 2 integral format.
 Two-electron integral symmetry is turned on.
   199 basis functions,   456 primitive gaussians,   199 cartesian basis functions
    57 alpha electrons       57 beta electrons
       nuclear repulsion energy       951.4264873496 Hartrees.
 NAtoms=    9 NActive=    9 NUniq=    9 SFac= 7.50D-01 NAtFMM=   80 NAOKFM=F Big=F
 One-electron integrals computed using PRISM.
 NBasis=   199 RedAO= T  NBF=   147    52
 NBsUse=   199 1.00D-06 NBFU=   147    52
 Harris functional with IExCor=  402 diagonalized for initial guess.
 ExpMin= 7.10D-03 ExpMax= 3.53D+04 ExpMxC= 5.30D+03 IAcc=3 IRadAn=         5 AccDes= 0.00D+00
 HarFok:  IExCor= 402 AccDes= 0.00D+00 IRadAn=         5 IDoV=1
 ScaDFX=  1.000000  1.000000  1.000000  1.000000
 Initial guess orbital symmetries:
       Occupied  (A') (A') (A') (A') (A') (A') (A') (A') (A') (A')
                 (A') (A') (A') (A') (A") (A') (A') (A") (A') (A')
                 (A") (A') (A') (A') (A") (A') (A') (A') (A') (A')
                 (A') (A') (A') (A') (A") (A") (A") (A') (A') (A')
                 (A') (A') (A') (A') (A') (A') (A") (A') (A') (A")
                 (A") (A') (A") (A') (A') (A") (A')
       Virtual   (A') (A") (A') (A') (A') (A") (A') (A") (A') (A')
                 (A") (A') (A') (A') (A') (A') (A") (A') (A') (A")
                 (A') (A") (A') (A') (A') (A') (A') (A") (A') (A')
                 (A') (A") (A') (A") (A') (A") (A') (A') (A") (A')
                 (A') (A") (A") (A') (A") (A') (A') (A') (A') (A")
                 (A') (A') (A') (A") (A") (A') (A') (A") (A') (A')
                 (A') (A') (A") (A') (A') (A") (A') (A') (A') (A")
                 (A') (A') (A') (A') (A') (A") (A') (A') (A') (A')
                 (A') (A") (A") (A') (A') (A') (A') (A') (A') (A')
                 (A") (A') (A") (A") (A') (A') (A") (A") (A') (A')
                 (A') (A') (A') (A') (A') (A') (A") (A') (A') (A')
                 (A') (A") (A') (A") (A") (A") (A") (A') (A') (A')
                 (A") (A') (A') (A') (A') (A") (A') (A") (A') (A')
                 (A") (A') (A') (A') (A') (A') (A') (A') (A') (A')
                 (A') (A')
 The electronic state of the initial guess is 1-A'.
 Requested convergence on RMS density matrix=1.00D-04 within 128 cycles.
 Requested convergence on MAX density matrix=1.00D-02.
 Requested convergence on             energy=1.00D-02.
 No special actions if energy rises.
 EnCoef did     6 forward-backward iterations
 EnCoef did     5 forward-backward iterations
 EnCoef did     5 forward-backward iterations
 EnCoef did     8 forward-backward iterations
 EnCoef did     1 forward-backward iterations
 EnCoef did     3 forward-backward iterations
 EnCoef did     3 forward-backward iterations
 SCF Done:  E(RB+HF-LYP) =  -2749.96528683     A.U. after   15 cycles
             Convg  =    0.2420D-04             -V/T =  2.0029
             S**2   =   0.0000

 **********************************************************************

            Population analysis using the SCF density.

 **********************************************************************

 Orbital symmetries:
       Occupied  (A') (A') (A') (A') (A') (A') (A') (A') (A') (A')
                 (A') (A') (A") (A') (A') (A') (A") (A') (A") (A')
                 (A') (A') (A") (A') (A') (A') (A') (A') (A") (A')
                 (A') (A') (A") (A') (A") (A') (A') (A') (A') (A')
                 (A') (A') (A') (A') (A') (A') (A") (A") (A') (A')
                 (A") (A') (A") (A') (A') (A") (A')
       Virtual   (A') (A') (A') (A') (A") (A") (A') (A") (A") (A')
                 (A') (A') (A') (A') (A') (A") (A') (A') (A") (A')
                 (A') (A") (A') (A') (A') (A') (A') (A") (A') (A')
                 (A") (A') (A') (A') (A") (A') (A') (A") (A") (A')
                 (A") (A') (A') (A") (A') (A") (A") (A') (A') (A')
                 (A') (A") (A') (A') (A') (A") (A') (A") (A') (A')
                 (A") (A') (A') (A") (A') (A') (A") (A') (A') (A')
                 (A') (A') (A') (A') (A') (A") (A') (A') (A') (A')
                 (A') (A") (A') (A") (A') (A') (A') (A') (A') (A')
                 (A') (A") (A") (A') (A') (A") (A") (A') (A") (A')
                 (A') (A') (A') (A') (A') (A') (A') (A") (A') (A')
                 (A') (A') (A") (A") (A") (A') (A") (A") (A') (A')
                 (A") (A') (A') (A') (A") (A') (A') (A") (A') (A')
                 (A") (A') (A') (A') (A') (A') (A') (A') (A') (A')
                 (A') (A')
 The electronic state is 1-A'.
 Alpha  occ. eigenvalues -- -145.55071-145.52136-145.50152 -77.31496 -19.28086
 Alpha  occ. eigenvalues --  -19.24310 -19.20986 -19.20960 -19.19255 -15.61900
 Alpha  occ. eigenvalues --  -15.59065 -15.57111 -12.75142 -12.75058 -12.75007
 Alpha  occ. eigenvalues --  -12.72272 -12.72269 -12.72130 -12.70334 -12.70281
 Alpha  occ. eigenvalues --  -12.70182  -6.75830  -4.92503  -4.92033  -4.91900
 Alpha  occ. eigenvalues --   -1.98985  -1.96108  -1.94353  -1.26668  -1.26352
 Alpha  occ. eigenvalues --   -1.26261  -1.23651  -1.23623  -1.23222  -1.22019
 Alpha  occ. eigenvalues --   -1.21965  -1.21608  -1.13243  -1.07959  -1.02933
 Alpha  occ. eigenvalues --   -0.99776  -0.87412  -0.63422  -0.54577  -0.51849
 Alpha  occ. eigenvalues --   -0.50465  -0.50300  -0.44986  -0.43803  -0.43492
 Alpha  occ. eigenvalues --   -0.41152  -0.38095  -0.36820  -0.32857  -0.32385
 Alpha  occ. eigenvalues --   -0.30060  -0.26768
 Alpha virt. eigenvalues --   -0.23724  -0.20204  -0.15774  -0.15044  -0.15023
 Alpha virt. eigenvalues --   -0.13912  -0.12760  -0.12025  -0.10998  -0.10881
 Alpha virt. eigenvalues --   -0.09830  -0.08481  -0.08046  -0.07757  -0.06749
 Alpha virt. eigenvalues --   -0.05500  -0.05458  -0.05048  -0.04616  -0.04422
 Alpha virt. eigenvalues --   -0.04089  -0.03972  -0.03675  -0.03167  -0.03102
 Alpha virt. eigenvalues --   -0.02484  -0.01854  -0.01753  -0.00312   0.00145
 Alpha virt. eigenvalues --    0.00928   0.01815   0.02094   0.02967   0.02969
 Alpha virt. eigenvalues --    0.03450   0.03940   0.04150   0.04572   0.05107
 Alpha virt. eigenvalues --    0.05295   0.05574   0.06058   0.06713   0.07084
 Alpha virt. eigenvalues --    0.07468   0.07531   0.07728   0.08348   0.09642
 Alpha virt. eigenvalues --    0.10848   0.11712   0.14545   0.15351   0.16820
 Alpha virt. eigenvalues --    0.16835   0.18329   0.19088   0.20845   0.22665
 Alpha virt. eigenvalues --    0.22921   0.23772   0.25545   0.25936   0.26596
 Alpha virt. eigenvalues --    0.27524   0.28133   0.28401   0.30361   0.31096
 Alpha virt. eigenvalues --    0.32742   0.34218   0.35311   0.35972   0.38210
 Alpha virt. eigenvalues --    0.39949   0.41001   0.43792   0.47358   0.51457
 Alpha virt. eigenvalues --    0.53340   0.56578   0.57555   0.57922   0.62346
 Alpha virt. eigenvalues --    0.65264   0.71824   0.83747   0.91585   0.99892
 Alpha virt. eigenvalues --    1.03666   1.08125   1.08833   1.11492   1.11696
 Alpha virt. eigenvalues --    1.12333   1.16704   1.17753   1.19327   1.21519
 Alpha virt. eigenvalues --    1.23823   1.25981   1.30128   1.33360   1.37718
 Alpha virt. eigenvalues --    1.40856   1.46219   1.48944   1.51659   1.57505
 Alpha virt. eigenvalues --    1.60491   1.64079   1.64694   1.71759   1.72639
 Alpha virt. eigenvalues --    1.72836   1.75898   1.77221   1.80554   1.83751
 Alpha virt. eigenvalues --    1.85632   1.86966   1.89177   1.89520   1.93424
 Alpha virt. eigenvalues --    1.93761   2.00267   2.03947   2.07982   2.17879
 Alpha virt. eigenvalues --    2.30920   2.34567   2.36495   2.59219   2.89361
 Alpha virt. eigenvalues --    3.13480   3.56549   3.91744   4.02734   4.06861
 Alpha virt. eigenvalues --    4.13963   4.26029
          Condensed to atoms (all electrons):
              1          2          3          4          5          6
     1  O    9.189532  -0.078625   0.002946  -0.190142   0.035386   0.001583
     2  O   -0.078625   8.809954  -0.090371  -0.032618   0.286622   0.002159
     3  O    0.002946  -0.090371   8.630846  -0.103202   0.002193   0.084479
     4  O   -0.190142  -0.032618  -0.103202   9.095760  -0.115984  -0.087849
     5  P    0.035386   0.286622   0.002193  -0.115984  13.037685  -0.012295
     6  Ca   0.001583   0.002159   0.084479  -0.087849  -0.012295  18.996216
     7  O   -0.127772  -0.186340   0.019147  -0.020531  -0.046706  -0.031222
     8  Ca   0.068795   0.023249  -0.006883   0.001156   0.048373   0.044253
     9  Ca  -0.018660  -0.011819  -0.070867   0.003736   0.013929   0.274280
              7          8          9
     1  O   -0.127772   0.068795  -0.018660
     2  O   -0.186340   0.023249  -0.011819
     3  O    0.019147  -0.006883  -0.070867
     4  O   -0.020531   0.001156   0.003736
     5  P   -0.046706   0.048373   0.013929
     6  Ca  -0.031222   0.044253   0.274280
     7  O    9.460919  -0.018382  -0.015684
     8  Ca  -0.018382  18.475422   0.050252
     9  Ca  -0.015684   0.050252  18.910497
 Mulliken atomic charges:
              1
     1  O   -0.883042
     2  O   -0.722211
     3  O   -0.468288
     4  O   -0.550325
     5  P    1.750796
     6  Ca   0.728396
     7  O   -1.033428
     8  Ca   1.313767
     9  Ca   0.864336
 Sum of Mulliken charges=   1.00000
 Atomic charges with hydrogens summed into heavy atoms:
              1
     1  O   -0.883042
     2  O   -0.722211
     3  O   -0.468288
     4  O   -0.550325
     5  P    1.750796
     6  Ca   0.728396
     7  O   -1.033428
     8  Ca   1.313767
     9  Ca   0.864336
 Sum of Mulliken charges=   1.00000
 Electronic spatial extent (au):  <R**2>=  3061.4295
 Charge=     1.0000 electrons
 Dipole moment (field-independent basis, Debye):
    X=    11.2306    Y=    -6.5437    Z=     0.0000  Tot=    12.9979
 Quadrupole moment (field-independent basis, Debye-Ang):
   XX=   -94.8854   YY=    25.3551   ZZ=   -82.1250
   XY=    19.3567   XZ=     0.0000   YZ=     0.0000
 Traceless Quadrupole moment (field-independent basis, Debye-Ang):
   XX=   -44.3336   YY=    75.9068   ZZ=   -31.5732
   XY=    19.3567   XZ=     0.0000   YZ=     0.0000
 Octapole moment (field-independent basis, Debye-Ang**2):
  XXX=    20.8666  YYY=   -59.7465  ZZZ=     0.0000  XYY=    20.6086
  XXY=   -12.9396  XXZ=     0.0000  XZZ=   -13.1912  YZZ=   -15.3126
  YYZ=     0.0000  XYZ=     0.0000
 Hexadecapole moment (field-independent basis, Debye-Ang**3):
 XXXX= -1499.9140 YYYY=  -597.9170 ZZZZ=  -141.8286 XXXY=  -441.1115
 XXXZ=     0.0000 YYYX=    52.8847 YYYZ=     0.0000 ZZZX=     0.0000
 ZZZY=     0.0000 XXYY=  -646.7884 XXZZ=  -247.3723 YYZZ=  -424.1458
 XXYZ=     0.0000 YYXZ=     0.0000 ZZXY=  -113.1594
 N-N= 9.514264873496D+02 E-N=-8.401951237099D+03  KE= 2.742025819345D+03
 Symmetry A'   KE= 2.474965055844D+03
 Symmetry A"   KE= 2.670607635012D+02
 Merz-Kollman atomic radii used.
 Read replacement radii for each type of atom:
 Rad(20) =   1.188000000000D+00
 Atom Element Radius
    1     8    1.40
    2     8    1.40
    3     8    1.40
    4     8    1.40
    5    15    1.80
    6    20    1.19
    7     8    1.40
    8    20    1.19
    9    20    1.19

 **********************************************************************

            Electrostatic Properties Using The SCF Density

 **********************************************************************

       Atomic Center    1 is at  -2.053255 -1.880577  0.000000
       Atomic Center    2 is at  -2.406601  0.509743  0.000000
       Atomic Center    3 is at  -0.492478  2.266030  0.000000
       Atomic Center    4 is at   0.000000  0.905329  0.000000
       Atomic Center    5 is at  -1.274292 -0.476809  0.000000
       Atomic Center    6 is at   1.268064  3.586787  0.000000
       Atomic Center    7 is at   0.252366 -1.335841  0.000000
       Atomic Center    8 is at  -0.550347 -3.448870  0.000000
       Atomic Center    9 is at   2.117989  0.033816  0.000000
     771 points will be used for fitting atomic charges
 Fitting point charges to eletrostatic potential
 Charges from ESP fit, RMS=   0.02451 RRMS=   0.15192:
 Charge=   1.00000 Dipole=    15.7619    -6.0292     0.0000 Tot=    16.8757
              1
     1  O   -0.840348
     2  O   -0.627344
     3  O   -0.254581
     4  O   -0.705673
     5  P    1.274843
     6  Ca   0.833574
     7  O   -0.672567
     8  Ca   1.334562
     9  Ca   0.657534
 -----------------------------------------------------------------

              Electrostatic Properties (Atomic Units)

 -----------------------------------------------------------------
    Center     Electric         -------- Electric Field --------
               Potential          X             Y             Z
 -----------------------------------------------------------------
    1 Atom    -22.255990
    2 Atom    -22.278906
    3 Atom    -22.260137
    4 Atom    -22.188519
    5 Atom    -53.893032
    6 Atom    -80.021319
    7 Atom    -22.221996
    8 Atom    -79.990725
    9 Atom    -80.040874
 -----------------------------------------------------------------
 1\1\GINC-N025\SP\RB3LYP\6-31+G(d,p)\Ca3O5P1(1+)\TIMN\12-Jun-2015\0\\# 
 b3lyp/6-31+G(d,p) int=ultrafine pop=(ReadRadii,MK)\\mol_17.25.29.pdbcc
 _plusQ.z58334.zip.xyz\\1,1\O,0,-2.05325,-1.88058,0.\O,0,-2.4066,0.5097
 4,0.\O,0,-0.49248,2.26603,0.\O,0,0.,0.90533,0.\P,0,-1.27429,-0.47681,0
 .\Ca,0,1.26806,3.58679,0.\O,0,0.25237,-1.33584,0.\Ca,0,-0.55034,-3.448
 87,0.\Ca,0,2.11799,0.03382,0.\\Version=EM64T-G03RevE.01\State=1-A'\HF=
 -2749.9652868\RMSD=2.420e-05\Thermal=0.\Dipole=4.4184594,-2.5744911,0.
 \PG=CS [SG(Ca3O5P1)]\\@


 HE THAT RISETH LATE MUST TROT ALL DAY.

                  -- BENJAMIN FRANKLIN
 Job cpu time:  0 days  0 hours  2 minutes 54.2 seconds.
 File lengths (MBytes):  RWF=     36 Int=      0 D2E=      0 Chk=     11 Scr=      1
 Normal termination of Gaussian 03 at Fri Jun 12 17:58:25 2015.
