 Entering Gaussian System, Link 0=/home/timn/tmp/g03.e01/g03
 Input=mol_16.5.9.pdb_plusQ.out.z51634.zip.xyz.gjf
 Output=mol_16.5.9.pdb_plusQ.out.z51634.zip.xyz.out
 Initial command:
 /home/timn/tmp/g03.e01/l1.exe /home/timn/tmp/g03.e01/Gau-12609.inp -scrdir=/home/timn/tmp/g03.e01/
 Default is to use a total of   2 processors:
                                2 via shared-memory
                                1 via Linda
 Entering Link 1 = /home/timn/tmp/g03.e01/l1.exe PID=     12610.
  
 Copyright (c) 1988,1990,1992,1993,1995,1998,2003,2004,2007, Gaussian, Inc.
                  All Rights Reserved.
  
 This is the Gaussian(R) 03 program.  It is based on the
 the Gaussian(R) 98 system (copyright 1998, Gaussian, Inc.),
 the Gaussian(R) 94 system (copyright 1995, Gaussian, Inc.),
 the Gaussian 92(TM) system (copyright 1992, Gaussian, Inc.),
 the Gaussian 90(TM) system (copyright 1990, Gaussian, Inc.),
 the Gaussian 88(TM) system (copyright 1988, Gaussian, Inc.),
 the Gaussian 86(TM) system (copyright 1986, Carnegie Mellon
 University), and the Gaussian 82(TM) system (copyright 1983,
 Carnegie Mellon University). Gaussian is a federally registered
 trademark of Gaussian, Inc.
  
 This software contains proprietary and confidential information,
 including trade secrets, belonging to Gaussian, Inc.
  
 This software is provided under written license and may be
 used, copied, transmitted, or stored only in accord with that
 written license.
  
 The following legend is applicable only to US Government
 contracts under FAR:
  
                    RESTRICTED RIGHTS LEGEND
  
 Use, reproduction and disclosure by the US Government is
 subject to restrictions as set forth in subparagraphs (a)
 and (c) of the Commercial Computer Software - Restricted
 Rights clause in FAR 52.227-19.
  
 Gaussian, Inc.
 340 Quinnipiac St., Bldg. 40, Wallingford CT 06492
  
  
 ---------------------------------------------------------------
 Warning -- This program may not be used in any manner that
 competes with the business of Gaussian, Inc. or will provide
 assistance to any competitor of Gaussian, Inc.  The licensee
 of this program is prohibited from giving any competitor of
 Gaussian, Inc. access to this program.  By using this program,
 the user acknowledges that Gaussian, Inc. is engaged in the
 business of creating and licensing software in the field of
 computational chemistry and represents and warrants to the
 licensee that it is not a competitor of Gaussian, Inc. and that
 it will not use this program in any manner prohibited above.
 ---------------------------------------------------------------
  

 Cite this work as:
 Gaussian 03, Revision E.01,
 M. J. Frisch, G. W. Trucks, H. B. Schlegel, G. E. Scuseria, 
 M. A. Robb, J. R. Cheeseman, J. A. Montgomery, Jr., T. Vreven, 
 K. N. Kudin, J. C. Burant, J. M. Millam, S. S. Iyengar, J. Tomasi, 
 V. Barone, B. Mennucci, M. Cossi, G. Scalmani, N. Rega, 
 G. A. Petersson, H. Nakatsuji, M. Hada, M. Ehara, K. Toyota, 
 R. Fukuda, J. Hasegawa, M. Ishida, T. Nakajima, Y. Honda, O. Kitao, 
 H. Nakai, M. Klene, X. Li, J. E. Knox, H. P. Hratchian, J. B. Cross, 
 V. Bakken, C. Adamo, J. Jaramillo, R. Gomperts, R. E. Stratmann, 
 O. Yazyev, A. J. Austin, R. Cammi, C. Pomelli, J. W. Ochterski, 
 P. Y. Ayala, K. Morokuma, G. A. Voth, P. Salvador, J. J. Dannenberg, 
 V. G. Zakrzewski, S. Dapprich, A. D. Daniels, M. C. Strain, 
 O. Farkas, D. K. Malick, A. D. Rabuck, K. Raghavachari, 
 J. B. Foresman, J. V. Ortiz, Q. Cui, A. G. Baboul, S. Clifford, 
 J. Cioslowski, B. B. Stefanov, G. Liu, A. Liashenko, P. Piskorz, 
 I. Komaromi, R. L. Martin, D. J. Fox, T. Keith, M. A. Al-Laham, 
 C. Y. Peng, A. Nanayakkara, M. Challacombe, P. M. W. Gill, 
 B. Johnson, W. Chen, M. W. Wong, C. Gonzalez, and J. A. Pople, 
 Gaussian, Inc., Wallingford CT, 2004.
 
 ******************************************
 Gaussian 03:  EM64T-G03RevE.01 11-Sep-2007
                12-Jun-2015 
 ******************************************
 %nproc=2
 Will use up to    2 processors via shared memory.
 Default route:  MP2=Direct MaxDisk=2000MB
 ----------------------------------------------------
 # b3lyp/6-31+G(d,p) int=ultrafine pop=(ReadRadii,MK)
 ----------------------------------------------------

 Warning!  SCF SP cutoffs with diffuse functions may be unreliable.
 Consider SCF=Tight

 1/38=1/1;
 2/17=6,18=5,40=1/2;
 3/5=1,6=6,7=111,11=2,16=1,25=1,30=1,74=-5,75=5/1,2,3;
 4//1;
 5/5=2,32=1,38=5/2;
 6/7=2,8=2,9=2,10=2,15=8,20=101,28=1/1,2;
 99/5=1,9=1/99;
 ---------------------------------------
 mol_16.5.9.pdb_plusQ.out.z51634.zip.xyz
 ---------------------------------------
 Symbolic Z-matrix:
 Charge =  1 Multiplicity = 1
 O                    -0.0516   -0.7558    0.01047 
 O                     1.18339  -1.5436    0.00568 
 P                     2.55509  -0.67578  -0.00378 
 O                     2.18114   0.79803  -0.00588 
 Ca                   -2.35528  -0.98494  -0.00304 
 O                    -2.11811   1.11157  -0.00339 
 Ca                   -0.03896   1.6477    0.00312 
 
                          Input orientation:                          
 ---------------------------------------------------------------------
 Center     Atomic     Atomic              Coordinates (Angstroms)
 Number     Number      Type              X           Y           Z
 ---------------------------------------------------------------------
    1          8             0       -0.051600   -0.755800    0.010470
    2          8             0        1.183390   -1.543600    0.005680
    3         15             0        2.555090   -0.675780   -0.003780
    4          8             0        2.181140    0.798030   -0.005880
    5         20             0       -2.355280   -0.984940   -0.003040
    6          8             0       -2.118110    1.111570   -0.003390
    7         20             0       -0.038960    1.647700    0.003120
 ---------------------------------------------------------------------
                    Distance matrix (angstroms):
                    1          2          3          4          5
     1  O    0.000000
     2  O    1.464873   0.000000
     3  P    2.607957   1.623195   0.000000
     4  O    2.720254   2.545362   1.520513   0.000000
     5  Ca   2.315087   3.582508   4.920093   4.874228   0.000000
     6  O    2.785270   4.236734   5.003341   4.310669   2.109882
     7  Ca   2.403544   3.417388   3.482485   2.377155   3.506589
                    6          7
     6  O    0.000000
     7  Ca   2.147171   0.000000
 Stoichiometry    Ca2O4P(1+)
 Framework group  C1[X(Ca2O4P)]
 Deg. of freedom    15
 Full point group                 C1
 Largest Abelian subgroup         C1      NOp   1
 Largest concise Abelian subgroup C1      NOp   1
                         Standard orientation:                         
 ---------------------------------------------------------------------
 Center     Atomic     Atomic              Coordinates (Angstroms)
 Number     Number      Type              X           Y           Z
 ---------------------------------------------------------------------
    1          8             0       -0.051602   -0.755801    0.010471
    2          8             0        1.183387   -1.543602    0.005681
    3         15             0        2.555088   -0.675784   -0.003779
    4          8             0        2.181140    0.798027   -0.005879
    5         20             0       -2.355282   -0.984939   -0.003039
    6          8             0       -2.118110    1.111571   -0.003389
    7         20             0       -0.038960    1.647699    0.003121
 ---------------------------------------------------------------------
 Rotational constants (GHZ):      2.1181144      0.8504788      0.6068294
 Standard basis: 6-31+G(d,p) (6D, 7F)
 There are   153 symmetry adapted basis functions of A   symmetry.
 Integral buffers will be    131072 words long.
 Raffenetti 2 integral format.
 Two-electron integral symmetry is turned on.
   153 basis functions,   344 primitive gaussians,   153 cartesian basis functions
    43 alpha electrons       43 beta electrons
       nuclear repulsion energy       585.7848195031 Hartrees.
 NAtoms=    7 NActive=    7 NUniq=    7 SFac= 7.50D-01 NAtFMM=   80 NAOKFM=F Big=F
 One-electron integrals computed using PRISM.
 NBasis=   153 RedAO= T  NBF=   153
 NBsUse=   153 1.00D-06 NBFU=   153
 Harris functional with IExCor=  402 diagonalized for initial guess.
 ExpMin= 7.10D-03 ExpMax= 3.53D+04 ExpMxC= 5.30D+03 IAcc=3 IRadAn=         5 AccDes= 0.00D+00
 HarFok:  IExCor= 402 AccDes= 0.00D+00 IRadAn=         5 IDoV=1
 ScaDFX=  1.000000  1.000000  1.000000  1.000000
 Initial guess orbital symmetries:
       Occupied  (A) (A) (A) (A) (A) (A) (A) (A) (A) (A) (A) (A)
                 (A) (A) (A) (A) (A) (A) (A) (A) (A) (A) (A) (A)
                 (A) (A) (A) (A) (A) (A) (A) (A) (A) (A) (A) (A)
                 (A) (A) (A) (A) (A) (A) (A)
       Virtual   (A) (A) (A) (A) (A) (A) (A) (A) (A) (A) (A) (A)
                 (A) (A) (A) (A) (A) (A) (A) (A) (A) (A) (A) (A)
                 (A) (A) (A) (A) (A) (A) (A) (A) (A) (A) (A) (A)
                 (A) (A) (A) (A) (A) (A) (A) (A) (A) (A) (A) (A)
                 (A) (A) (A) (A) (A) (A) (A) (A) (A) (A) (A) (A)
                 (A) (A) (A) (A) (A) (A) (A) (A) (A) (A) (A) (A)
                 (A) (A) (A) (A) (A) (A) (A) (A) (A) (A) (A) (A)
                 (A) (A) (A) (A) (A) (A) (A) (A) (A) (A) (A) (A)
                 (A) (A) (A) (A) (A) (A) (A) (A) (A) (A) (A) (A)
                 (A) (A)
 The electronic state of the initial guess is 1-A.
 Requested convergence on RMS density matrix=1.00D-04 within 128 cycles.
 Requested convergence on MAX density matrix=1.00D-02.
 Requested convergence on             energy=1.00D-02.
 No special actions if energy rises.
 EnCoef did     5 forward-backward iterations
 SCF Done:  E(RB+HF-LYP) =  -1997.24345611     A.U. after    8 cycles
             Convg  =    0.8037D-04             -V/T =  2.0031
             S**2   =   0.0000

 **********************************************************************

            Population analysis using the SCF density.

 **********************************************************************

 Orbital symmetries:
       Occupied  (A) (A) (A) (A) (A) (A) (A) (A) (A) (A) (A) (A)
                 (A) (A) (A) (A) (A) (A) (A) (A) (A) (A) (A) (A)
                 (A) (A) (A) (A) (A) (A) (A) (A) (A) (A) (A) (A)
                 (A) (A) (A) (A) (A) (A) (A)
       Virtual   (A) (A) (A) (A) (A) (A) (A) (A) (A) (A) (A) (A)
                 (A) (A) (A) (A) (A) (A) (A) (A) (A) (A) (A) (A)
                 (A) (A) (A) (A) (A) (A) (A) (A) (A) (A) (A) (A)
                 (A) (A) (A) (A) (A) (A) (A) (A) (A) (A) (A) (A)
                 (A) (A) (A) (A) (A) (A) (A) (A) (A) (A) (A) (A)
                 (A) (A) (A) (A) (A) (A) (A) (A) (A) (A) (A) (A)
                 (A) (A) (A) (A) (A) (A) (A) (A) (A) (A) (A) (A)
                 (A) (A) (A) (A) (A) (A) (A) (A) (A) (A) (A) (A)
                 (A) (A) (A) (A) (A) (A) (A) (A) (A) (A) (A) (A)
                 (A) (A)
 The electronic state is 1-A.
 Alpha  occ. eigenvalues -- -145.53180-145.49983 -77.33166 -19.37615 -19.31253
 Alpha  occ. eigenvalues --  -19.31063 -19.14541 -15.60002 -15.56898 -12.73239
 Alpha  occ. eigenvalues --  -12.73172 -12.73105 -12.70162 -12.70093 -12.69941
 Alpha  occ. eigenvalues --   -6.78895  -4.95227  -4.95178  -4.94659  -1.97074
 Alpha  occ. eigenvalues --   -1.94161  -1.25188  -1.24771  -1.23985  -1.23729
 Alpha  occ. eigenvalues --   -1.22094  -1.21498  -1.21130  -1.14499  -0.99931
 Alpha  occ. eigenvalues --   -0.88715  -0.71618  -0.62442  -0.59516  -0.57810
 Alpha  occ. eigenvalues --   -0.50956  -0.50475  -0.46068  -0.42905  -0.40975
 Alpha  occ. eigenvalues --   -0.34586  -0.32688  -0.32617
 Alpha virt. eigenvalues --   -0.22842  -0.21676  -0.18242  -0.15500  -0.13031
 Alpha virt. eigenvalues --   -0.12201  -0.11017  -0.10842  -0.09520  -0.07754
 Alpha virt. eigenvalues --   -0.07441  -0.06874  -0.06254  -0.05611  -0.05419
 Alpha virt. eigenvalues --   -0.04539  -0.04532  -0.04389  -0.03816  -0.03794
 Alpha virt. eigenvalues --   -0.03244  -0.02643   0.00525   0.01036   0.01517
 Alpha virt. eigenvalues --    0.02117   0.03094   0.03789   0.04269   0.04622
 Alpha virt. eigenvalues --    0.05631   0.05955   0.06063   0.06995   0.07376
 Alpha virt. eigenvalues --    0.08175   0.09187   0.09462   0.11976   0.12530
 Alpha virt. eigenvalues --    0.13115   0.14904   0.16704   0.16810   0.17359
 Alpha virt. eigenvalues --    0.19484   0.20085   0.21841   0.23761   0.24878
 Alpha virt. eigenvalues --    0.26128   0.29808   0.30961   0.32633   0.33290
 Alpha virt. eigenvalues --    0.33960   0.35879   0.37979   0.42118   0.44339
 Alpha virt. eigenvalues --    0.48072   0.50926   0.53664   0.54163   0.70579
 Alpha virt. eigenvalues --    0.73911   0.80596   0.89329   0.92274   0.98775
 Alpha virt. eigenvalues --    1.03532   1.05419   1.09408   1.10612   1.12807
 Alpha virt. eigenvalues --    1.13919   1.15132   1.23574   1.23865   1.26086
 Alpha virt. eigenvalues --    1.30035   1.33134   1.39047   1.41234   1.47412
 Alpha virt. eigenvalues --    1.55559   1.57136   1.59640   1.67115   1.73066
 Alpha virt. eigenvalues --    1.77962   1.80742   1.83051   1.83447   1.83985
 Alpha virt. eigenvalues --    1.84914   1.88755   1.90572   1.95138   2.03739
 Alpha virt. eigenvalues --    2.19885   2.26379   2.43314   2.65734   3.02992
 Alpha virt. eigenvalues --    3.37896   3.72734   3.86952   3.96480   4.14164
          Condensed to atoms (all electrons):
              1          2          3          4          5          6
     1  O    8.803796  -0.262445  -0.013698  -0.030200   0.063971  -0.003322
     2  O   -0.262445   8.626618  -0.061350  -0.031306   0.009494   0.026040
     3  P   -0.013698  -0.061350  14.081196   0.193595   0.012069  -0.005530
     4  O   -0.030200  -0.031306   0.193595   8.508250   0.001356   0.000468
     5  Ca   0.063971   0.009494   0.012069   0.001356  18.272318   0.220436
     6  O   -0.003322   0.026040  -0.005530   0.000468   0.220436   8.656012
     7  Ca   0.032415   0.028219  -0.033152   0.050702  -0.010991   0.205617
              7
     1  O    0.032415
     2  O    0.028219
     3  P   -0.033152
     4  O    0.050702
     5  Ca  -0.010991
     6  O    0.205617
     7  Ca  18.267034
 Mulliken atomic charges:
              1
     1  O   -0.590516
     2  O   -0.335270
     3  P    0.826870
     4  O   -0.692865
     5  Ca   1.431347
     6  O   -1.099721
     7  Ca   1.460156
 Sum of Mulliken charges=   1.00000
 Atomic charges with hydrogens summed into heavy atoms:
              1
     1  O   -0.590516
     2  O   -0.335270
     3  P    0.826870
     4  O   -0.692865
     5  Ca   1.431347
     6  O   -1.099721
     7  Ca   1.460156
 Sum of Mulliken charges=   1.00000
 Electronic spatial extent (au):  <R**2>=  1575.0266
 Charge=     1.0000 electrons
 Dipole moment (field-independent basis, Debye):
    X=    -3.4261    Y=    -2.3524    Z=    -0.0043  Tot=     4.1560
 Quadrupole moment (field-independent basis, Debye-Ang):
   XX=   -38.8657   YY=   -39.5222   ZZ=   -55.1865
   XY=    25.5820   XZ=     0.0265   YZ=     0.1451
 Traceless Quadrupole moment (field-independent basis, Debye-Ang):
   XX=     5.6591   YY=     5.0026   ZZ=   -10.6617
   XY=    25.5820   XZ=     0.0265   YZ=     0.1451
 Octapole moment (field-independent basis, Debye-Ang**2):
  XXX=   -53.5591  YYY=    29.3915  ZZZ=     0.0178  XYY=   -15.7624
  XXY=   -92.3705  XXZ=     0.0158  XZZ=    -4.2672  YZZ=    -0.0405
  YYZ=     0.0615  XYZ=    -0.0652
 Hexadecapole moment (field-independent basis, Debye-Ang**3):
 XXXX= -1097.0173 YYYY=  -418.6214 ZZZZ=   -60.2144 XXXY=   196.8748
 XXXZ=     0.3251 YYYX=    92.0186 YYYZ=     0.4201 ZZZX=     0.0771
 ZZZY=     0.2372 XXYY=  -292.2414 XXZZ=  -213.3452 YYZZ=   -87.6122
 XXYZ=     0.3645 YYXZ=     0.0534 ZZXY=    21.0568
 N-N= 5.857848195031D+02 E-N=-5.890657404255D+03  KE= 1.991069458604D+03
 Merz-Kollman atomic radii used.
 Read replacement radii for each type of atom:
 Rad(20) =   1.188000000000D+00
 Atom Element Radius
    1     8    1.40
    2     8    1.40
    3    15    1.80
    4     8    1.40
    5    20    1.19
    6     8    1.40
    7    20    1.19

 **********************************************************************

            Electrostatic Properties Using The SCF Density

 **********************************************************************

       Atomic Center    1 is at  -0.051602 -0.755801  0.010471
       Atomic Center    2 is at   1.183387 -1.543602  0.005681
       Atomic Center    3 is at   2.555088 -0.675784 -0.003779
       Atomic Center    4 is at   2.181140  0.798027 -0.005879
       Atomic Center    5 is at  -2.355282 -0.984939 -0.003039
       Atomic Center    6 is at  -2.118110  1.111571 -0.003389
       Atomic Center    7 is at  -0.038960  1.647699  0.003121
     719 points will be used for fitting atomic charges
 Fitting point charges to eletrostatic potential
 Charges from ESP fit, RMS=   0.00546 RRMS=   0.03601:
 Charge=   1.00000 Dipole=    -3.4876    -2.5099    -0.0119 Tot=     4.2968
              1
     1  O   -0.779264
     2  O   -0.115676
     3  P    0.576190
     4  O   -0.566141
     5  Ca   1.645931
     6  O   -1.452103
     7  Ca   1.691063
 -----------------------------------------------------------------

              Electrostatic Properties (Atomic Units)

 -----------------------------------------------------------------
    Center     Electric         -------- Electric Field --------
               Potential          X             Y             Z
 -----------------------------------------------------------------
    1 Atom    -22.151254
    2 Atom    -22.092946
    3 Atom    -53.890122
    4 Atom    -22.157280
    5 Atom    -80.008751
    6 Atom    -22.316811
    7 Atom    -80.040727
 -----------------------------------------------------------------
 1\1\GINC-N031\SP\RB3LYP\6-31+G(d,p)\Ca2O4P1(1+)\TIMN\12-Jun-2015\0\\# 
 b3lyp/6-31+G(d,p) int=ultrafine pop=(ReadRadii,MK)\\mol_16.5.9.pdb_plu
 sQ.out.z51634.zip.xyz\\1,1\O,0,-0.0516,-0.7558,0.01047\O,0,1.18339,-1.
 5436,0.00568\P,0,2.55509,-0.67578,-0.00378\O,0,2.18114,0.79803,-0.0058
 8\Ca,0,-2.35528,-0.98494,-0.00304\O,0,-2.11811,1.11157,-0.00339\Ca,0,-
 0.03896,1.6477,0.00312\\Version=EM64T-G03RevE.01\State=1-A\HF=-1997.24
 34561\RMSD=8.037e-05\Thermal=0.\Dipole=-1.3479343,-0.9255135,-0.001684
 1\PG=C01 [X(Ca2O4P1)]\\@


 IBM COMPATIBILITY IS LIKE PREGNANCY. YOU ARE OR
 OR YOU ARE NOT. -- ADAM OSBORNE
 Job cpu time:  0 days  0 hours  0 minutes 57.4 seconds.
 File lengths (MBytes):  RWF=     28 Int=      0 D2E=      0 Chk=     10 Scr=      1
 Normal termination of Gaussian 03 at Fri Jun 12 17:49:45 2015.
