 Entering Gaussian System, Link 0=/home/timn/tmp/g03.e01/g03
 Input=mol_17.28.58.pdbcc_plusQ.z58583.zip.xyz.gjf
 Output=mol_17.28.58.pdbcc_plusQ.z58583.zip.xyz.out
 Initial command:
 /home/timn/tmp/g03.e01/l1.exe /home/timn/tmp/g03.e01/Gau-13791.inp -scrdir=/home/timn/tmp/g03.e01/
 Default is to use a total of   2 processors:
                                2 via shared-memory
                                1 via Linda
 Entering Link 1 = /home/timn/tmp/g03.e01/l1.exe PID=     13792.
  
 Copyright (c) 1988,1990,1992,1993,1995,1998,2003,2004,2007, Gaussian, Inc.
                  All Rights Reserved.
  
 This is the Gaussian(R) 03 program.  It is based on the
 the Gaussian(R) 98 system (copyright 1998, Gaussian, Inc.),
 the Gaussian(R) 94 system (copyright 1995, Gaussian, Inc.),
 the Gaussian 92(TM) system (copyright 1992, Gaussian, Inc.),
 the Gaussian 90(TM) system (copyright 1990, Gaussian, Inc.),
 the Gaussian 88(TM) system (copyright 1988, Gaussian, Inc.),
 the Gaussian 86(TM) system (copyright 1986, Carnegie Mellon
 University), and the Gaussian 82(TM) system (copyright 1983,
 Carnegie Mellon University). Gaussian is a federally registered
 trademark of Gaussian, Inc.
  
 This software contains proprietary and confidential information,
 including trade secrets, belonging to Gaussian, Inc.
  
 This software is provided under written license and may be
 used, copied, transmitted, or stored only in accord with that
 written license.
  
 The following legend is applicable only to US Government
 contracts under FAR:
  
                    RESTRICTED RIGHTS LEGEND
  
 Use, reproduction and disclosure by the US Government is
 subject to restrictions as set forth in subparagraphs (a)
 and (c) of the Commercial Computer Software - Restricted
 Rights clause in FAR 52.227-19.
  
 Gaussian, Inc.
 340 Quinnipiac St., Bldg. 40, Wallingford CT 06492
  
  
 ---------------------------------------------------------------
 Warning -- This program may not be used in any manner that
 competes with the business of Gaussian, Inc. or will provide
 assistance to any competitor of Gaussian, Inc.  The licensee
 of this program is prohibited from giving any competitor of
 Gaussian, Inc. access to this program.  By using this program,
 the user acknowledges that Gaussian, Inc. is engaged in the
 business of creating and licensing software in the field of
 computational chemistry and represents and warrants to the
 licensee that it is not a competitor of Gaussian, Inc. and that
 it will not use this program in any manner prohibited above.
 ---------------------------------------------------------------
  

 Cite this work as:
 Gaussian 03, Revision E.01,
 M. J. Frisch, G. W. Trucks, H. B. Schlegel, G. E. Scuseria, 
 M. A. Robb, J. R. Cheeseman, J. A. Montgomery, Jr., T. Vreven, 
 K. N. Kudin, J. C. Burant, J. M. Millam, S. S. Iyengar, J. Tomasi, 
 V. Barone, B. Mennucci, M. Cossi, G. Scalmani, N. Rega, 
 G. A. Petersson, H. Nakatsuji, M. Hada, M. Ehara, K. Toyota, 
 R. Fukuda, J. Hasegawa, M. Ishida, T. Nakajima, Y. Honda, O. Kitao, 
 H. Nakai, M. Klene, X. Li, J. E. Knox, H. P. Hratchian, J. B. Cross, 
 V. Bakken, C. Adamo, J. Jaramillo, R. Gomperts, R. E. Stratmann, 
 O. Yazyev, A. J. Austin, R. Cammi, C. Pomelli, J. W. Ochterski, 
 P. Y. Ayala, K. Morokuma, G. A. Voth, P. Salvador, J. J. Dannenberg, 
 V. G. Zakrzewski, S. Dapprich, A. D. Daniels, M. C. Strain, 
 O. Farkas, D. K. Malick, A. D. Rabuck, K. Raghavachari, 
 J. B. Foresman, J. V. Ortiz, Q. Cui, A. G. Baboul, S. Clifford, 
 J. Cioslowski, B. B. Stefanov, G. Liu, A. Liashenko, P. Piskorz, 
 I. Komaromi, R. L. Martin, D. J. Fox, T. Keith, M. A. Al-Laham, 
 C. Y. Peng, A. Nanayakkara, M. Challacombe, P. M. W. Gill, 
 B. Johnson, W. Chen, M. W. Wong, C. Gonzalez, and J. A. Pople, 
 Gaussian, Inc., Wallingford CT, 2004.
 
 ******************************************
 Gaussian 03:  EM64T-G03RevE.01 11-Sep-2007
                12-Jun-2015 
 ******************************************
 %nproc=2
 Will use up to    2 processors via shared memory.
 Default route:  MP2=Direct MaxDisk=2000MB
 ----------------------------------------------------
 # b3lyp/6-31+G(d,p) int=ultrafine pop=(ReadRadii,MK)
 ----------------------------------------------------

 Warning!  SCF SP cutoffs with diffuse functions may be unreliable.
 Consider SCF=Tight

 1/38=1/1;
 2/17=6,18=5,40=1/2;
 3/5=1,6=6,7=111,11=2,16=1,25=1,30=1,74=-5,75=5/1,2,3;
 4//1;
 5/5=2,32=1,38=5/2;
 6/7=2,8=2,9=2,10=2,15=8,20=101,28=1/1,2;
 99/5=1,9=1/99;
 ---------------------------------------
 mol_17.28.58.pdbcc_plusQ.z58583.zip.xyz
 ---------------------------------------
 Symbolic Z-matrix:
 Charge =  1 Multiplicity = 1
 O                     0.67386  -0.00126   1.47175 
 O                    -2.07217  -0.00217   1.39689 
 P                    -0.68034  -0.00106   0.73509 
 Ca                    1.63837  -1.69411  -0.11471 
 O                     2.64239   0.00112  -0.93451 
 O                    -0.70762   1.25435  -0.28842 
 Ca                   -2.69727   0.00075  -0.86512 
 Ca                    1.63722   1.69494  -0.11331 
 O                    -0.70663  -1.25402  -0.29114 
 
                          Input orientation:                          
 ---------------------------------------------------------------------
 Center     Atomic     Atomic              Coordinates (Angstroms)
 Number     Number      Type              X           Y           Z
 ---------------------------------------------------------------------
    1          8             0        0.673860   -0.001260    1.471750
    2          8             0       -2.072170   -0.002170    1.396890
    3         15             0       -0.680340   -0.001060    0.735090
    4         20             0        1.638370   -1.694110   -0.114710
    5          8             0        2.642390    0.001120   -0.934510
    6          8             0       -0.707620    1.254350   -0.288420
    7         20             0       -2.697270    0.000750   -0.865120
    8         20             0        1.637220    1.694940   -0.113310
    9          8             0       -0.706630   -1.254020   -0.291140
 ---------------------------------------------------------------------
                    Distance matrix (angstroms):
                    1          2          3          4          5
     1  O    0.000000
     2  O    2.747050   0.000000
     3  P    1.541598   1.541159   0.000000
     4  Ca   2.512544   4.349219   2.994160   0.000000
     5  O    3.108891   5.259516   3.718616   2.133995   0.000000
     6  O    2.565783   2.506214   1.619991   3.771904   3.634637
     7  Ca   4.101888   2.346795   2.574623   4.715235   5.340111
     8  Ca   2.513478   4.349766   2.994542   3.389050   2.133955
     9  O    2.565724   2.506247   1.619799   2.392453   3.633901
                    6          7          8          9
     6  O    0.000000
     7  Ca   2.421323   0.000000
     8  Ca   2.392291   4.714160   0.000000
     9  O    2.508372   2.422096   3.771157   0.000000
 Stoichiometry    Ca3O5P(1+)
 Framework group  C1[X(Ca3O5P)]
 Deg. of freedom    21
 Full point group                 C1
 Largest Abelian subgroup         C1      NOp   1
 Largest concise Abelian subgroup C1      NOp   1
                         Standard orientation:                         
 ---------------------------------------------------------------------
 Center     Atomic     Atomic              Coordinates (Angstroms)
 Number     Number      Type              X           Y           Z
 ---------------------------------------------------------------------
    1          8             0        0.673861   -0.001258    1.471749
    2          8             0       -2.072169   -0.002172    1.396889
    3         15             0       -0.680339   -0.001060    0.735089
    4         20             0        1.638373   -1.694106   -0.114711
    5          8             0        2.642391    0.001126   -0.934511
    6          8             0       -0.707622    1.254350   -0.288421
    7         20             0       -2.697269    0.000747   -0.865121
    8         20             0        1.637218    1.694944   -0.113311
    9          8             0       -0.706627   -1.254020   -0.291141
 ---------------------------------------------------------------------
 Rotational constants (GHZ):      1.2325968      0.5922811      0.5039177
 Standard basis: 6-31+G(d,p) (6D, 7F)
 There are   199 symmetry adapted basis functions of A   symmetry.
 Integral buffers will be    131072 words long.
 Raffenetti 2 integral format.
 Two-electron integral symmetry is turned on.
   199 basis functions,   456 primitive gaussians,   199 cartesian basis functions
    57 alpha electrons       57 beta electrons
       nuclear repulsion energy      1056.8949635303 Hartrees.
 NAtoms=    9 NActive=    9 NUniq=    9 SFac= 7.50D-01 NAtFMM=   80 NAOKFM=F Big=F
 One-electron integrals computed using PRISM.
 NBasis=   199 RedAO= T  NBF=   199
 NBsUse=   199 1.00D-06 NBFU=   199
 Harris functional with IExCor=  402 diagonalized for initial guess.
 ExpMin= 7.10D-03 ExpMax= 3.53D+04 ExpMxC= 5.30D+03 IAcc=3 IRadAn=         5 AccDes= 0.00D+00
 HarFok:  IExCor= 402 AccDes= 0.00D+00 IRadAn=         5 IDoV=1
 ScaDFX=  1.000000  1.000000  1.000000  1.000000
 Initial guess orbital symmetries:
       Occupied  (A) (A) (A) (A) (A) (A) (A) (A) (A) (A) (A) (A)
                 (A) (A) (A) (A) (A) (A) (A) (A) (A) (A) (A) (A)
                 (A) (A) (A) (A) (A) (A) (A) (A) (A) (A) (A) (A)
                 (A) (A) (A) (A) (A) (A) (A) (A) (A) (A) (A) (A)
                 (A) (A) (A) (A) (A) (A) (A) (A) (A)
       Virtual   (A) (A) (A) (A) (A) (A) (A) (A) (A) (A) (A) (A)
                 (A) (A) (A) (A) (A) (A) (A) (A) (A) (A) (A) (A)
                 (A) (A) (A) (A) (A) (A) (A) (A) (A) (A) (A) (A)
                 (A) (A) (A) (A) (A) (A) (A) (A) (A) (A) (A) (A)
                 (A) (A) (A) (A) (A) (A) (A) (A) (A) (A) (A) (A)
                 (A) (A) (A) (A) (A) (A) (A) (A) (A) (A) (A) (A)
                 (A) (A) (A) (A) (A) (A) (A) (A) (A) (A) (A) (A)
                 (A) (A) (A) (A) (A) (A) (A) (A) (A) (A) (A) (A)
                 (A) (A) (A) (A) (A) (A) (A) (A) (A) (A) (A) (A)
                 (A) (A) (A) (A) (A) (A) (A) (A) (A) (A) (A) (A)
                 (A) (A) (A) (A) (A) (A) (A) (A) (A) (A) (A) (A)
                 (A) (A) (A) (A) (A) (A) (A) (A) (A) (A)
 The electronic state of the initial guess is 1-A.
 Requested convergence on RMS density matrix=1.00D-04 within 128 cycles.
 Requested convergence on MAX density matrix=1.00D-02.
 Requested convergence on             energy=1.00D-02.
 No special actions if energy rises.
 EnCoef did     2 forward-backward iterations
 EnCoef did     4 forward-backward iterations
 SCF Done:  E(RB+HF-LYP) =  -2750.29808239     A.U. after   10 cycles
             Convg  =    0.1832D-04             -V/T =  2.0030
             S**2   =   0.0000

 **********************************************************************

            Population analysis using the SCF density.

 **********************************************************************

 Orbital symmetries:
       Occupied  (A) (A) (A) (A) (A) (A) (A) (A) (A) (A) (A) (A)
                 (A) (A) (A) (A) (A) (A) (A) (A) (A) (A) (A) (A)
                 (A) (A) (A) (A) (A) (A) (A) (A) (A) (A) (A) (A)
                 (A) (A) (A) (A) (A) (A) (A) (A) (A) (A) (A) (A)
                 (A) (A) (A) (A) (A) (A) (A) (A) (A)
       Virtual   (A) (A) (A) (A) (A) (A) (A) (A) (A) (A) (A) (A)
                 (A) (A) (A) (A) (A) (A) (A) (A) (A) (A) (A) (A)
                 (A) (A) (A) (A) (A) (A) (A) (A) (A) (A) (A) (A)
                 (A) (A) (A) (A) (A) (A) (A) (A) (A) (A) (A) (A)
                 (A) (A) (A) (A) (A) (A) (A) (A) (A) (A) (A) (A)
                 (A) (A) (A) (A) (A) (A) (A) (A) (A) (A) (A) (A)
                 (A) (A) (A) (A) (A) (A) (A) (A) (A) (A) (A) (A)
                 (A) (A) (A) (A) (A) (A) (A) (A) (A) (A) (A) (A)
                 (A) (A) (A) (A) (A) (A) (A) (A) (A) (A) (A) (A)
                 (A) (A) (A) (A) (A) (A) (A) (A) (A) (A) (A) (A)
                 (A) (A) (A) (A) (A) (A) (A) (A) (A) (A) (A) (A)
                 (A) (A) (A) (A) (A) (A) (A) (A) (A) (A)
 The electronic state is 1-A.
 Alpha  occ. eigenvalues -- -145.57954-145.47231-145.47227 -77.31601 -19.23824
 Alpha  occ. eigenvalues --  -19.22926 -19.22924 -19.21457 -19.10167 -15.64606
 Alpha  occ. eigenvalues --  -15.54061 -15.54058 -12.77807 -12.77804 -12.77793
 Alpha  occ. eigenvalues --  -12.67282 -12.67279 -12.67271 -12.67268 -12.67144
 Alpha  occ. eigenvalues --  -12.67142  -6.76214  -4.92587  -4.92575  -4.92462
 Alpha  occ. eigenvalues --   -2.01384  -1.91284  -1.91230  -1.29239  -1.28565
 Alpha  occ. eigenvalues --   -1.28537  -1.19732  -1.18939  -1.18883  -1.18830
 Alpha  occ. eigenvalues --   -1.18546  -1.17839  -1.13226  -1.05730  -1.03317
 Alpha  occ. eigenvalues --   -1.03275  -0.84392  -0.62850  -0.54545  -0.53753
 Alpha  occ. eigenvalues --   -0.52822  -0.46976  -0.46090  -0.44541  -0.42824
 Alpha  occ. eigenvalues --   -0.42134  -0.39664  -0.39017  -0.36423  -0.30214
 Alpha  occ. eigenvalues --   -0.28473  -0.28398
 Alpha virt. eigenvalues --   -0.23009  -0.17080  -0.15715  -0.13320  -0.13267
 Alpha virt. eigenvalues --   -0.10168  -0.09206  -0.08565  -0.07815  -0.07318
 Alpha virt. eigenvalues --   -0.07160  -0.05943  -0.05553  -0.05159  -0.04888
 Alpha virt. eigenvalues --   -0.04709  -0.03888  -0.03881  -0.03766  -0.03460
 Alpha virt. eigenvalues --   -0.03341  -0.02884  -0.02875  -0.02478  -0.02042
 Alpha virt. eigenvalues --   -0.00260  -0.00252   0.00432   0.00868   0.01373
 Alpha virt. eigenvalues --    0.02174   0.03152   0.03272   0.03541   0.04187
 Alpha virt. eigenvalues --    0.04800   0.05369   0.05861   0.06985   0.07144
 Alpha virt. eigenvalues --    0.07879   0.08708   0.09158   0.09350   0.09830
 Alpha virt. eigenvalues --    0.10582   0.10876   0.11749   0.12392   0.12680
 Alpha virt. eigenvalues --    0.13039   0.14789   0.15436   0.16516   0.18296
 Alpha virt. eigenvalues --    0.19045   0.20104   0.20294   0.20814   0.22363
 Alpha virt. eigenvalues --    0.23185   0.23270   0.23819   0.26002   0.27052
 Alpha virt. eigenvalues --    0.27392   0.29007   0.29605   0.29766   0.32086
 Alpha virt. eigenvalues --    0.32956   0.36118   0.37275   0.39364   0.42057
 Alpha virt. eigenvalues --    0.44091   0.45604   0.45975   0.52172   0.55075
 Alpha virt. eigenvalues --    0.56229   0.58446   0.60040   0.61394   0.73984
 Alpha virt. eigenvalues --    0.77602   0.79915   0.93442   0.96326   0.99207
 Alpha virt. eigenvalues --    1.07583   1.14520   1.15624   1.16627   1.16847
 Alpha virt. eigenvalues --    1.18786   1.19621   1.21698   1.23481   1.23619
 Alpha virt. eigenvalues --    1.25903   1.27034   1.28288   1.29348   1.30101
 Alpha virt. eigenvalues --    1.34063   1.43457   1.52081   1.52853   1.60123
 Alpha virt. eigenvalues --    1.68804   1.71644   1.72016   1.73738   1.75138
 Alpha virt. eigenvalues --    1.76527   1.78024   1.78688   1.80412   1.83863
 Alpha virt. eigenvalues --    1.85033   1.88195   1.89156   1.90268   1.94973
 Alpha virt. eigenvalues --    1.96526   1.98590   2.03621   2.05299   2.11950
 Alpha virt. eigenvalues --    2.16980   2.19570   2.53909   2.65308   2.74826
 Alpha virt. eigenvalues --    2.80182   3.47863   4.00074   4.05771   4.06648
 Alpha virt. eigenvalues --    4.11938   4.31188
          Condensed to atoms (all electrons):
              1          2          3          4          5          6
     1  O    8.895124  -0.120123   0.228954   0.045344   0.010067  -0.103280
     2  O   -0.120123   8.914666   0.007941   0.009685   0.000386  -0.032143
     3  P    0.228954   0.007941  12.861480   0.017524  -0.000341   0.013155
     4  Ca   0.045344   0.009685   0.017524  18.329652   0.211103  -0.006683
     5  O    0.010067   0.000386  -0.000341   0.211103   8.725994  -0.000515
     6  O   -0.103280  -0.032143   0.013155  -0.006683  -0.000515   8.998421
     7  Ca   0.026681   0.084767   0.036007  -0.007269   0.004326   0.082110
     8  Ca   0.045247   0.009692   0.017574  -0.027714   0.211174   0.041463
     9  O   -0.103368  -0.032255   0.013398   0.041452  -0.000480   0.062600
              7          8          9
     1  O    0.026681   0.045247  -0.103368
     2  O    0.084767   0.009692  -0.032255
     3  P    0.036007   0.017574   0.013398
     4  Ca  -0.007269  -0.027714   0.041452
     5  O    0.004326   0.211174  -0.000480
     6  O    0.082110   0.041463   0.062600
     7  Ca  18.237740  -0.007293   0.082016
     8  Ca  -0.007293  18.329634  -0.006722
     9  O    0.082016  -0.006722   8.998329
 Mulliken atomic charges:
              1
     1  O   -0.924647
     2  O   -0.842616
     3  P    1.804310
     4  Ca   1.386905
     5  O   -1.161715
     6  O   -1.055128
     7  Ca   1.460915
     8  Ca   1.386946
     9  O   -1.054970
 Sum of Mulliken charges=   1.00000
 Atomic charges with hydrogens summed into heavy atoms:
              1
     1  O   -0.924647
     2  O   -0.842616
     3  P    1.804310
     4  Ca   1.386905
     5  O   -1.161715
     6  O   -1.055128
     7  Ca   1.460915
     8  Ca   1.386946
     9  O   -1.054970
 Sum of Mulliken charges=   1.00000
 Electronic spatial extent (au):  <R**2>=  2146.2709
 Charge=     1.0000 electrons
 Dipole moment (field-independent basis, Debye):
    X=    -7.1087    Y=     0.0084    Z=    -5.8442  Tot=     9.2026
 Quadrupole moment (field-independent basis, Debye-Ang):
   XX=   -40.1312   YY=   -41.8551   ZZ=   -83.9389
   XY=    -0.0448   XZ=    35.4655   YZ=     0.0186
 Traceless Quadrupole moment (field-independent basis, Debye-Ang):
   XX=    15.1772   YY=    13.4533   ZZ=   -28.6305
   XY=    -0.0448   XZ=    35.4655   YZ=     0.0186
 Octapole moment (field-independent basis, Debye-Ang**2):
  XXX=  -205.9185  YYY=     0.0659  ZZZ=   -28.0484  XYY=    82.5943
  XXY=    -0.0115  XXZ=   -41.8620  XZZ=   -30.7251  YZZ=     0.0266
  YYZ=    -5.6257  XYZ=     0.0616
 Hexadecapole moment (field-independent basis, Debye-Ang**3):
 XXXX= -1215.0803 YYYY=  -404.3117 ZZZZ=  -391.1287 XXXY=    -0.5210
 XXXZ=   359.6521 YYYX=    -0.0175 YYYZ=     0.0593 ZZZX=   103.0862
 ZZZY=     0.0683 XXYY=  -195.3586 XXZZ=  -311.7291 YYZZ=  -145.3962
 XXYZ=     0.1171 YYXZ=    10.2594 ZZXY=    -0.0894
 N-N= 1.056894963530D+03 E-N=-8.614506078104D+03  KE= 2.742196437638D+03
 Merz-Kollman atomic radii used.
 Read replacement radii for each type of atom:
 Rad(20) =   1.188000000000D+00
 Atom Element Radius
    1     8    1.40
    2     8    1.40
    3    15    1.80
    4    20    1.19
    5     8    1.40
    6     8    1.40
    7    20    1.19
    8    20    1.19
    9     8    1.40

 **********************************************************************

            Electrostatic Properties Using The SCF Density

 **********************************************************************

       Atomic Center    1 is at   0.673861 -0.001258  1.471749
       Atomic Center    2 is at  -2.072169 -0.002172  1.396889
       Atomic Center    3 is at  -0.680339 -0.001060  0.735089
       Atomic Center    4 is at   1.638373 -1.694106 -0.114711
       Atomic Center    5 is at   2.642391  0.001126 -0.934511
       Atomic Center    6 is at  -0.707622  1.254350 -0.288421
       Atomic Center    7 is at  -2.697269  0.000747 -0.865121
       Atomic Center    8 is at   1.637218  1.694944 -0.113311
       Atomic Center    9 is at  -0.706627 -1.254020 -0.291141
     748 points will be used for fitting atomic charges
 Fitting point charges to eletrostatic potential
 Charges from ESP fit, RMS=   0.00449 RRMS=   0.02820:
 Charge=   1.00000 Dipole=    -6.9256     0.0085    -5.8195 Tot=     9.0460
              1
     1  O   -0.957756
     2  O   -0.906562
     3  P    1.683767
     4  Ca   1.675238
     5  O   -1.520062
     6  O   -1.194187
     7  Ca   1.738433
     8  Ca   1.675201
     9  O   -1.194072
 -----------------------------------------------------------------

              Electrostatic Properties (Atomic Units)

 -----------------------------------------------------------------
    Center     Electric         -------- Electric Field --------
               Potential          X             Y             Z
 -----------------------------------------------------------------
    1 Atom    -22.225555
    2 Atom    -22.248888
    3 Atom    -53.889247
    4 Atom    -80.068646
    5 Atom    -22.360153
    6 Atom    -22.233869
    7 Atom    -79.960665
    8 Atom    -80.068621
    9 Atom    -22.233883
 -----------------------------------------------------------------
 1\1\GINC-N034\SP\RB3LYP\6-31+G(d,p)\Ca3O5P1(1+)\TIMN\12-Jun-2015\0\\# 
 b3lyp/6-31+G(d,p) int=ultrafine pop=(ReadRadii,MK)\\mol_17.28.58.pdbcc
 _plusQ.z58583.zip.xyz\\1,1\O,0,0.67386,-0.00126,1.47175\O,0,-2.07217,-
 0.00217,1.39689\P,0,-0.68034,-0.00106,0.73509\Ca,0,1.63837,-1.69411,-0
 .11471\O,0,2.64239,0.00112,-0.93451\O,0,-0.70762,1.25435,-0.28842\Ca,0
 ,-2.69727,0.00075,-0.86512\Ca,0,1.63722,1.69494,-0.11331\O,0,-0.70663,
 -1.25402,-0.29114\\Version=EM64T-G03RevE.01\State=1-A\HF=-2750.2980824
 \RMSD=1.832e-05\Thermal=0.\Dipole=-2.7967754,0.0033076,-2.2992916\PG=C
 01 [X(Ca3O5P1)]\\@


 Sometimes the fool who rushes in gets the job done.
                                    -- Al Bernstein
 Job cpu time:  0 days  0 hours  2 minutes 40.2 seconds.
 File lengths (MBytes):  RWF=     36 Int=      0 D2E=      0 Chk=     11 Scr=      1
 Normal termination of Gaussian 03 at Fri Jun 12 18:11:30 2015.
