 Entering Gaussian System, Link 0=/home/timn/tmp/g03.e01/g03
 Input=mol_16.5.7.pdb_plusQ.out.z51632.zip.xyz.gjf
 Output=mol_16.5.7.pdb_plusQ.out.z51632.zip.xyz.out
 Initial command:
 /home/timn/tmp/g03.e01/l1.exe /home/timn/tmp/g03.e01/Gau-19372.inp -scrdir=/home/timn/tmp/g03.e01/
 Default is to use a total of   2 processors:
                                2 via shared-memory
                                1 via Linda
 Entering Link 1 = /home/timn/tmp/g03.e01/l1.exe PID=     19373.
  
 Copyright (c) 1988,1990,1992,1993,1995,1998,2003,2004,2007, Gaussian, Inc.
                  All Rights Reserved.
  
 This is the Gaussian(R) 03 program.  It is based on the
 the Gaussian(R) 98 system (copyright 1998, Gaussian, Inc.),
 the Gaussian(R) 94 system (copyright 1995, Gaussian, Inc.),
 the Gaussian 92(TM) system (copyright 1992, Gaussian, Inc.),
 the Gaussian 90(TM) system (copyright 1990, Gaussian, Inc.),
 the Gaussian 88(TM) system (copyright 1988, Gaussian, Inc.),
 the Gaussian 86(TM) system (copyright 1986, Carnegie Mellon
 University), and the Gaussian 82(TM) system (copyright 1983,
 Carnegie Mellon University). Gaussian is a federally registered
 trademark of Gaussian, Inc.
  
 This software contains proprietary and confidential information,
 including trade secrets, belonging to Gaussian, Inc.
  
 This software is provided under written license and may be
 used, copied, transmitted, or stored only in accord with that
 written license.
  
 The following legend is applicable only to US Government
 contracts under FAR:
  
                    RESTRICTED RIGHTS LEGEND
  
 Use, reproduction and disclosure by the US Government is
 subject to restrictions as set forth in subparagraphs (a)
 and (c) of the Commercial Computer Software - Restricted
 Rights clause in FAR 52.227-19.
  
 Gaussian, Inc.
 340 Quinnipiac St., Bldg. 40, Wallingford CT 06492
  
  
 ---------------------------------------------------------------
 Warning -- This program may not be used in any manner that
 competes with the business of Gaussian, Inc. or will provide
 assistance to any competitor of Gaussian, Inc.  The licensee
 of this program is prohibited from giving any competitor of
 Gaussian, Inc. access to this program.  By using this program,
 the user acknowledges that Gaussian, Inc. is engaged in the
 business of creating and licensing software in the field of
 computational chemistry and represents and warrants to the
 licensee that it is not a competitor of Gaussian, Inc. and that
 it will not use this program in any manner prohibited above.
 ---------------------------------------------------------------
  

 Cite this work as:
 Gaussian 03, Revision E.01,
 M. J. Frisch, G. W. Trucks, H. B. Schlegel, G. E. Scuseria, 
 M. A. Robb, J. R. Cheeseman, J. A. Montgomery, Jr., T. Vreven, 
 K. N. Kudin, J. C. Burant, J. M. Millam, S. S. Iyengar, J. Tomasi, 
 V. Barone, B. Mennucci, M. Cossi, G. Scalmani, N. Rega, 
 G. A. Petersson, H. Nakatsuji, M. Hada, M. Ehara, K. Toyota, 
 R. Fukuda, J. Hasegawa, M. Ishida, T. Nakajima, Y. Honda, O. Kitao, 
 H. Nakai, M. Klene, X. Li, J. E. Knox, H. P. Hratchian, J. B. Cross, 
 V. Bakken, C. Adamo, J. Jaramillo, R. Gomperts, R. E. Stratmann, 
 O. Yazyev, A. J. Austin, R. Cammi, C. Pomelli, J. W. Ochterski, 
 P. Y. Ayala, K. Morokuma, G. A. Voth, P. Salvador, J. J. Dannenberg, 
 V. G. Zakrzewski, S. Dapprich, A. D. Daniels, M. C. Strain, 
 O. Farkas, D. K. Malick, A. D. Rabuck, K. Raghavachari, 
 J. B. Foresman, J. V. Ortiz, Q. Cui, A. G. Baboul, S. Clifford, 
 J. Cioslowski, B. B. Stefanov, G. Liu, A. Liashenko, P. Piskorz, 
 I. Komaromi, R. L. Martin, D. J. Fox, T. Keith, M. A. Al-Laham, 
 C. Y. Peng, A. Nanayakkara, M. Challacombe, P. M. W. Gill, 
 B. Johnson, W. Chen, M. W. Wong, C. Gonzalez, and J. A. Pople, 
 Gaussian, Inc., Wallingford CT, 2004.
 
 ******************************************
 Gaussian 03:  EM64T-G03RevE.01 11-Sep-2007
                12-Jun-2015 
 ******************************************
 %nproc=2
 Will use up to    2 processors via shared memory.
 Default route:  MP2=Direct MaxDisk=2000MB
 ----------------------------------------------------
 # b3lyp/6-31+G(d,p) int=ultrafine pop=(ReadRadii,MK)
 ----------------------------------------------------

 Warning!  SCF SP cutoffs with diffuse functions may be unreliable.
 Consider SCF=Tight

 1/38=1/1;
 2/17=6,18=5,40=1/2;
 3/5=1,6=6,7=111,11=2,16=1,25=1,30=1,74=-5,75=5/1,2,3;
 4//1;
 5/5=2,32=1,38=5/2;
 6/7=2,8=2,9=2,10=2,15=8,20=101,28=1/1,2;
 99/5=1,9=1/99;
 ---------------------------------------
 mol_16.5.7.pdb_plusQ.out.z51632.zip.xyz
 ---------------------------------------
 Symbolic Z-matrix:
 Charge =  1 Multiplicity = 1
 O                    -2.38063   0.98174   0.08339 
 O                    -1.07226   0.99138  -0.70881 
 P                     0.14132   1.02549   0.50039 
 O                     1.47898   1.31871  -0.29996 
 O                     0.2956   -0.7614    0.55754 
 Ca                   -1.86674  -1.13833  -0.09044 
 Ca                    2.43208  -0.64295  -0.13772 
 
                          Input orientation:                          
 ---------------------------------------------------------------------
 Center     Atomic     Atomic              Coordinates (Angstroms)
 Number     Number      Type              X           Y           Z
 ---------------------------------------------------------------------
    1          8             0       -2.380630    0.981740    0.083390
    2          8             0       -1.072260    0.991380   -0.708810
    3         15             0        0.141320    1.025490    0.500390
    4          8             0        1.478980    1.318710   -0.299960
    5          8             0        0.295600   -0.761400    0.557540
    6         20             0       -1.866740   -1.138330   -0.090440
    7         20             0        2.432080   -0.642950   -0.137720
 ---------------------------------------------------------------------
                    Distance matrix (angstroms):
                    1          2          3          4          5
     1  O    0.000000
     2  O    1.529544   0.000000
     3  P    2.556567   1.713507   0.000000
     4  O    3.893211   2.604444   1.586150   0.000000
     5  O    3.228864   2.558695   1.794448   2.542155   0.000000
     6  Ca   2.188378   2.355683   3.010565   4.156295   2.288595
     7  Ca   5.084357   3.908654   2.904902   2.186969   2.249881
                    6          7
     6  Ca   0.000000
     7  Ca   4.327527   0.000000
 Stoichiometry    Ca2O4P(1+)
 Framework group  C1[X(Ca2O4P)]
 Deg. of freedom    15
 Full point group                 C1
 Largest Abelian subgroup         C1      NOp   1
 Largest concise Abelian subgroup C1      NOp   1
                         Standard orientation:                         
 ---------------------------------------------------------------------
 Center     Atomic     Atomic              Coordinates (Angstroms)
 Number     Number      Type              X           Y           Z
 ---------------------------------------------------------------------
    1          8             0       -2.380632    0.981736    0.083391
    2          8             0       -1.072262    0.991377   -0.708809
    3         15             0        0.141318    1.025488    0.500391
    4          8             0        1.478977    1.318709   -0.299959
    5          8             0        0.295599   -0.761402    0.557541
    6         20             0       -1.866740   -1.138334   -0.090439
    7         20             0        2.432079   -0.642950   -0.137719
 ---------------------------------------------------------------------
 Rotational constants (GHZ):      2.6254618      0.9271715      0.7316104
 Standard basis: 6-31+G(d,p) (6D, 7F)
 There are   153 symmetry adapted basis functions of A   symmetry.
 Integral buffers will be    131072 words long.
 Raffenetti 2 integral format.
 Two-electron integral symmetry is turned on.
   153 basis functions,   344 primitive gaussians,   153 cartesian basis functions
    43 alpha electrons       43 beta electrons
       nuclear repulsion energy       621.1680924659 Hartrees.
 NAtoms=    7 NActive=    7 NUniq=    7 SFac= 7.50D-01 NAtFMM=   80 NAOKFM=F Big=F
 One-electron integrals computed using PRISM.
 NBasis=   153 RedAO= T  NBF=   153
 NBsUse=   153 1.00D-06 NBFU=   153
 Harris functional with IExCor=  402 diagonalized for initial guess.
 ExpMin= 7.10D-03 ExpMax= 3.53D+04 ExpMxC= 5.30D+03 IAcc=3 IRadAn=         5 AccDes= 0.00D+00
 HarFok:  IExCor= 402 AccDes= 0.00D+00 IRadAn=         5 IDoV=1
 ScaDFX=  1.000000  1.000000  1.000000  1.000000
 Initial guess orbital symmetries:
       Occupied  (A) (A) (A) (A) (A) (A) (A) (A) (A) (A) (A) (A)
                 (A) (A) (A) (A) (A) (A) (A) (A) (A) (A) (A) (A)
                 (A) (A) (A) (A) (A) (A) (A) (A) (A) (A) (A) (A)
                 (A) (A) (A) (A) (A) (A) (A)
       Virtual   (A) (A) (A) (A) (A) (A) (A) (A) (A) (A) (A) (A)
                 (A) (A) (A) (A) (A) (A) (A) (A) (A) (A) (A) (A)
                 (A) (A) (A) (A) (A) (A) (A) (A) (A) (A) (A) (A)
                 (A) (A) (A) (A) (A) (A) (A) (A) (A) (A) (A) (A)
                 (A) (A) (A) (A) (A) (A) (A) (A) (A) (A) (A) (A)
                 (A) (A) (A) (A) (A) (A) (A) (A) (A) (A) (A) (A)
                 (A) (A) (A) (A) (A) (A) (A) (A) (A) (A) (A) (A)
                 (A) (A) (A) (A) (A) (A) (A) (A) (A) (A) (A) (A)
                 (A) (A) (A) (A) (A) (A) (A) (A) (A) (A) (A) (A)
                 (A) (A)
 The electronic state of the initial guess is 1-A.
 Requested convergence on RMS density matrix=1.00D-04 within 128 cycles.
 Requested convergence on MAX density matrix=1.00D-02.
 Requested convergence on             energy=1.00D-02.
 No special actions if energy rises.
 SCF Done:  E(RB+HF-LYP) =  -1997.24495201     A.U. after    8 cycles
             Convg  =    0.2372D-04             -V/T =  2.0031
             S**2   =   0.0000

 **********************************************************************

            Population analysis using the SCF density.

 **********************************************************************

 Orbital symmetries:
       Occupied  (A) (A) (A) (A) (A) (A) (A) (A) (A) (A) (A) (A)
                 (A) (A) (A) (A) (A) (A) (A) (A) (A) (A) (A) (A)
                 (A) (A) (A) (A) (A) (A) (A) (A) (A) (A) (A) (A)
                 (A) (A) (A) (A) (A) (A) (A)
       Virtual   (A) (A) (A) (A) (A) (A) (A) (A) (A) (A) (A) (A)
                 (A) (A) (A) (A) (A) (A) (A) (A) (A) (A) (A) (A)
                 (A) (A) (A) (A) (A) (A) (A) (A) (A) (A) (A) (A)
                 (A) (A) (A) (A) (A) (A) (A) (A) (A) (A) (A) (A)
                 (A) (A) (A) (A) (A) (A) (A) (A) (A) (A) (A) (A)
                 (A) (A) (A) (A) (A) (A) (A) (A) (A) (A) (A) (A)
                 (A) (A) (A) (A) (A) (A) (A) (A) (A) (A) (A) (A)
                 (A) (A) (A) (A) (A) (A) (A) (A) (A) (A) (A) (A)
                 (A) (A) (A) (A) (A) (A) (A) (A) (A) (A) (A) (A)
                 (A) (A)
 The electronic state is 1-A.
 Alpha  occ. eigenvalues -- -145.57625-145.54058 -77.27106 -19.28973 -19.24804
 Alpha  occ. eigenvalues --  -19.23671 -19.23172 -15.64461 -15.60902 -12.77697
 Alpha  occ. eigenvalues --  -12.77604 -12.77593 -12.74136 -12.74074 -12.74009
 Alpha  occ. eigenvalues --   -6.72323  -4.88693  -4.88640  -4.88088  -2.01497
 Alpha  occ. eigenvalues --   -1.98041  -1.29160  -1.28950  -1.28617  -1.26148
 Alpha  occ. eigenvalues --   -1.25667  -1.25153  -1.13831  -1.07234  -1.02478
 Alpha  occ. eigenvalues --   -0.91046  -0.65398  -0.54248  -0.53009  -0.51787
 Alpha  occ. eigenvalues --   -0.48108  -0.46657  -0.44267  -0.41890  -0.40443
 Alpha  occ. eigenvalues --   -0.35081  -0.34072  -0.33524
 Alpha virt. eigenvalues --   -0.24373  -0.21746  -0.15902  -0.14860  -0.13528
 Alpha virt. eigenvalues --   -0.12388  -0.11258  -0.09439  -0.08527  -0.08139
 Alpha virt. eigenvalues --   -0.07201  -0.06546  -0.05818  -0.05466  -0.05144
 Alpha virt. eigenvalues --   -0.04539  -0.04266  -0.04073  -0.03440  -0.01985
 Alpha virt. eigenvalues --   -0.01493  -0.01149  -0.00107   0.01043   0.01613
 Alpha virt. eigenvalues --    0.01998   0.02246   0.02658   0.02800   0.03739
 Alpha virt. eigenvalues --    0.04156   0.05259   0.05366   0.05863   0.06342
 Alpha virt. eigenvalues --    0.06961   0.08559   0.09677   0.11276   0.14491
 Alpha virt. eigenvalues --    0.14801   0.15290   0.17130   0.18927   0.19708
 Alpha virt. eigenvalues --    0.20757   0.21770   0.22987   0.23702   0.25161
 Alpha virt. eigenvalues --    0.27094   0.28039   0.29874   0.31292   0.34863
 Alpha virt. eigenvalues --    0.35982   0.36508   0.37720   0.41825   0.47356
 Alpha virt. eigenvalues --    0.49157   0.57604   0.59792   0.64504   0.71635
 Alpha virt. eigenvalues --    0.76405   0.82941   0.87730   0.93094   1.09398
 Alpha virt. eigenvalues --    1.11020   1.12041   1.13578   1.14965   1.16643
 Alpha virt. eigenvalues --    1.19267   1.20209   1.21073   1.22888   1.26451
 Alpha virt. eigenvalues --    1.30245   1.44235   1.50823   1.54878   1.56737
 Alpha virt. eigenvalues --    1.58922   1.65940   1.72158   1.73218   1.74066
 Alpha virt. eigenvalues --    1.77991   1.79639   1.80303   1.84810   1.86312
 Alpha virt. eigenvalues --    1.89187   1.89711   1.92876   1.95830   2.18939
 Alpha virt. eigenvalues --    2.23012   2.30263   2.41657   2.63962   3.07442
 Alpha virt. eigenvalues --    3.49528   3.92334   3.99242   4.05493   4.21522
          Condensed to atoms (all electrons):
              1          2          3          4          5          6
     1  O    8.324448   0.042318  -0.013690   0.000608   0.020908   0.162878
     2  O    0.042318   8.479634  -0.245097   0.101164   0.013043   0.048455
     3  P   -0.013690  -0.245097  14.668307  -0.196813  -0.171595  -0.042019
     4  O    0.000608   0.101164  -0.196813   8.789027  -0.007642   0.017871
     5  O    0.020908   0.013043  -0.171595  -0.007642   9.055054   0.085575
     6  Ca   0.162878   0.048455  -0.042019   0.017871   0.085575  18.267385
     7  Ca   0.002671   0.009947   0.003735   0.145952   0.103271   0.000152
              7
     1  O    0.002671
     2  O    0.009947
     3  P    0.003735
     4  O    0.145952
     5  O    0.103271
     6  Ca   0.000152
     7  Ca  18.252759
 Mulliken atomic charges:
              1
     1  O   -0.540141
     2  O   -0.449465
     3  P    0.997173
     4  O   -0.850167
     5  O   -1.098615
     6  Ca   1.459703
     7  Ca   1.481513
 Sum of Mulliken charges=   1.00000
 Atomic charges with hydrogens summed into heavy atoms:
              1
     1  O   -0.540141
     2  O   -0.449465
     3  P    0.997173
     4  O   -0.850167
     5  O   -1.098615
     6  Ca   1.459703
     7  Ca   1.481513
 Sum of Mulliken charges=   1.00000
 Electronic spatial extent (au):  <R**2>=  1363.5787
 Charge=     1.0000 electrons
 Dipole moment (field-independent basis, Debye):
    X=     6.6207    Y=   -15.4781    Z=    -1.6804  Tot=    16.9183
 Quadrupole moment (field-independent basis, Debye-Ang):
   XX=    -8.4525   YY=   -52.2308   ZZ=   -60.1181
   XY=     7.3358   XZ=    -0.8350   YZ=     5.7341
 Traceless Quadrupole moment (field-independent basis, Debye-Ang):
   XX=    31.8146   YY=   -11.9637   ZZ=   -19.8510
   XY=     7.3358   XZ=    -0.8350   YZ=     5.7341
 Octapole moment (field-independent basis, Debye-Ang**2):
  XXX=   103.3464  YYY=   -49.0654  ZZZ=    -9.3471  XYY=   -13.1297
  XXY=  -102.5076  XXZ=    -6.4177  XZZ=     4.2762  YZZ=   -13.9528
  YYZ=    -4.2659  XYZ=     2.8345
 Hexadecapole moment (field-independent basis, Debye-Ang**3):
 XXXX=  -629.2777 YYYY=  -380.6133 ZZZZ=  -128.4671 XXXY=    18.9437
 XXXZ=   -12.1372 YYYX=    29.2858 YYYZ=     7.2040 ZZZX=    -1.7115
 ZZZY=     2.5900 XXYY=  -186.9926 XXZZ=  -169.8527 YYZZ=   -90.9502
 XXYZ=    13.0724 YYXZ=     1.9807 ZZXY=     6.2836
 N-N= 6.211680924659D+02 E-N=-5.961748426517D+03  KE= 1.991077449215D+03
 Merz-Kollman atomic radii used.
 Read replacement radii for each type of atom:
 Rad(20) =   1.188000000000D+00
 Atom Element Radius
    1     8    1.40
    2     8    1.40
    3    15    1.80
    4     8    1.40
    5     8    1.40
    6    20    1.19
    7    20    1.19

 **********************************************************************

            Electrostatic Properties Using The SCF Density

 **********************************************************************

       Atomic Center    1 is at  -2.380632  0.981736  0.083391
       Atomic Center    2 is at  -1.072262  0.991377 -0.708809
       Atomic Center    3 is at   0.141318  1.025488  0.500391
       Atomic Center    4 is at   1.478977  1.318709 -0.299959
       Atomic Center    5 is at   0.295599 -0.761402  0.557541
       Atomic Center    6 is at  -1.866740 -1.138334 -0.090439
       Atomic Center    7 is at   2.432079 -0.642950 -0.137719
     649 points will be used for fitting atomic charges
 Fitting point charges to eletrostatic potential
 Charges from ESP fit, RMS=   0.00760 RRMS=   0.04494:
 Charge=   1.00000 Dipole=     6.7664   -15.8085    -1.7998 Tot=    17.2896
              1
     1  O   -0.622044
     2  O   -0.302410
     3  P    0.585252
     4  O   -0.740728
     5  O   -1.212688
     6  Ca   1.636038
     7  Ca   1.656581
 -----------------------------------------------------------------

              Electrostatic Properties (Atomic Units)

 -----------------------------------------------------------------
    Center     Electric         -------- Electric Field --------
               Potential          X             Y             Z
 -----------------------------------------------------------------
    1 Atom    -22.236551
    2 Atom    -22.180299
    3 Atom    -53.945394
    4 Atom    -22.231503
    5 Atom    -22.217042
    6 Atom    -80.000191
    7 Atom    -79.965217
 -----------------------------------------------------------------
 1\1\GINC-N026\SP\RB3LYP\6-31+G(d,p)\Ca2O4P1(1+)\TIMN\12-Jun-2015\0\\# 
 b3lyp/6-31+G(d,p) int=ultrafine pop=(ReadRadii,MK)\\mol_16.5.7.pdb_plu
 sQ.out.z51632.zip.xyz\\1,1\O,0,-2.38063,0.98174,0.08339\O,0,-1.07226,0
 .99138,-0.70881\P,0,0.14132,1.02549,0.50039\O,0,1.47898,1.31871,-0.299
 96\O,0,0.2956,-0.7614,0.55754\Ca,0,-1.86674,-1.13833,-0.09044\Ca,0,2.4
 3208,-0.64295,-0.13772\\Version=EM64T-G03RevE.01\State=1-A\HF=-1997.24
 4952\RMSD=2.372e-05\Thermal=0.\Dipole=2.6047797,-6.089561,-0.6611157\P
 G=C01 [X(Ca2O4P1)]\\@


 THE ONLY EXISTING THINGS ARE ATOMS AND EMPTY SPACE;
 ALL ELSE IS MERE OPINION. -- DEMOCRITUS OF ABDERA D. 370 B.C.
 EXPERIMENTS ARE THE ONLY MEANS OF KNOWLEDGE AT OUR DISPOSAL
 THE REST IS POETRY, IMAGINATION. -- MAX PLANCK
 Job cpu time:  0 days  0 hours  0 minutes 58.6 seconds.
 File lengths (MBytes):  RWF=     28 Int=      0 D2E=      0 Chk=     10 Scr=      1
 Normal termination of Gaussian 03 at Fri Jun 12 17:49:44 2015.
