 Entering Gaussian System, Link 0=/home/timn/tmp/g03.e01/g03
 Input=mol_17.23.38.pdb_plusQ.z58239.zip.xyz.gjf
 Output=mol_17.23.38.pdb_plusQ.z58239.zip.xyz.out
 Initial command:
 /home/timn/tmp/g03.e01/l1.exe /home/timn/tmp/g03.e01/Gau-14627.inp -scrdir=/home/timn/tmp/g03.e01/
 Default is to use a total of   2 processors:
                                2 via shared-memory
                                1 via Linda
 Entering Link 1 = /home/timn/tmp/g03.e01/l1.exe PID=     14628.
  
 Copyright (c) 1988,1990,1992,1993,1995,1998,2003,2004,2007, Gaussian, Inc.
                  All Rights Reserved.
  
 This is the Gaussian(R) 03 program.  It is based on the
 the Gaussian(R) 98 system (copyright 1998, Gaussian, Inc.),
 the Gaussian(R) 94 system (copyright 1995, Gaussian, Inc.),
 the Gaussian 92(TM) system (copyright 1992, Gaussian, Inc.),
 the Gaussian 90(TM) system (copyright 1990, Gaussian, Inc.),
 the Gaussian 88(TM) system (copyright 1988, Gaussian, Inc.),
 the Gaussian 86(TM) system (copyright 1986, Carnegie Mellon
 University), and the Gaussian 82(TM) system (copyright 1983,
 Carnegie Mellon University). Gaussian is a federally registered
 trademark of Gaussian, Inc.
  
 This software contains proprietary and confidential information,
 including trade secrets, belonging to Gaussian, Inc.
  
 This software is provided under written license and may be
 used, copied, transmitted, or stored only in accord with that
 written license.
  
 The following legend is applicable only to US Government
 contracts under FAR:
  
                    RESTRICTED RIGHTS LEGEND
  
 Use, reproduction and disclosure by the US Government is
 subject to restrictions as set forth in subparagraphs (a)
 and (c) of the Commercial Computer Software - Restricted
 Rights clause in FAR 52.227-19.
  
 Gaussian, Inc.
 340 Quinnipiac St., Bldg. 40, Wallingford CT 06492
  
  
 ---------------------------------------------------------------
 Warning -- This program may not be used in any manner that
 competes with the business of Gaussian, Inc. or will provide
 assistance to any competitor of Gaussian, Inc.  The licensee
 of this program is prohibited from giving any competitor of
 Gaussian, Inc. access to this program.  By using this program,
 the user acknowledges that Gaussian, Inc. is engaged in the
 business of creating and licensing software in the field of
 computational chemistry and represents and warrants to the
 licensee that it is not a competitor of Gaussian, Inc. and that
 it will not use this program in any manner prohibited above.
 ---------------------------------------------------------------
  

 Cite this work as:
 Gaussian 03, Revision E.01,
 M. J. Frisch, G. W. Trucks, H. B. Schlegel, G. E. Scuseria, 
 M. A. Robb, J. R. Cheeseman, J. A. Montgomery, Jr., T. Vreven, 
 K. N. Kudin, J. C. Burant, J. M. Millam, S. S. Iyengar, J. Tomasi, 
 V. Barone, B. Mennucci, M. Cossi, G. Scalmani, N. Rega, 
 G. A. Petersson, H. Nakatsuji, M. Hada, M. Ehara, K. Toyota, 
 R. Fukuda, J. Hasegawa, M. Ishida, T. Nakajima, Y. Honda, O. Kitao, 
 H. Nakai, M. Klene, X. Li, J. E. Knox, H. P. Hratchian, J. B. Cross, 
 V. Bakken, C. Adamo, J. Jaramillo, R. Gomperts, R. E. Stratmann, 
 O. Yazyev, A. J. Austin, R. Cammi, C. Pomelli, J. W. Ochterski, 
 P. Y. Ayala, K. Morokuma, G. A. Voth, P. Salvador, J. J. Dannenberg, 
 V. G. Zakrzewski, S. Dapprich, A. D. Daniels, M. C. Strain, 
 O. Farkas, D. K. Malick, A. D. Rabuck, K. Raghavachari, 
 J. B. Foresman, J. V. Ortiz, Q. Cui, A. G. Baboul, S. Clifford, 
 J. Cioslowski, B. B. Stefanov, G. Liu, A. Liashenko, P. Piskorz, 
 I. Komaromi, R. L. Martin, D. J. Fox, T. Keith, M. A. Al-Laham, 
 C. Y. Peng, A. Nanayakkara, M. Challacombe, P. M. W. Gill, 
 B. Johnson, W. Chen, M. W. Wong, C. Gonzalez, and J. A. Pople, 
 Gaussian, Inc., Wallingford CT, 2004.
 
 ******************************************
 Gaussian 03:  EM64T-G03RevE.01 11-Sep-2007
                12-Jun-2015 
 ******************************************
 %nproc=2
 Will use up to    2 processors via shared memory.
 Default route:  MP2=Direct MaxDisk=2000MB
 ----------------------------------------------------
 # b3lyp/6-31+G(d,p) int=ultrafine pop=(ReadRadii,MK)
 ----------------------------------------------------

 Warning!  SCF SP cutoffs with diffuse functions may be unreliable.
 Consider SCF=Tight

 1/38=1/1;
 2/17=6,18=5,40=1/2;
 3/5=1,6=6,7=111,11=2,16=1,25=1,30=1,74=-5,75=5/1,2,3;
 4//1;
 5/5=2,32=1,38=5/2;
 6/7=2,8=2,9=2,10=2,15=8,20=101,28=1/1,2;
 99/5=1,9=1/99;
 -------------------------------------
 mol_17.23.38.pdb_plusQ.z58239.zip.xyz
 -------------------------------------
 Symbolic Z-matrix:
 Charge =  1 Multiplicity = 1
 O                    -1.597    -2.69541   0. 
 P                    -0.38249  -3.61222   0. 
 O                     0.94562  -2.68388   0. 
 O                     0.73699  -1.2395    0. 
 Ca                    2.1622    0.67413   0. 
 Ca                    0.12973   3.6853    0. 
 O                     0.        1.40326   0. 
 O                    -1.44444   1.94467   0. 
 Ca                   -1.46153  -0.34192   0. 
 
                          Input orientation:                          
 ---------------------------------------------------------------------
 Center     Atomic     Atomic              Coordinates (Angstroms)
 Number     Number      Type              X           Y           Z
 ---------------------------------------------------------------------
    1          8             0       -1.597000   -2.695410    0.000000
    2         15             0       -0.382490   -3.612220    0.000000
    3          8             0        0.945620   -2.683880    0.000000
    4          8             0        0.736990   -1.239500    0.000000
    5         20             0        2.162200    0.674130    0.000000
    6         20             0        0.129730    3.685300    0.000000
    7          8             0        0.000000    1.403260    0.000000
    8          8             0       -1.444440    1.944670    0.000000
    9         20             0       -1.461530   -0.341920    0.000000
 ---------------------------------------------------------------------
                    Distance matrix (angstroms):
                    1          2          3          4          5
     1  O    0.000000
     2  P    1.521701   0.000000
     3  O    2.542646   1.620399   0.000000
     4  O    2.750851   2.623554   1.459370   0.000000
     5  Ca   5.048305   4.984801   3.571596   2.386043   0.000000
     6  Ca   6.610224   7.315475   6.421225   4.962098   3.632916
     7  O    4.398807   5.030044   4.195106   2.743599   2.281828
     8  O    4.642587   5.657452   5.209209   3.859738   3.823889
     9  Ca   2.357386   3.443717   3.358444   2.374687   3.763479
                    6          7          8          9
     6  Ca   0.000000
     7  O    2.285724   0.000000
     8  O    2.346871   1.542573   0.000000
     9  Ca   4.330197   2.276340   2.286654   0.000000
 Stoichiometry    Ca3O5P(1+)
 Framework group  CS[SG(Ca3O5P)]
 Deg. of freedom    15
 Full point group                 CS
 Largest Abelian subgroup         CS      NOp   2
 Largest concise Abelian subgroup C1      NOp   1
                         Standard orientation:                         
 ---------------------------------------------------------------------
 Center     Atomic     Atomic              Coordinates (Angstroms)
 Number     Number      Type              X           Y           Z
 ---------------------------------------------------------------------
    1          8             0       -1.597000   -2.695410    0.000000
    2         15             0       -0.382490   -3.612220    0.000000
    3          8             0        0.945620   -2.683880    0.000000
    4          8             0        0.736990   -1.239500    0.000000
    5         20             0        2.162200    0.674130    0.000000
    6         20             0        0.129730    3.685300    0.000000
    7          8             0        0.000000    1.403260    0.000000
    8          8             0       -1.444440    1.944670    0.000000
    9         20             0       -1.461530   -0.341920    0.000000
 ---------------------------------------------------------------------
 Rotational constants (GHZ):      1.3954746      0.3799698      0.2986509
 Standard basis: 6-31+G(d,p) (6D, 7F)
 There are   147 symmetry adapted basis functions of A'  symmetry.
 There are    52 symmetry adapted basis functions of A"  symmetry.
 Integral buffers will be    131072 words long.
 Raffenetti 2 integral format.
 Two-electron integral symmetry is turned on.
   199 basis functions,   456 primitive gaussians,   199 cartesian basis functions
    57 alpha electrons       57 beta electrons
       nuclear repulsion energy       935.8812879984 Hartrees.
 NAtoms=    9 NActive=    9 NUniq=    9 SFac= 7.50D-01 NAtFMM=   80 NAOKFM=F Big=F
 One-electron integrals computed using PRISM.
 NBasis=   199 RedAO= T  NBF=   147    52
 NBsUse=   199 1.00D-06 NBFU=   147    52
 Harris functional with IExCor=  402 diagonalized for initial guess.
 ExpMin= 7.10D-03 ExpMax= 3.53D+04 ExpMxC= 5.30D+03 IAcc=3 IRadAn=         5 AccDes= 0.00D+00
 HarFok:  IExCor= 402 AccDes= 0.00D+00 IRadAn=         5 IDoV=1
 ScaDFX=  1.000000  1.000000  1.000000  1.000000
 Initial guess orbital symmetries:
       Occupied  (A') (A') (A') (A') (A') (A') (A') (A') (A') (A')
                 (A') (A') (A') (A') (A") (A') (A') (A") (A') (A')
                 (A") (A') (A') (A') (A") (A') (A') (A') (A') (A')
                 (A') (A') (A') (A') (A") (A') (A") (A") (A') (A')
                 (A') (A') (A') (A') (A') (A') (A') (A") (A") (A")
                 (A') (A') (A') (A") (A") (A') (A')
       Virtual   (A') (A") (A') (A') (A') (A") (A') (A') (A") (A")
                 (A') (A') (A') (A') (A') (A') (A') (A") (A') (A")
                 (A') (A') (A") (A') (A') (A') (A') (A') (A") (A')
                 (A') (A") (A") (A") (A') (A') (A') (A') (A") (A')
                 (A') (A") (A") (A') (A') (A") (A') (A') (A') (A')
                 (A') (A") (A') (A") (A') (A") (A') (A') (A') (A")
                 (A') (A") (A') (A') (A') (A") (A') (A') (A') (A")
                 (A') (A') (A") (A') (A') (A') (A') (A') (A') (A')
                 (A') (A') (A") (A") (A') (A') (A') (A') (A") (A')
                 (A') (A") (A') (A") (A") (A') (A') (A") (A') (A')
                 (A') (A') (A') (A') (A') (A') (A') (A") (A') (A")
                 (A') (A') (A') (A") (A') (A") (A') (A") (A') (A")
                 (A') (A') (A') (A") (A") (A') (A') (A') (A") (A')
                 (A") (A') (A') (A') (A') (A') (A') (A') (A') (A')
                 (A') (A')
 The electronic state of the initial guess is 1-A'.
 Requested convergence on RMS density matrix=1.00D-04 within 128 cycles.
 Requested convergence on MAX density matrix=1.00D-02.
 Requested convergence on             energy=1.00D-02.
 No special actions if energy rises.
 EnCoef did     5 forward-backward iterations
 SCF Done:  E(RB+HF-LYP) =  -2750.02741739     A.U. after   10 cycles
             Convg  =    0.5549D-04             -V/T =  2.0029
             S**2   =   0.0000

 **********************************************************************

            Population analysis using the SCF density.

 **********************************************************************

 Orbital symmetries:
       Occupied  (A') (A') (A') (A') (A') (A') (A') (A') (A') (A')
                 (A') (A') (A") (A') (A') (A") (A') (A') (A") (A')
                 (A') (A') (A") (A') (A') (A') (A') (A') (A') (A')
                 (A") (A") (A') (A") (A') (A') (A') (A') (A') (A')
                 (A') (A') (A') (A') (A') (A") (A') (A") (A') (A')
                 (A") (A') (A') (A") (A') (A") (A')
       Virtual   (A") (A') (A') (A') (A") (A') (A') (A") (A') (A")
                 (A') (A') (A') (A') (A') (A') (A') (A") (A') (A')
                 (A") (A') (A") (A') (A') (A') (A') (A") (A') (A')
                 (A') (A") (A') (A') (A") (A") (A') (A') (A') (A")
                 (A") (A') (A") (A') (A") (A') (A') (A') (A') (A")
                 (A') (A') (A") (A') (A") (A') (A') (A') (A') (A")
                 (A') (A") (A') (A') (A") (A') (A') (A') (A") (A")
                 (A') (A') (A') (A') (A') (A') (A') (A') (A') (A')
                 (A') (A') (A") (A") (A') (A') (A') (A') (A') (A')
                 (A") (A') (A") (A") (A") (A') (A') (A") (A') (A')
                 (A') (A') (A') (A') (A') (A') (A') (A') (A") (A")
                 (A') (A') (A') (A') (A") (A') (A") (A") (A') (A')
                 (A") (A') (A") (A") (A') (A') (A') (A') (A") (A')
                 (A") (A') (A') (A') (A') (A') (A') (A') (A') (A')
                 (A') (A')
 The electronic state is 1-A'.
 Alpha  occ. eigenvalues -- -145.51099-145.50828-145.50529 -77.32885 -19.37662
 Alpha  occ. eigenvalues --  -19.31007 -19.30984 -19.26975 -19.26803 -15.57972
 Alpha  occ. eigenvalues --  -15.57686 -15.57473 -12.71181 -12.71137 -12.71088
 Alpha  occ. eigenvalues --  -12.70970 -12.70868 -12.70753 -12.70688 -12.70642
 Alpha  occ. eigenvalues --  -12.70561  -6.78641  -4.94966  -4.94924  -4.94404
 Alpha  occ. eigenvalues --   -1.95025  -1.94930  -1.94578  -1.24706  -1.23612
 Alpha  occ. eigenvalues --   -1.22898  -1.22519  -1.22459  -1.22127  -1.22122
 Alpha  occ. eigenvalues --   -1.22086  -1.21816  -1.21662  -1.14473  -1.10316
 Alpha  occ. eigenvalues --   -0.99880  -0.90798  -0.71556  -0.62484  -0.59383
 Alpha  occ. eigenvalues --   -0.57737  -0.52145  -0.50872  -0.50467  -0.49792
 Alpha  occ. eigenvalues --   -0.47889  -0.46061  -0.42671  -0.40696  -0.38477
 Alpha  occ. eigenvalues --   -0.34822  -0.25211
 Alpha virt. eigenvalues --   -0.22634  -0.19572  -0.18113  -0.15487  -0.14075
 Alpha virt. eigenvalues --   -0.13070  -0.12023  -0.11252  -0.10755  -0.10673
 Alpha virt. eigenvalues --   -0.09793  -0.08122  -0.07605  -0.07449  -0.06745
 Alpha virt. eigenvalues --   -0.06642  -0.06533  -0.05525  -0.05207  -0.04889
 Alpha virt. eigenvalues --   -0.04731  -0.04383  -0.04289  -0.04165  -0.03493
 Alpha virt. eigenvalues --   -0.03161  -0.03135  -0.02742  -0.02285  -0.01998
 Alpha virt. eigenvalues --    0.00215   0.01435   0.02055   0.02422   0.02455
 Alpha virt. eigenvalues --    0.03165   0.03561   0.03826   0.04856   0.05022
 Alpha virt. eigenvalues --    0.05421   0.05935   0.06308   0.07064   0.07358
 Alpha virt. eigenvalues --    0.07366   0.07741   0.08706   0.08981   0.09099
 Alpha virt. eigenvalues --    0.09363   0.10437   0.10810   0.11850   0.12603
 Alpha virt. eigenvalues --    0.13810   0.14522   0.16007   0.16342   0.16773
 Alpha virt. eigenvalues --    0.18952   0.19828   0.20361   0.21943   0.23297
 Alpha virt. eigenvalues --    0.25173   0.25866   0.28856   0.29581   0.30676
 Alpha virt. eigenvalues --    0.31011   0.32348   0.33157   0.34073   0.35541
 Alpha virt. eigenvalues --    0.37527   0.38447   0.39898   0.41260   0.44099
 Alpha virt. eigenvalues --    0.48459   0.49999   0.51303   0.54326   0.59506
 Alpha virt. eigenvalues --    0.69583   0.81293   0.81951   0.90727   0.94229
 Alpha virt. eigenvalues --    0.99295   1.00699   1.02996   1.06121   1.09338
 Alpha virt. eigenvalues --    1.09626   1.10447   1.10449   1.13306   1.15042
 Alpha virt. eigenvalues --    1.18146   1.23078   1.26799   1.30171   1.33169
 Alpha virt. eigenvalues --    1.34577   1.35618   1.39327   1.40960   1.47528
 Alpha virt. eigenvalues --    1.50380   1.53804   1.56379   1.58658   1.59577
 Alpha virt. eigenvalues --    1.63746   1.66566   1.69959   1.75262   1.76762
 Alpha virt. eigenvalues --    1.77095   1.79675   1.81388   1.85096   1.86135
 Alpha virt. eigenvalues --    1.89747   1.93755   2.03279   2.17594   2.19683
 Alpha virt. eigenvalues --    2.20565   2.26418   2.44351   2.66251   3.01629
 Alpha virt. eigenvalues --    3.06447   3.38396   3.73353   3.82922   3.94320
 Alpha virt. eigenvalues --    4.09780   4.16861
          Condensed to atoms (all electrons):
              1          2          3          4          5          6
     1  O    8.499760   0.179745  -0.041364  -0.020820  -0.005050   0.002991
     2  P    0.179745  14.108650  -0.002904  -0.072458   0.012896  -0.002400
     3  O   -0.041364  -0.002904   8.365154  -0.008662   0.031143   0.010672
     4  O   -0.020820  -0.072458  -0.008662   8.554507  -0.046380  -0.010472
     5  Ca  -0.005050   0.012896   0.031143  -0.046380  19.062923   0.329901
     6  Ca   0.002991  -0.002400   0.010672  -0.010472   0.329901  18.945601
     7  O    0.001316  -0.002288  -0.005647   0.028201  -0.133416  -0.155937
     8  O    0.000163   0.001604  -0.000611  -0.003848   0.008648   0.089536
     9  Ca   0.054292  -0.021474  -0.011560   0.065470   0.037759   0.014151
              7          8          9
     1  O    0.001316   0.000163   0.054292
     2  P   -0.002288   0.001604  -0.021474
     3  O   -0.005647  -0.000611  -0.011560
     4  O    0.028201  -0.003848   0.065470
     5  Ca  -0.133416   0.008648   0.037759
     6  Ca  -0.155937   0.089536   0.014151
     7  O    8.825050  -0.070594   0.043610
     8  O   -0.070594   8.525423   0.126461
     9  Ca   0.043610   0.126461  18.267587
 Mulliken atomic charges:
              1
     1  O   -0.671032
     2  P    0.798629
     3  O   -0.336221
     4  O   -0.485538
     5  Ca   0.701577
     6  Ca   0.775956
     7  O   -0.530295
     8  O   -0.676781
     9  Ca   1.423705
 Sum of Mulliken charges=   1.00000
 Atomic charges with hydrogens summed into heavy atoms:
              1
     1  O   -0.671032
     2  P    0.798629
     3  O   -0.336221
     4  O   -0.485538
     5  Ca   0.701577
     6  Ca   0.775956
     7  O   -0.530295
     8  O   -0.676781
     9  Ca   1.423705
 Sum of Mulliken charges=   1.00000
 Electronic spatial extent (au):  <R**2>=  3151.3130
 Charge=     1.0000 electrons
 Dipole moment (field-independent basis, Debye):
    X=    -1.8667    Y=     2.3281    Z=     0.0000  Tot=     2.9841
 Quadrupole moment (field-independent basis, Debye-Ang):
   XX=   -71.2631   YY=   -47.6034   ZZ=   -84.2421
   XY=    -1.0583   XZ=     0.0000   YZ=     0.0000
 Traceless Quadrupole moment (field-independent basis, Debye-Ang):
   XX=    -3.5602   YY=    20.0995   ZZ=   -16.5392
   XY=    -1.0583   XZ=     0.0000   YZ=     0.0000
 Octapole moment (field-independent basis, Debye-Ang**2):
  XXX=   -28.8401  YYY=    62.8413  ZZZ=     0.0000  XYY=   -37.5641
  XXY=   -28.6053  XXZ=     0.0000  XZZ=   -18.8084  YZZ=   -21.5375
  YYZ=     0.0000  XYZ=     0.0000
 Hexadecapole moment (field-independent basis, Debye-Ang**3):
 XXXX=  -933.0620 YYYY= -2360.7237 ZZZZ=  -156.4245 XXXY=  -227.2073
 XXXZ=     0.0000 YYYX=  -290.2362 YYYZ=     0.0000 ZZZX=     0.0000
 ZZZY=     0.0000 XXYY=  -837.6926 XXZZ=  -195.2847 YYZZ=  -556.3201
 XXYZ=     0.0000 YYXZ=     0.0000 ZZXY=   -66.4354
 N-N= 9.358812879984D+02 E-N=-8.368619032853D+03  KE= 2.742142968942D+03
 Symmetry A'   KE= 2.474430368022D+03
 Symmetry A"   KE= 2.677126009201D+02
 Merz-Kollman atomic radii used.
 Read replacement radii for each type of atom:
 Rad(20) =   1.188000000000D+00
 Atom Element Radius
    1     8    1.40
    2    15    1.80
    3     8    1.40
    4     8    1.40
    5    20    1.19
    6    20    1.19
    7     8    1.40
    8     8    1.40
    9    20    1.19

 **********************************************************************

            Electrostatic Properties Using The SCF Density

 **********************************************************************

       Atomic Center    1 is at  -1.597000 -2.695410  0.000000
       Atomic Center    2 is at  -0.382490 -3.612220  0.000000
       Atomic Center    3 is at   0.945620 -2.683880  0.000000
       Atomic Center    4 is at   0.736990 -1.239500  0.000000
       Atomic Center    5 is at   2.162200  0.674130  0.000000
       Atomic Center    6 is at   0.129730  3.685300  0.000000
       Atomic Center    7 is at   0.000000  1.403260  0.000000
       Atomic Center    8 is at  -1.444440  1.944670  0.000000
       Atomic Center    9 is at  -1.461530 -0.341920  0.000000
     826 points will be used for fitting atomic charges
 Fitting point charges to eletrostatic potential
 Charges from ESP fit, RMS=   0.02294 RRMS=   0.15569:
 Charge=   1.00000 Dipole=     1.5297     6.7496     0.0000 Tot=     6.9208
              1
     1  O   -0.576606
     2  P    0.482609
     3  O   -0.407569
     4  O    0.032074
     5  Ca   0.687670
     6  Ca   0.830167
     7  O   -1.172831
     8  O   -0.416556
     9  Ca   1.541043
 -----------------------------------------------------------------

              Electrostatic Properties (Atomic Units)

 -----------------------------------------------------------------
    Center     Electric         -------- Electric Field --------
               Potential          X             Y             Z
 -----------------------------------------------------------------
    1 Atom    -22.154619
    2 Atom    -53.888911
    3 Atom    -22.096999
    4 Atom    -22.161774
    5 Atom    -80.031770
    6 Atom    -80.036604
    7 Atom    -22.197451
    8 Atom    -22.203485
    9 Atom    -80.032033
 -----------------------------------------------------------------
 1\1\GINC-N030\SP\RB3LYP\6-31+G(d,p)\Ca3O5P1(1+)\TIMN\12-Jun-2015\0\\# 
 b3lyp/6-31+G(d,p) int=ultrafine pop=(ReadRadii,MK)\\mol_17.23.38.pdb_p
 lusQ.z58239.zip.xyz\\1,1\O,0,-1.597,-2.69541,0.\P,0,-0.38249,-3.61222,
 0.\O,0,0.94562,-2.68388,0.\O,0,0.73699,-1.2395,0.\Ca,0,2.1622,0.67413,
 0.\Ca,0,0.12973,3.6853,0.\O,0,0.,1.40326,0.\O,0,-1.44444,1.94467,0.\Ca
 ,0,-1.46153,-0.34192,0.\\Version=EM64T-G03RevE.01\State=1-A'\HF=-2750.
 0274174\RMSD=5.549e-05\Thermal=0.\Dipole=-0.7344343,0.9159344,0.\PG=CS
  [SG(Ca3O5P1)]\\@


 QUANTUM MECHANICS IS BOHRING -- M.S. GORDON
 Job cpu time:  0 days  0 hours  1 minutes 49.4 seconds.
 File lengths (MBytes):  RWF=     36 Int=      0 D2E=      0 Chk=     11 Scr=      1
 Normal termination of Gaussian 03 at Fri Jun 12 17:53:14 2015.
