 Entering Gaussian System, Link 0=/home/timn/tmp/g03.e01/g03
 Input=mol_17.22.54.pdbccc_plusQ.z58204.zip.xyz.gjf
 Output=mol_17.22.54.pdbccc_plusQ.z58204.zip.xyz.out
 Initial command:
 /home/timn/tmp/g03.e01/l1.exe /home/timn/tmp/g03.e01/Gau-19420.inp -scrdir=/home/timn/tmp/g03.e01/
 Default is to use a total of   2 processors:
                                2 via shared-memory
                                1 via Linda
 Entering Link 1 = /home/timn/tmp/g03.e01/l1.exe PID=     19421.
  
 Copyright (c) 1988,1990,1992,1993,1995,1998,2003,2004,2007, Gaussian, Inc.
                  All Rights Reserved.
  
 This is the Gaussian(R) 03 program.  It is based on the
 the Gaussian(R) 98 system (copyright 1998, Gaussian, Inc.),
 the Gaussian(R) 94 system (copyright 1995, Gaussian, Inc.),
 the Gaussian 92(TM) system (copyright 1992, Gaussian, Inc.),
 the Gaussian 90(TM) system (copyright 1990, Gaussian, Inc.),
 the Gaussian 88(TM) system (copyright 1988, Gaussian, Inc.),
 the Gaussian 86(TM) system (copyright 1986, Carnegie Mellon
 University), and the Gaussian 82(TM) system (copyright 1983,
 Carnegie Mellon University). Gaussian is a federally registered
 trademark of Gaussian, Inc.
  
 This software contains proprietary and confidential information,
 including trade secrets, belonging to Gaussian, Inc.
  
 This software is provided under written license and may be
 used, copied, transmitted, or stored only in accord with that
 written license.
  
 The following legend is applicable only to US Government
 contracts under FAR:
  
                    RESTRICTED RIGHTS LEGEND
  
 Use, reproduction and disclosure by the US Government is
 subject to restrictions as set forth in subparagraphs (a)
 and (c) of the Commercial Computer Software - Restricted
 Rights clause in FAR 52.227-19.
  
 Gaussian, Inc.
 340 Quinnipiac St., Bldg. 40, Wallingford CT 06492
  
  
 ---------------------------------------------------------------
 Warning -- This program may not be used in any manner that
 competes with the business of Gaussian, Inc. or will provide
 assistance to any competitor of Gaussian, Inc.  The licensee
 of this program is prohibited from giving any competitor of
 Gaussian, Inc. access to this program.  By using this program,
 the user acknowledges that Gaussian, Inc. is engaged in the
 business of creating and licensing software in the field of
 computational chemistry and represents and warrants to the
 licensee that it is not a competitor of Gaussian, Inc. and that
 it will not use this program in any manner prohibited above.
 ---------------------------------------------------------------
  

 Cite this work as:
 Gaussian 03, Revision E.01,
 M. J. Frisch, G. W. Trucks, H. B. Schlegel, G. E. Scuseria, 
 M. A. Robb, J. R. Cheeseman, J. A. Montgomery, Jr., T. Vreven, 
 K. N. Kudin, J. C. Burant, J. M. Millam, S. S. Iyengar, J. Tomasi, 
 V. Barone, B. Mennucci, M. Cossi, G. Scalmani, N. Rega, 
 G. A. Petersson, H. Nakatsuji, M. Hada, M. Ehara, K. Toyota, 
 R. Fukuda, J. Hasegawa, M. Ishida, T. Nakajima, Y. Honda, O. Kitao, 
 H. Nakai, M. Klene, X. Li, J. E. Knox, H. P. Hratchian, J. B. Cross, 
 V. Bakken, C. Adamo, J. Jaramillo, R. Gomperts, R. E. Stratmann, 
 O. Yazyev, A. J. Austin, R. Cammi, C. Pomelli, J. W. Ochterski, 
 P. Y. Ayala, K. Morokuma, G. A. Voth, P. Salvador, J. J. Dannenberg, 
 V. G. Zakrzewski, S. Dapprich, A. D. Daniels, M. C. Strain, 
 O. Farkas, D. K. Malick, A. D. Rabuck, K. Raghavachari, 
 J. B. Foresman, J. V. Ortiz, Q. Cui, A. G. Baboul, S. Clifford, 
 J. Cioslowski, B. B. Stefanov, G. Liu, A. Liashenko, P. Piskorz, 
 I. Komaromi, R. L. Martin, D. J. Fox, T. Keith, M. A. Al-Laham, 
 C. Y. Peng, A. Nanayakkara, M. Challacombe, P. M. W. Gill, 
 B. Johnson, W. Chen, M. W. Wong, C. Gonzalez, and J. A. Pople, 
 Gaussian, Inc., Wallingford CT, 2004.
 
 ******************************************
 Gaussian 03:  EM64T-G03RevE.01 11-Sep-2007
                12-Jun-2015 
 ******************************************
 %nproc=2
 Will use up to    2 processors via shared memory.
 Default route:  MP2=Direct MaxDisk=2000MB
 ----------------------------------------------------
 # b3lyp/6-31+G(d,p) int=ultrafine pop=(ReadRadii,MK)
 ----------------------------------------------------

 Warning!  SCF SP cutoffs with diffuse functions may be unreliable.
 Consider SCF=Tight

 1/38=1/1;
 2/17=6,18=5,40=1/2;
 3/5=1,6=6,7=111,11=2,16=1,25=1,30=1,74=-5,75=5/1,2,3;
 4//1;
 5/5=2,32=1,38=5/2;
 6/7=2,8=2,9=2,10=2,15=8,20=101,28=1/1,2;
 99/5=1,9=1/99;
 ----------------------------------------
 mol_17.22.54.pdbccc_plusQ.z58204.zip.xyz
 ----------------------------------------
 Symbolic Z-matrix:
 Charge =  1 Multiplicity = 1
 Ca                    1.05407  -1.67176  -0.13873 
 O                     2.06762  -0.00073   1.10441 
 O                     0.60771  -0.00085   1.52213 
 O                     0.59083   0.00068  -1.6564 
 P                    -1.06464   0.00077  -1.53113 
 O                    -1.23742  -1.28473  -0.44206 
 O                    -1.23711   1.28536  -0.44083 
 Ca                   -1.62673  -0.00046   1.38954 
 Ca                    1.05449   1.67175  -0.13736 
 
                          Input orientation:                          
 ---------------------------------------------------------------------
 Center     Atomic     Atomic              Coordinates (Angstroms)
 Number     Number      Type              X           Y           Z
 ---------------------------------------------------------------------
    1         20             0        1.054070   -1.671760   -0.138730
    2          8             0        2.067620   -0.000730    1.104410
    3          8             0        0.607710   -0.000850    1.522130
    4          8             0        0.590830    0.000680   -1.656400
    5         15             0       -1.064640    0.000770   -1.531130
    6          8             0       -1.237420   -1.284730   -0.442060
    7          8             0       -1.237110    1.285360   -0.440830
    8         20             0       -1.626730   -0.000460    1.389540
    9         20             0        1.054490    1.671750   -0.137360
 ---------------------------------------------------------------------
                    Distance matrix (angstroms):
                    1          2          3          4          5
     1  Ca   0.000000
     2  O    2.316252   0.000000
     3  O    2.397839   1.518495   0.000000
     4  O    2.305422   3.130972   3.178575   0.000000
     5  P    3.037279   4.093547   3.481257   1.660203   0.000000
     6  O    2.343657   3.868270   2.985112   2.543501   1.693646
     7  O    3.753043   3.868208   2.985115   2.543497   1.693715
     8  Ca   3.509351   3.705337   2.238370   3.767668   2.974266
     9  Ca   3.343510   2.316380   2.398147   2.305415   3.037348
                    6          7          8          9
     6  O    0.000000
     7  O    2.570090   0.000000
     8  Ca   2.270610   2.270549   0.000000
     9  Ca   3.753194   2.343677   3.509509   0.000000
 Stoichiometry    Ca3O5P(1+)
 Framework group  C1[X(Ca3O5P)]
 Deg. of freedom    21
 Full point group                 C1
 Largest Abelian subgroup         C1      NOp   1
 Largest concise Abelian subgroup C1      NOp   1
                         Standard orientation:                         
 ---------------------------------------------------------------------
 Center     Atomic     Atomic              Coordinates (Angstroms)
 Number     Number      Type              X           Y           Z
 ---------------------------------------------------------------------
    1         20             0        1.054051   -1.671772   -0.138730
    2          8             0        2.067620   -0.000753    1.104410
    3          8             0        0.607710   -0.000857    1.522130
    4          8             0        0.590830    0.000673   -1.656400
    5         15             0       -1.064640    0.000782   -1.531130
    6          8             0       -1.237435   -1.284716   -0.442060
    7          8             0       -1.237096    1.285374   -0.440830
    8         20             0       -1.626730   -0.000442    1.389540
    9         20             0        1.054509    1.671738   -0.137360
 ---------------------------------------------------------------------
 Rotational constants (GHZ):      0.9461469      0.8197485      0.7961770
 Standard basis: 6-31+G(d,p) (6D, 7F)
 There are   199 symmetry adapted basis functions of A   symmetry.
 Integral buffers will be    131072 words long.
 Raffenetti 2 integral format.
 Two-electron integral symmetry is turned on.
   199 basis functions,   456 primitive gaussians,   199 cartesian basis functions
    57 alpha electrons       57 beta electrons
       nuclear repulsion energy      1104.8942743758 Hartrees.
 NAtoms=    9 NActive=    9 NUniq=    9 SFac= 7.50D-01 NAtFMM=   80 NAOKFM=F Big=F
 One-electron integrals computed using PRISM.
 NBasis=   199 RedAO= T  NBF=   199
 NBsUse=   199 1.00D-06 NBFU=   199
 Harris functional with IExCor=  402 diagonalized for initial guess.
 ExpMin= 7.10D-03 ExpMax= 3.53D+04 ExpMxC= 5.30D+03 IAcc=3 IRadAn=         5 AccDes= 0.00D+00
 HarFok:  IExCor= 402 AccDes= 0.00D+00 IRadAn=         5 IDoV=1
 ScaDFX=  1.000000  1.000000  1.000000  1.000000
 Initial guess orbital symmetries:
       Occupied  (A) (A) (A) (A) (A) (A) (A) (A) (A) (A) (A) (A)
                 (A) (A) (A) (A) (A) (A) (A) (A) (A) (A) (A) (A)
                 (A) (A) (A) (A) (A) (A) (A) (A) (A) (A) (A) (A)
                 (A) (A) (A) (A) (A) (A) (A) (A) (A) (A) (A) (A)
                 (A) (A) (A) (A) (A) (A) (A) (A) (A)
       Virtual   (A) (A) (A) (A) (A) (A) (A) (A) (A) (A) (A) (A)
                 (A) (A) (A) (A) (A) (A) (A) (A) (A) (A) (A) (A)
                 (A) (A) (A) (A) (A) (A) (A) (A) (A) (A) (A) (A)
                 (A) (A) (A) (A) (A) (A) (A) (A) (A) (A) (A) (A)
                 (A) (A) (A) (A) (A) (A) (A) (A) (A) (A) (A) (A)
                 (A) (A) (A) (A) (A) (A) (A) (A) (A) (A) (A) (A)
                 (A) (A) (A) (A) (A) (A) (A) (A) (A) (A) (A) (A)
                 (A) (A) (A) (A) (A) (A) (A) (A) (A) (A) (A) (A)
                 (A) (A) (A) (A) (A) (A) (A) (A) (A) (A) (A) (A)
                 (A) (A) (A) (A) (A) (A) (A) (A) (A) (A) (A) (A)
                 (A) (A) (A) (A) (A) (A) (A) (A) (A) (A) (A) (A)
                 (A) (A) (A) (A) (A) (A) (A) (A) (A) (A)
 The electronic state of the initial guess is 1-A.
 Requested convergence on RMS density matrix=1.00D-04 within 128 cycles.
 Requested convergence on MAX density matrix=1.00D-02.
 Requested convergence on             energy=1.00D-02.
 No special actions if energy rises.
 SCF Done:  E(RB+HF-LYP) =  -2750.24881821     A.U. after    7 cycles
             Convg  =    0.5379D-04             -V/T =  2.0029
             S**2   =   0.0000

 **********************************************************************

            Population analysis using the SCF density.

 **********************************************************************

 Orbital symmetries:
       Occupied  (A) (A) (A) (A) (A) (A) (A) (A) (A) (A) (A) (A)
                 (A) (A) (A) (A) (A) (A) (A) (A) (A) (A) (A) (A)
                 (A) (A) (A) (A) (A) (A) (A) (A) (A) (A) (A) (A)
                 (A) (A) (A) (A) (A) (A) (A) (A) (A) (A) (A) (A)
                 (A) (A) (A) (A) (A) (A) (A) (A) (A)
       Virtual   (A) (A) (A) (A) (A) (A) (A) (A) (A) (A) (A) (A)
                 (A) (A) (A) (A) (A) (A) (A) (A) (A) (A) (A) (A)
                 (A) (A) (A) (A) (A) (A) (A) (A) (A) (A) (A) (A)
                 (A) (A) (A) (A) (A) (A) (A) (A) (A) (A) (A) (A)
                 (A) (A) (A) (A) (A) (A) (A) (A) (A) (A) (A) (A)
                 (A) (A) (A) (A) (A) (A) (A) (A) (A) (A) (A) (A)
                 (A) (A) (A) (A) (A) (A) (A) (A) (A) (A) (A) (A)
                 (A) (A) (A) (A) (A) (A) (A) (A) (A) (A) (A) (A)
                 (A) (A) (A) (A) (A) (A) (A) (A) (A) (A) (A) (A)
                 (A) (A) (A) (A) (A) (A) (A) (A) (A) (A) (A) (A)
                 (A) (A) (A) (A) (A) (A) (A) (A) (A) (A) (A) (A)
                 (A) (A) (A) (A) (A) (A) (A) (A) (A) (A)
 The electronic state is 1-A.
 Alpha  occ. eigenvalues -- -145.52386-145.50181-145.50175 -77.25156 -19.25910
 Alpha  occ. eigenvalues --  -19.25457 -19.21787 -19.21787 -19.21336 -15.59145
 Alpha  occ. eigenvalues --  -15.56979 -15.56975 -12.72333 -12.72329 -12.72303
 Alpha  occ. eigenvalues --  -12.70187 -12.70184 -12.70179 -12.70176 -12.70099
 Alpha  occ. eigenvalues --  -12.70096  -6.70244  -4.86598  -4.86589  -4.86029
 Alpha  occ. eigenvalues --   -1.96323  -1.94230  -1.94164  -1.24346  -1.23878
 Alpha  occ. eigenvalues --   -1.23781  -1.22782  -1.22077  -1.21718  -1.21642
 Alpha  occ. eigenvalues --   -1.21523  -1.21224  -1.10033  -1.07329  -1.00853
 Alpha  occ. eigenvalues --   -1.00736  -0.89073  -0.63095  -0.51342  -0.51081
 Alpha  occ. eigenvalues --   -0.50979  -0.49234  -0.48447  -0.46045  -0.43794
 Alpha  occ. eigenvalues --   -0.43559  -0.38835  -0.38643  -0.38612  -0.35296
 Alpha  occ. eigenvalues --   -0.33986  -0.31700
 Alpha virt. eigenvalues --   -0.20301  -0.18388  -0.17632  -0.12783  -0.12603
 Alpha virt. eigenvalues --   -0.10902  -0.09917  -0.09096  -0.08254  -0.07948
 Alpha virt. eigenvalues --   -0.07349  -0.06562  -0.06018  -0.05817  -0.04926
 Alpha virt. eigenvalues --   -0.04867  -0.04857  -0.04686  -0.04486  -0.04309
 Alpha virt. eigenvalues --   -0.04013  -0.03911  -0.03218  -0.02973  -0.02947
 Alpha virt. eigenvalues --   -0.02711  -0.01825  -0.00967   0.00846   0.01989
 Alpha virt. eigenvalues --    0.02247   0.03415   0.04334   0.04543   0.04865
 Alpha virt. eigenvalues --    0.05218   0.05243   0.06160   0.06288   0.07053
 Alpha virt. eigenvalues --    0.07072   0.07099   0.07501   0.07555   0.07793
 Alpha virt. eigenvalues --    0.08501   0.09366   0.10327   0.11201   0.11842
 Alpha virt. eigenvalues --    0.12314   0.14921   0.14937   0.16118   0.17401
 Alpha virt. eigenvalues --    0.18780   0.20642   0.21080   0.21099   0.23269
 Alpha virt. eigenvalues --    0.23560   0.23712   0.24623   0.25782   0.27280
 Alpha virt. eigenvalues --    0.27993   0.29796   0.31570   0.33551   0.33937
 Alpha virt. eigenvalues --    0.34432   0.36042   0.36685   0.38775   0.39284
 Alpha virt. eigenvalues --    0.41194   0.45565   0.46013   0.53540   0.54388
 Alpha virt. eigenvalues --    0.55427   0.62685   0.63188   0.63523   0.66203
 Alpha virt. eigenvalues --    0.81577   0.85410   0.90489   0.93107   0.99252
 Alpha virt. eigenvalues --    1.11596   1.11887   1.15493   1.16012   1.17643
 Alpha virt. eigenvalues --    1.18028   1.19908   1.19986   1.20440   1.22321
 Alpha virt. eigenvalues --    1.22902   1.27534   1.31240   1.33937   1.38908
 Alpha virt. eigenvalues --    1.45495   1.46503   1.49260   1.57010   1.58131
 Alpha virt. eigenvalues --    1.60024   1.64343   1.68041   1.71385   1.73206
 Alpha virt. eigenvalues --    1.76853   1.78165   1.78945   1.81325   1.84871
 Alpha virt. eigenvalues --    1.86382   1.87083   1.89500   1.90272   1.91253
 Alpha virt. eigenvalues --    1.92839   1.93649   1.99377   2.00495   2.11300
 Alpha virt. eigenvalues --    2.21670   2.24634   2.36579   2.52356   2.56758
 Alpha virt. eigenvalues --    3.07053   3.54032   4.03173   4.09914   4.14248
 Alpha virt. eigenvalues --    4.19209   4.32861
          Condensed to atoms (all electrons):
              1          2          3          4          5          6
     1  Ca  18.339547   0.104065   0.038148   0.065878   0.017306   0.060503
     2  O    0.104065   8.577767  -0.101154   0.002061   0.003326  -0.006654
     3  O    0.038148  -0.101154   8.604632   0.022318  -0.024600   0.029652
     4  O    0.065878   0.002061   0.022318   8.936197  -0.171573   0.050167
     5  P    0.017306   0.003326  -0.024600  -0.171573  14.404411  -0.177875
     6  O    0.060503  -0.006654   0.029652   0.050167  -0.177875   8.964789
     7  O    0.004971  -0.006652   0.029644   0.050163  -0.177844   0.043503
     8  Ca  -0.045098  -0.033262   0.088679   0.013803   0.026348   0.074739
     9  Ca  -0.047926   0.104054   0.038128   0.065890   0.017295   0.004979
              7          8          9
     1  Ca   0.004971  -0.045098  -0.047926
     2  O   -0.006652  -0.033262   0.104054
     3  O    0.029644   0.088679   0.038128
     4  O    0.050163   0.013803   0.065890
     5  P   -0.177844   0.026348   0.017295
     6  O    0.043503   0.074739   0.004979
     7  O    8.964803   0.074744   0.060519
     8  Ca   0.074744  18.362053  -0.045082
     9  Ca   0.060519  -0.045082  18.339476
 Mulliken atomic charges:
              1
     1  Ca   1.462607
     2  O   -0.643551
     3  O   -0.725445
     4  O   -1.034904
     5  P    1.083205
     6  O   -1.043803
     7  O   -1.043851
     8  Ca   1.483075
     9  Ca   1.462667
 Sum of Mulliken charges=   1.00000
 Atomic charges with hydrogens summed into heavy atoms:
              1
     1  Ca   1.462607
     2  O   -0.643551
     3  O   -0.725445
     4  O   -1.034904
     5  P    1.083205
     6  O   -1.043803
     7  O   -1.043851
     8  Ca   1.483075
     9  Ca   1.462667
 Sum of Mulliken charges=   1.00000
 Electronic spatial extent (au):  <R**2>=  1729.0481
 Charge=     1.0000 electrons
 Dipole moment (field-independent basis, Debye):
    X=     0.9366    Y=    -0.0021    Z=     6.2034  Tot=     6.2738
 Quadrupole moment (field-independent basis, Debye-Ang):
   XX=   -63.6981   YY=   -44.2176   ZZ=   -80.5556
   XY=     0.0175   XZ=   -28.3203   YZ=     0.0183
 Traceless Quadrupole moment (field-independent basis, Debye-Ang):
   XX=    -0.8743   YY=    18.6062   ZZ=   -17.7319
   XY=     0.0175   XZ=   -28.3203   YZ=     0.0183
 Octapole moment (field-independent basis, Debye-Ang**2):
  XXX=   -20.1834  YYY=    -0.0249  ZZZ=    45.2063  XYY=    73.7922
  XXY=     0.0101  XXZ=    28.1851  XZZ=   -39.2480  YZZ=    -0.0094
  YYZ=     4.9030  XYZ=     0.0464
 Hexadecapole moment (field-independent basis, Debye-Ang**3):
 XXXX=  -745.6748 YYYY=  -401.3674 ZZZZ=  -674.3230 XXXY=     0.0935
 XXXZ=  -157.8149 YYYX=     0.0682 YYYZ=     0.0871 ZZZX=  -109.8642
 ZZZY=     0.0692 XXYY=  -182.3503 XXZZ=  -218.9487 YYZZ=  -189.7273
 XXYZ=     0.0259 YYXZ=   -34.9757 ZZXY=     0.0211
 N-N= 1.104894274376D+03 E-N=-8.710443923428D+03  KE= 2.742231236345D+03
 Merz-Kollman atomic radii used.
 Read replacement radii for each type of atom:
 Rad(20) =   1.188000000000D+00
 Atom Element Radius
    1    20    1.19
    2     8    1.40
    3     8    1.40
    4     8    1.40
    5    15    1.80
    6     8    1.40
    7     8    1.40
    8    20    1.19
    9    20    1.19

 **********************************************************************

            Electrostatic Properties Using The SCF Density

 **********************************************************************

       Atomic Center    1 is at   1.054051 -1.671772 -0.138730
       Atomic Center    2 is at   2.067620 -0.000753  1.104410
       Atomic Center    3 is at   0.607710 -0.000857  1.522130
       Atomic Center    4 is at   0.590830  0.000673 -1.656400
       Atomic Center    5 is at  -1.064640  0.000782 -1.531130
       Atomic Center    6 is at  -1.237435 -1.284716 -0.442060
       Atomic Center    7 is at  -1.237096  1.285374 -0.440830
       Atomic Center    8 is at  -1.626730 -0.000442  1.389540
       Atomic Center    9 is at   1.054509  1.671738 -0.137360
     741 points will be used for fitting atomic charges
 Fitting point charges to eletrostatic potential
 Charges from ESP fit, RMS=   0.00662 RRMS=   0.04153:
 Charge=   1.00000 Dipole=     0.8027    -0.0020     6.0207 Tot=     6.0739
              1
     1  Ca   1.675059
     2  O   -0.691512
     3  O   -0.931248
     4  O   -0.940784
     5  P    0.536211
     6  O   -0.985318
     7  O   -0.985404
     8  Ca   1.647928
     9  Ca   1.675068
 -----------------------------------------------------------------

              Electrostatic Properties (Atomic Units)

 -----------------------------------------------------------------
    Center     Electric         -------- Electric Field --------
               Potential          X             Y             Z
 -----------------------------------------------------------------
    1 Atom    -80.039013
    2 Atom    -22.216093
    3 Atom    -22.204679
    4 Atom    -22.248729
    5 Atom    -53.962527
    6 Atom    -22.248491
    7 Atom    -22.248519
    8 Atom    -80.016267
    9 Atom    -80.038987
 -----------------------------------------------------------------
 1\1\GINC-N026\SP\RB3LYP\6-31+G(d,p)\Ca3O5P1(1+)\TIMN\12-Jun-2015\0\\# 
 b3lyp/6-31+G(d,p) int=ultrafine pop=(ReadRadii,MK)\\mol_17.22.54.pdbcc
 c_plusQ.z58204.zip.xyz\\1,1\Ca,0,1.05407,-1.67176,-0.13873\O,0,2.06762
 ,-0.00073,1.10441\O,0,0.60771,-0.00085,1.52213\O,0,0.59083,0.00068,-1.
 6564\P,0,-1.06464,0.00077,-1.53113\O,0,-1.23742,-1.28473,-0.44206\O,0,
 -1.23711,1.28536,-0.44083\Ca,0,-1.62673,-0.00046,1.38954\Ca,0,1.05449,
 1.67175,-0.13736\\Version=EM64T-G03RevE.01\State=1-A\HF=-2750.2488182\
 RMSD=5.379e-05\Thermal=0.\Dipole=0.368492,-0.0008268,2.4406245\PG=C01 
 [X(Ca3O5P1)]\\@


 IT IS NOT EASY TO DESCRIBE
     THE SEA WITH THE MOUTH

                   -- KOKYU
 Job cpu time:  0 days  0 hours  1 minutes 57.0 seconds.
 File lengths (MBytes):  RWF=     36 Int=      0 D2E=      0 Chk=     11 Scr=      1
 Normal termination of Gaussian 03 at Fri Jun 12 17:51:03 2015.
