 Entering Gaussian System, Link 0=/home/timn/tmp/g03.e01/g03
 Input=mol_16.4.54.pdbc_plusQc.out.z51605.zip.xyz.gjf
 Output=mol_16.4.54.pdbc_plusQc.out.z51605.zip.xyz.out
 Initial command:
 /home/timn/tmp/g03.e01/l1.exe /home/timn/tmp/g03.e01/Gau-12321.inp -scrdir=/home/timn/tmp/g03.e01/
 Default is to use a total of   2 processors:
                                2 via shared-memory
                                1 via Linda
 Entering Link 1 = /home/timn/tmp/g03.e01/l1.exe PID=     12322.
  
 Copyright (c) 1988,1990,1992,1993,1995,1998,2003,2004,2007, Gaussian, Inc.
                  All Rights Reserved.
  
 This is the Gaussian(R) 03 program.  It is based on the
 the Gaussian(R) 98 system (copyright 1998, Gaussian, Inc.),
 the Gaussian(R) 94 system (copyright 1995, Gaussian, Inc.),
 the Gaussian 92(TM) system (copyright 1992, Gaussian, Inc.),
 the Gaussian 90(TM) system (copyright 1990, Gaussian, Inc.),
 the Gaussian 88(TM) system (copyright 1988, Gaussian, Inc.),
 the Gaussian 86(TM) system (copyright 1986, Carnegie Mellon
 University), and the Gaussian 82(TM) system (copyright 1983,
 Carnegie Mellon University). Gaussian is a federally registered
 trademark of Gaussian, Inc.
  
 This software contains proprietary and confidential information,
 including trade secrets, belonging to Gaussian, Inc.
  
 This software is provided under written license and may be
 used, copied, transmitted, or stored only in accord with that
 written license.
  
 The following legend is applicable only to US Government
 contracts under FAR:
  
                    RESTRICTED RIGHTS LEGEND
  
 Use, reproduction and disclosure by the US Government is
 subject to restrictions as set forth in subparagraphs (a)
 and (c) of the Commercial Computer Software - Restricted
 Rights clause in FAR 52.227-19.
  
 Gaussian, Inc.
 340 Quinnipiac St., Bldg. 40, Wallingford CT 06492
  
  
 ---------------------------------------------------------------
 Warning -- This program may not be used in any manner that
 competes with the business of Gaussian, Inc. or will provide
 assistance to any competitor of Gaussian, Inc.  The licensee
 of this program is prohibited from giving any competitor of
 Gaussian, Inc. access to this program.  By using this program,
 the user acknowledges that Gaussian, Inc. is engaged in the
 business of creating and licensing software in the field of
 computational chemistry and represents and warrants to the
 licensee that it is not a competitor of Gaussian, Inc. and that
 it will not use this program in any manner prohibited above.
 ---------------------------------------------------------------
  

 Cite this work as:
 Gaussian 03, Revision E.01,
 M. J. Frisch, G. W. Trucks, H. B. Schlegel, G. E. Scuseria, 
 M. A. Robb, J. R. Cheeseman, J. A. Montgomery, Jr., T. Vreven, 
 K. N. Kudin, J. C. Burant, J. M. Millam, S. S. Iyengar, J. Tomasi, 
 V. Barone, B. Mennucci, M. Cossi, G. Scalmani, N. Rega, 
 G. A. Petersson, H. Nakatsuji, M. Hada, M. Ehara, K. Toyota, 
 R. Fukuda, J. Hasegawa, M. Ishida, T. Nakajima, Y. Honda, O. Kitao, 
 H. Nakai, M. Klene, X. Li, J. E. Knox, H. P. Hratchian, J. B. Cross, 
 V. Bakken, C. Adamo, J. Jaramillo, R. Gomperts, R. E. Stratmann, 
 O. Yazyev, A. J. Austin, R. Cammi, C. Pomelli, J. W. Ochterski, 
 P. Y. Ayala, K. Morokuma, G. A. Voth, P. Salvador, J. J. Dannenberg, 
 V. G. Zakrzewski, S. Dapprich, A. D. Daniels, M. C. Strain, 
 O. Farkas, D. K. Malick, A. D. Rabuck, K. Raghavachari, 
 J. B. Foresman, J. V. Ortiz, Q. Cui, A. G. Baboul, S. Clifford, 
 J. Cioslowski, B. B. Stefanov, G. Liu, A. Liashenko, P. Piskorz, 
 I. Komaromi, R. L. Martin, D. J. Fox, T. Keith, M. A. Al-Laham, 
 C. Y. Peng, A. Nanayakkara, M. Challacombe, P. M. W. Gill, 
 B. Johnson, W. Chen, M. W. Wong, C. Gonzalez, and J. A. Pople, 
 Gaussian, Inc., Wallingford CT, 2004.
 
 ******************************************
 Gaussian 03:  EM64T-G03RevE.01 11-Sep-2007
                12-Jun-2015 
 ******************************************
 %nproc=2
 Will use up to    2 processors via shared memory.
 Default route:  MP2=Direct MaxDisk=2000MB
 ----------------------------------------------------
 # b3lyp/6-31+G(d,p) int=ultrafine pop=(ReadRadii,MK)
 ----------------------------------------------------

 Warning!  SCF SP cutoffs with diffuse functions may be unreliable.
 Consider SCF=Tight

 1/38=1/1;
 2/17=6,18=5,40=1/2;
 3/5=1,6=6,7=111,11=2,16=1,25=1,30=1,74=-5,75=5/1,2,3;
 4//1;
 5/5=2,32=1,38=5/2;
 6/7=2,8=2,9=2,10=2,15=8,20=101,28=1/1,2;
 99/5=1,9=1/99;
 ------------------------------------------
 mol_16.4.54.pdbc_plusQc.out.z51605.zip.xyz
 ------------------------------------------
 Symbolic Z-matrix:
 Charge =  1 Multiplicity = 1
 O                    -1.71352   0.00027  -0.78583 
 O                    -1.71315   0.00018   0.78683 
 O                     1.44265   1.27337  -0.00042 
 O                     1.44226  -1.27366  -0.00056 
 P                     2.31991  -0.00021   0.00049 
 Ca                   -0.76181  -1.85787  -0.00017 
 Ca                   -0.76142   1.85796  -0.0002 
 
                          Input orientation:                          
 ---------------------------------------------------------------------
 Center     Atomic     Atomic              Coordinates (Angstroms)
 Number     Number      Type              X           Y           Z
 ---------------------------------------------------------------------
    1          8             0       -1.713520    0.000270   -0.785830
    2          8             0       -1.713150    0.000180    0.786830
    3          8             0        1.442650    1.273370   -0.000420
    4          8             0        1.442260   -1.273660   -0.000560
    5         15             0        2.319910   -0.000210    0.000490
    6         20             0       -0.761810   -1.857870   -0.000170
    7         20             0       -0.761420    1.857960   -0.000200
 ---------------------------------------------------------------------
                    Distance matrix (angstroms):
                    1          2          3          4          5
     1  O    0.000000
     2  O    1.572660   0.000000
     3  O    3.492715   3.492828   0.000000
     4  O    3.492634   3.492744   2.547030   0.000000
     5  P    4.109362   4.109003   1.546477   1.546592   0.000000
     6  Ca   2.230627   2.230867   3.829400   2.280181   3.598319
     7  Ca   2.230408   2.230819   2.280279   3.829262   3.598248
                    6          7
     6  Ca   0.000000
     7  Ca   3.715830   0.000000
 Stoichiometry    Ca2O4P(1+)
 Framework group  C1[X(Ca2O4P)]
 Deg. of freedom    15
 Full point group                 C1
 Largest Abelian subgroup         C1      NOp   1
 Largest concise Abelian subgroup C1      NOp   1
                         Standard orientation:                         
 ---------------------------------------------------------------------
 Center     Atomic     Atomic              Coordinates (Angstroms)
 Number     Number      Type              X           Y           Z
 ---------------------------------------------------------------------
    1          8             0       -1.713520    0.000294   -0.785831
    2          8             0       -1.713150    0.000204    0.786829
    3          8             0        1.442668    1.273351   -0.000421
    4          8             0        1.442243   -1.273679   -0.000561
    5         15             0        2.319910   -0.000240    0.000489
    6         20             0       -0.761835   -1.857859   -0.000171
    7         20             0       -0.761395    1.857971   -0.000201
 ---------------------------------------------------------------------
 Rotational constants (GHZ):      1.4541113      1.2850437      0.7206627
 Standard basis: 6-31+G(d,p) (6D, 7F)
 There are   153 symmetry adapted basis functions of A   symmetry.
 Integral buffers will be    131072 words long.
 Raffenetti 2 integral format.
 Two-electron integral symmetry is turned on.
   153 basis functions,   344 primitive gaussians,   153 cartesian basis functions
    43 alpha electrons       43 beta electrons
       nuclear repulsion energy       602.1577202143 Hartrees.
 NAtoms=    7 NActive=    7 NUniq=    7 SFac= 7.50D-01 NAtFMM=   80 NAOKFM=F Big=F
 One-electron integrals computed using PRISM.
 NBasis=   153 RedAO= T  NBF=   153
 NBsUse=   153 1.00D-06 NBFU=   153
 Harris functional with IExCor=  402 diagonalized for initial guess.
 ExpMin= 7.10D-03 ExpMax= 3.53D+04 ExpMxC= 5.30D+03 IAcc=3 IRadAn=         5 AccDes= 0.00D+00
 HarFok:  IExCor= 402 AccDes= 0.00D+00 IRadAn=         5 IDoV=1
 ScaDFX=  1.000000  1.000000  1.000000  1.000000
 Initial guess orbital symmetries:
       Occupied  (A) (A) (A) (A) (A) (A) (A) (A) (A) (A) (A) (A)
                 (A) (A) (A) (A) (A) (A) (A) (A) (A) (A) (A) (A)
                 (A) (A) (A) (A) (A) (A) (A) (A) (A) (A) (A) (A)
                 (A) (A) (A) (A) (A) (A) (A)
       Virtual   (A) (A) (A) (A) (A) (A) (A) (A) (A) (A) (A) (A)
                 (A) (A) (A) (A) (A) (A) (A) (A) (A) (A) (A) (A)
                 (A) (A) (A) (A) (A) (A) (A) (A) (A) (A) (A) (A)
                 (A) (A) (A) (A) (A) (A) (A) (A) (A) (A) (A) (A)
                 (A) (A) (A) (A) (A) (A) (A) (A) (A) (A) (A) (A)
                 (A) (A) (A) (A) (A) (A) (A) (A) (A) (A) (A) (A)
                 (A) (A) (A) (A) (A) (A) (A) (A) (A) (A) (A) (A)
                 (A) (A) (A) (A) (A) (A) (A) (A) (A) (A) (A) (A)
                 (A) (A) (A) (A) (A) (A) (A) (A) (A) (A) (A) (A)
                 (A) (A)
 The electronic state of the initial guess is 1-A.
 Requested convergence on RMS density matrix=1.00D-04 within 128 cycles.
 Requested convergence on MAX density matrix=1.00D-02.
 Requested convergence on             energy=1.00D-02.
 No special actions if energy rises.
 SCF Done:  E(RB+HF-LYP) =  -1997.33372454     A.U. after    6 cycles
             Convg  =    0.4411D-04             -V/T =  2.0031
             S**2   =   0.0000

 **********************************************************************

            Population analysis using the SCF density.

 **********************************************************************

 Orbital symmetries:
       Occupied  (A) (A) (A) (A) (A) (A) (A) (A) (A) (A) (A) (A)
                 (A) (A) (A) (A) (A) (A) (A) (A) (A) (A) (A) (A)
                 (A) (A) (A) (A) (A) (A) (A) (A) (A) (A) (A) (A)
                 (A) (A) (A) (A) (A) (A) (A)
       Virtual   (A) (A) (A) (A) (A) (A) (A) (A) (A) (A) (A) (A)
                 (A) (A) (A) (A) (A) (A) (A) (A) (A) (A) (A) (A)
                 (A) (A) (A) (A) (A) (A) (A) (A) (A) (A) (A) (A)
                 (A) (A) (A) (A) (A) (A) (A) (A) (A) (A) (A) (A)
                 (A) (A) (A) (A) (A) (A) (A) (A) (A) (A) (A) (A)
                 (A) (A) (A) (A) (A) (A) (A) (A) (A) (A) (A) (A)
                 (A) (A) (A) (A) (A) (A) (A) (A) (A) (A) (A) (A)
                 (A) (A) (A) (A) (A) (A) (A) (A) (A) (A) (A) (A)
                 (A) (A) (A) (A) (A) (A) (A) (A) (A) (A) (A) (A)
                 (A) (A)
 The electronic state is 1-A.
 Alpha  occ. eigenvalues -- -145.53246-145.53244 -77.30161 -19.27956 -19.27950
 Alpha  occ. eigenvalues --  -19.25617 -19.25571 -15.60092 -15.60092 -12.73307
 Alpha  occ. eigenvalues --  -12.73306 -12.73289 -12.73288 -12.73207 -12.73205
 Alpha  occ. eigenvalues --   -6.75643  -4.92082  -4.91867  -4.91423  -1.97236
 Alpha  occ. eigenvalues --   -1.97209  -1.25766  -1.24806  -1.24792  -1.24725
 Alpha  occ. eigenvalues --   -1.24725  -1.24302  -1.13926  -1.08557  -1.08247
 Alpha  occ. eigenvalues --   -0.89531  -0.67705  -0.57283  -0.52824  -0.52602
 Alpha  occ. eigenvalues --   -0.48996  -0.47946  -0.46122  -0.45764  -0.43903
 Alpha  occ. eigenvalues --   -0.40699  -0.37200  -0.34175
 Alpha virt. eigenvalues --   -0.20456  -0.19851  -0.19631  -0.14488  -0.11367
 Alpha virt. eigenvalues --   -0.11280  -0.10319  -0.09667  -0.09053  -0.07374
 Alpha virt. eigenvalues --   -0.07215  -0.06431  -0.05962  -0.05215  -0.04856
 Alpha virt. eigenvalues --   -0.04431  -0.04389  -0.04082  -0.03999  -0.03874
 Alpha virt. eigenvalues --   -0.03337  -0.02377   0.00222   0.01109   0.02012
 Alpha virt. eigenvalues --    0.02948   0.03323   0.03644   0.04214   0.05047
 Alpha virt. eigenvalues --    0.05144   0.05190   0.06781   0.07028   0.07277
 Alpha virt. eigenvalues --    0.07474   0.08123   0.08217   0.12232   0.13582
 Alpha virt. eigenvalues --    0.14150   0.14768   0.16273   0.16813   0.16922
 Alpha virt. eigenvalues --    0.18689   0.20333   0.21715   0.24406   0.26748
 Alpha virt. eigenvalues --    0.28313   0.29470   0.31799   0.32148   0.32486
 Alpha virt. eigenvalues --    0.36021   0.36750   0.40440   0.43971   0.45543
 Alpha virt. eigenvalues --    0.48014   0.56600   0.57821   0.60215   0.65645
 Alpha virt. eigenvalues --    0.71358   0.87011   0.90196   0.94374   1.03574
 Alpha virt. eigenvalues --    1.05862   1.07985   1.08399   1.12005   1.12336
 Alpha virt. eigenvalues --    1.14812   1.15159   1.17884   1.20705   1.23938
 Alpha virt. eigenvalues --    1.28614   1.38343   1.43002   1.46774   1.50563
 Alpha virt. eigenvalues --    1.50931   1.58075   1.66231   1.68012   1.70579
 Alpha virt. eigenvalues --    1.71270   1.75750   1.80030   1.81214   1.82372
 Alpha virt. eigenvalues --    1.84411   1.85984   1.86056   1.92962   2.09474
 Alpha virt. eigenvalues --    2.16164   2.16931   2.53551   2.67522   3.00274
 Alpha virt. eigenvalues --    3.38472   3.83795   3.90576   3.97503   4.05851
          Condensed to atoms (all electrons):
              1          2          3          4          5          6
     1  O    8.515928  -0.059517   0.002551   0.002553  -0.004428   0.105912
     2  O   -0.059517   8.514864   0.002546   0.002543  -0.004345   0.105996
     3  O    0.002551   0.002546   8.815349  -0.085937  -0.094543   0.002346
     4  O    0.002553   0.002543  -0.085937   8.815270  -0.094428   0.067455
     5  P   -0.004428  -0.004345  -0.094543  -0.094428  14.567298  -0.019105
     6  Ca   0.105912   0.105996   0.002346   0.067455  -0.019105  18.210093
     7  Ca   0.105939   0.105990   0.067432   0.002344  -0.019103  -0.016666
              7
     1  O    0.105939
     2  O    0.105990
     3  O    0.067432
     4  O    0.002344
     5  P   -0.019103
     6  Ca  -0.016666
     7  Ca  18.210125
 Mulliken atomic charges:
              1
     1  O   -0.668939
     2  O   -0.668076
     3  O   -0.709744
     4  O   -0.709801
     5  P    0.668653
     6  Ca   1.543969
     7  Ca   1.543938
 Sum of Mulliken charges=   1.00000
 Atomic charges with hydrogens summed into heavy atoms:
              1
     1  O   -0.668939
     2  O   -0.668076
     3  O   -0.709744
     4  O   -0.709801
     5  P    0.668653
     6  Ca   1.543969
     7  Ca   1.543938
 Sum of Mulliken charges=   1.00000
 Electronic spatial extent (au):  <R**2>=  1378.1955
 Charge=     1.0000 electrons
 Dipole moment (field-independent basis, Debye):
    X=    -3.1427    Y=    -0.0003    Z=     0.0011  Tot=     3.1427
 Quadrupole moment (field-independent basis, Debye-Ang):
   XX=   -66.5063   YY=    -8.8971   ZZ=   -58.2529
   XY=     0.0079   XZ=     0.0024   YZ=    -0.0010
 Traceless Quadrupole moment (field-independent basis, Debye-Ang):
   XX=   -21.9542   YY=    35.6550   ZZ=   -13.7008
   XY=     0.0079   XZ=     0.0024   YZ=    -0.0010
 Octapole moment (field-independent basis, Debye-Ang**2):
  XXX=     6.9107  YYY=     0.0187  ZZZ=    -0.0129  XYY=   -70.8563
  XXY=    -0.0191  XXZ=    -0.0041  XZZ=     1.4151  YZZ=    -0.0002
  YYZ=    -0.0102  XYZ=    -0.0010
 Hexadecapole moment (field-independent basis, Debye-Ang**3):
 XXXX=  -942.9399 YYYY=  -329.5578 ZZZZ=  -103.9687 XXXY=     0.0331
 XXXZ=    -0.0304 YYYX=     0.0424 YYYZ=    -0.0039 ZZZX=     0.0119
 ZZZY=    -0.0013 XXYY=  -220.7219 XXZZ=  -174.4864 YYZZ=  -103.3706
 XXYZ=    -0.0009 YYXZ=     0.0244 ZZXY=     0.0087
 N-N= 6.021577202143D+02 E-N=-5.923749194857D+03  KE= 1.991111011018D+03
 Merz-Kollman atomic radii used.
 Read replacement radii for each type of atom:
 Rad(20) =   1.188000000000D+00
 Atom Element Radius
    1     8    1.40
    2     8    1.40
    3     8    1.40
    4     8    1.40
    5    15    1.80
    6    20    1.19
    7    20    1.19

 **********************************************************************

            Electrostatic Properties Using The SCF Density

 **********************************************************************

       Atomic Center    1 is at  -1.713520  0.000294 -0.785831
       Atomic Center    2 is at  -1.713150  0.000204  0.786829
       Atomic Center    3 is at   1.442668  1.273351 -0.000421
       Atomic Center    4 is at   1.442243 -1.273679 -0.000561
       Atomic Center    5 is at   2.319910 -0.000240  0.000489
       Atomic Center    6 is at  -0.761835 -1.857859 -0.000171
       Atomic Center    7 is at  -0.761395  1.857971 -0.000201
     705 points will be used for fitting atomic charges
 Fitting point charges to eletrostatic potential
 Charges from ESP fit, RMS=   0.00424 RRMS=   0.02786:
 Charge=   1.00000 Dipole=    -2.9836    -0.0003     0.0024 Tot=     2.9836
              1
     1  O   -0.788196
     2  O   -0.787090
     3  O   -0.755348
     4  O   -0.755390
     5  P    0.639615
     6  Ca   1.723208
     7  Ca   1.723200
 -----------------------------------------------------------------

              Electrostatic Properties (Atomic Units)

 -----------------------------------------------------------------
    Center     Electric         -------- Electric Field --------
               Potential          X             Y             Z
 -----------------------------------------------------------------
    1 Atom    -22.214684
    2 Atom    -22.213298
    3 Atom    -22.184171
    4 Atom    -22.184063
    5 Atom    -53.916366
    6 Atom    -80.007954
    7 Atom    -80.007971
 -----------------------------------------------------------------
 1\1\GINC-N033\SP\RB3LYP\6-31+G(d,p)\Ca2O4P1(1+)\TIMN\12-Jun-2015\0\\# 
 b3lyp/6-31+G(d,p) int=ultrafine pop=(ReadRadii,MK)\\mol_16.4.54.pdbc_p
 lusQc.out.z51605.zip.xyz\\1,1\O,0,-1.71352,0.00027,-0.78583\O,0,-1.713
 15,0.00018,0.78683\O,0,1.44265,1.27337,-0.00042\O,0,1.44226,-1.27366,-
 0.00056\P,0,2.31991,-0.00021,0.00049\Ca,0,-0.76181,-1.85787,-0.00017\C
 a,0,-0.76142,1.85796,-0.0002\\Version=EM64T-G03RevE.01\State=1-A\HF=-1
 997.3337245\RMSD=4.411e-05\Thermal=0.\Dipole=-1.2364222,-0.0001374,0.0
 004464\PG=C01 [X(Ca2O4P1)]\\@


 SI MONUMENTUM REQUIRIS, CIRCUMSPICE
     -- FROM SIR CHRISTOPHER WREN'S TOMBSTONE
 Job cpu time:  0 days  0 hours  0 minutes 43.4 seconds.
 File lengths (MBytes):  RWF=     28 Int=      0 D2E=      0 Chk=     10 Scr=      1
 Normal termination of Gaussian 03 at Fri Jun 12 17:48:48 2015.
