 Entering Gaussian System, Link 0=/home/timn/tmp/g03.e01/g03
 Input=mol_16.4.46.pdbcc_plusQ.out.z51596.zip.xyz.gjf
 Output=mol_16.4.46.pdbcc_plusQ.out.z51596.zip.xyz.out
 Initial command:
 /home/timn/tmp/g03.e01/l1.exe /home/timn/tmp/g03.e01/Gau-14430.inp -scrdir=/home/timn/tmp/g03.e01/
 Default is to use a total of   2 processors:
                                2 via shared-memory
                                1 via Linda
 Entering Link 1 = /home/timn/tmp/g03.e01/l1.exe PID=     14431.
  
 Copyright (c) 1988,1990,1992,1993,1995,1998,2003,2004,2007, Gaussian, Inc.
                  All Rights Reserved.
  
 This is the Gaussian(R) 03 program.  It is based on the
 the Gaussian(R) 98 system (copyright 1998, Gaussian, Inc.),
 the Gaussian(R) 94 system (copyright 1995, Gaussian, Inc.),
 the Gaussian 92(TM) system (copyright 1992, Gaussian, Inc.),
 the Gaussian 90(TM) system (copyright 1990, Gaussian, Inc.),
 the Gaussian 88(TM) system (copyright 1988, Gaussian, Inc.),
 the Gaussian 86(TM) system (copyright 1986, Carnegie Mellon
 University), and the Gaussian 82(TM) system (copyright 1983,
 Carnegie Mellon University). Gaussian is a federally registered
 trademark of Gaussian, Inc.
  
 This software contains proprietary and confidential information,
 including trade secrets, belonging to Gaussian, Inc.
  
 This software is provided under written license and may be
 used, copied, transmitted, or stored only in accord with that
 written license.
  
 The following legend is applicable only to US Government
 contracts under FAR:
  
                    RESTRICTED RIGHTS LEGEND
  
 Use, reproduction and disclosure by the US Government is
 subject to restrictions as set forth in subparagraphs (a)
 and (c) of the Commercial Computer Software - Restricted
 Rights clause in FAR 52.227-19.
  
 Gaussian, Inc.
 340 Quinnipiac St., Bldg. 40, Wallingford CT 06492
  
  
 ---------------------------------------------------------------
 Warning -- This program may not be used in any manner that
 competes with the business of Gaussian, Inc. or will provide
 assistance to any competitor of Gaussian, Inc.  The licensee
 of this program is prohibited from giving any competitor of
 Gaussian, Inc. access to this program.  By using this program,
 the user acknowledges that Gaussian, Inc. is engaged in the
 business of creating and licensing software in the field of
 computational chemistry and represents and warrants to the
 licensee that it is not a competitor of Gaussian, Inc. and that
 it will not use this program in any manner prohibited above.
 ---------------------------------------------------------------
  

 Cite this work as:
 Gaussian 03, Revision E.01,
 M. J. Frisch, G. W. Trucks, H. B. Schlegel, G. E. Scuseria, 
 M. A. Robb, J. R. Cheeseman, J. A. Montgomery, Jr., T. Vreven, 
 K. N. Kudin, J. C. Burant, J. M. Millam, S. S. Iyengar, J. Tomasi, 
 V. Barone, B. Mennucci, M. Cossi, G. Scalmani, N. Rega, 
 G. A. Petersson, H. Nakatsuji, M. Hada, M. Ehara, K. Toyota, 
 R. Fukuda, J. Hasegawa, M. Ishida, T. Nakajima, Y. Honda, O. Kitao, 
 H. Nakai, M. Klene, X. Li, J. E. Knox, H. P. Hratchian, J. B. Cross, 
 V. Bakken, C. Adamo, J. Jaramillo, R. Gomperts, R. E. Stratmann, 
 O. Yazyev, A. J. Austin, R. Cammi, C. Pomelli, J. W. Ochterski, 
 P. Y. Ayala, K. Morokuma, G. A. Voth, P. Salvador, J. J. Dannenberg, 
 V. G. Zakrzewski, S. Dapprich, A. D. Daniels, M. C. Strain, 
 O. Farkas, D. K. Malick, A. D. Rabuck, K. Raghavachari, 
 J. B. Foresman, J. V. Ortiz, Q. Cui, A. G. Baboul, S. Clifford, 
 J. Cioslowski, B. B. Stefanov, G. Liu, A. Liashenko, P. Piskorz, 
 I. Komaromi, R. L. Martin, D. J. Fox, T. Keith, M. A. Al-Laham, 
 C. Y. Peng, A. Nanayakkara, M. Challacombe, P. M. W. Gill, 
 B. Johnson, W. Chen, M. W. Wong, C. Gonzalez, and J. A. Pople, 
 Gaussian, Inc., Wallingford CT, 2004.
 
 ******************************************
 Gaussian 03:  EM64T-G03RevE.01 11-Sep-2007
                12-Jun-2015 
 ******************************************
 %nproc=2
 Will use up to    2 processors via shared memory.
 Default route:  MP2=Direct MaxDisk=2000MB
 ----------------------------------------------------
 # b3lyp/6-31+G(d,p) int=ultrafine pop=(ReadRadii,MK)
 ----------------------------------------------------

 Warning!  SCF SP cutoffs with diffuse functions may be unreliable.
 Consider SCF=Tight

 1/38=1/1;
 2/17=6,18=5,40=1/2;
 3/5=1,6=6,7=111,11=2,16=1,25=1,30=1,74=-5,75=5/1,2,3;
 4//1;
 5/5=2,32=1,38=5/2;
 6/7=2,8=2,9=2,10=2,15=8,20=101,28=1/1,2;
 99/5=1,9=1/99;
 ------------------------------------------
 mol_16.4.46.pdbcc_plusQ.out.z51596.zip.xyz
 ------------------------------------------
 Symbolic Z-matrix:
 Charge =  1 Multiplicity = 1
 O                     0.20079  -1.70919  -0.00013 
 O                     1.52739   1.39569   0.00093 
 Ca                   -0.51753   1.93199  -0.0002 
 P                    -1.32928  -1.57728  -0.00016 
 O                    -1.72645  -0.02692  -0.768 
 O                    -1.72793  -0.0284    0.76825 
 Ca                    2.20497  -0.6015   -0.00009 
 
                          Input orientation:                          
 ---------------------------------------------------------------------
 Center     Atomic     Atomic              Coordinates (Angstroms)
 Number     Number      Type              X           Y           Z
 ---------------------------------------------------------------------
    1          8             0        0.200790   -1.709190   -0.000130
    2          8             0        1.527390    1.395690    0.000930
    3         20             0       -0.517530    1.931990   -0.000200
    4         15             0       -1.329280   -1.577280   -0.000160
    5          8             0       -1.726450   -0.026920   -0.768000
    6          8             0       -1.727930   -0.028400    0.768250
    7         20             0        2.204970   -0.601500   -0.000090
 ---------------------------------------------------------------------
                    Distance matrix (angstroms):
                    1          2          3          4          5
     1  O    0.000000
     2  O    3.376411   0.000000
     3  Ca   3.711358   2.114076   0.000000
     4  P    1.535746   4.122998   3.601932   0.000000
     5  O    2.670938   3.633531   2.426589   1.775088   0.000000
     6  O    2.671221   3.635096   2.428727   1.774375   1.536251
     7  Ca   2.289916   2.109001   3.718948   3.666479   4.046714
                    6          7
     6  O    0.000000
     7  Ca   4.048023   0.000000
 Stoichiometry    Ca2O4P(1+)
 Framework group  C1[X(Ca2O4P)]
 Deg. of freedom    15
 Full point group                 C1
 Largest Abelian subgroup         C1      NOp   1
 Largest concise Abelian subgroup C1      NOp   1
                         Standard orientation:                         
 ---------------------------------------------------------------------
 Center     Atomic     Atomic              Coordinates (Angstroms)
 Number     Number      Type              X           Y           Z
 ---------------------------------------------------------------------
    1          8             0        0.200806   -1.709189   -0.000132
    2          8             0        1.527377    1.395704    0.000928
    3         20             0       -0.517548    1.931985   -0.000202
    4         15             0       -1.329265   -1.577293   -0.000162
    5          8             0       -1.726450   -0.026937   -0.768002
    6          8             0       -1.727930   -0.028417    0.768248
    7         20             0        2.204976   -0.601480   -0.000092
 ---------------------------------------------------------------------
 Rotational constants (GHZ):      1.4979155      1.2265218      0.7101196
 Standard basis: 6-31+G(d,p) (6D, 7F)
 There are   153 symmetry adapted basis functions of A   symmetry.
 Integral buffers will be    131072 words long.
 Raffenetti 2 integral format.
 Two-electron integral symmetry is turned on.
   153 basis functions,   344 primitive gaussians,   153 cartesian basis functions
    43 alpha electrons       43 beta electrons
       nuclear repulsion energy       600.2496586702 Hartrees.
 NAtoms=    7 NActive=    7 NUniq=    7 SFac= 7.50D-01 NAtFMM=   80 NAOKFM=F Big=F
 One-electron integrals computed using PRISM.
 NBasis=   153 RedAO= T  NBF=   153
 NBsUse=   153 1.00D-06 NBFU=   153
 Harris functional with IExCor=  402 diagonalized for initial guess.
 ExpMin= 7.10D-03 ExpMax= 3.53D+04 ExpMxC= 5.30D+03 IAcc=3 IRadAn=         5 AccDes= 0.00D+00
 HarFok:  IExCor= 402 AccDes= 0.00D+00 IRadAn=         5 IDoV=1
 ScaDFX=  1.000000  1.000000  1.000000  1.000000
 Initial guess orbital symmetries:
       Occupied  (A) (A) (A) (A) (A) (A) (A) (A) (A) (A) (A) (A)
                 (A) (A) (A) (A) (A) (A) (A) (A) (A) (A) (A) (A)
                 (A) (A) (A) (A) (A) (A) (A) (A) (A) (A) (A) (A)
                 (A) (A) (A) (A) (A) (A) (A)
       Virtual   (A) (A) (A) (A) (A) (A) (A) (A) (A) (A) (A) (A)
                 (A) (A) (A) (A) (A) (A) (A) (A) (A) (A) (A) (A)
                 (A) (A) (A) (A) (A) (A) (A) (A) (A) (A) (A) (A)
                 (A) (A) (A) (A) (A) (A) (A) (A) (A) (A) (A) (A)
                 (A) (A) (A) (A) (A) (A) (A) (A) (A) (A) (A) (A)
                 (A) (A) (A) (A) (A) (A) (A) (A) (A) (A) (A) (A)
                 (A) (A) (A) (A) (A) (A) (A) (A) (A) (A) (A) (A)
                 (A) (A) (A) (A) (A) (A) (A) (A) (A) (A) (A) (A)
                 (A) (A) (A) (A) (A) (A) (A) (A) (A) (A) (A) (A)
                 (A) (A)
 The electronic state of the initial guess is 1-A.
 Requested convergence on RMS density matrix=1.00D-04 within 128 cycles.
 Requested convergence on MAX density matrix=1.00D-02.
 Requested convergence on             energy=1.00D-02.
 No special actions if energy rises.
 EnCoef did     4 forward-backward iterations
 SCF Done:  E(RB+HF-LYP) =  -1997.25492766     A.U. after    8 cycles
             Convg  =    0.6265D-04             -V/T =  2.0031
             S**2   =   0.0000

 **********************************************************************

            Population analysis using the SCF density.

 **********************************************************************

 Orbital symmetries:
       Occupied  (A) (A) (A) (A) (A) (A) (A) (A) (A) (A) (A) (A)
                 (A) (A) (A) (A) (A) (A) (A) (A) (A) (A) (A) (A)
                 (A) (A) (A) (A) (A) (A) (A) (A) (A) (A) (A) (A)
                 (A) (A) (A) (A) (A) (A) (A)
       Virtual   (A) (A) (A) (A) (A) (A) (A) (A) (A) (A) (A) (A)
                 (A) (A) (A) (A) (A) (A) (A) (A) (A) (A) (A) (A)
                 (A) (A) (A) (A) (A) (A) (A) (A) (A) (A) (A) (A)
                 (A) (A) (A) (A) (A) (A) (A) (A) (A) (A) (A) (A)
                 (A) (A) (A) (A) (A) (A) (A) (A) (A) (A) (A) (A)
                 (A) (A) (A) (A) (A) (A) (A) (A) (A) (A) (A) (A)
                 (A) (A) (A) (A) (A) (A) (A) (A) (A) (A) (A) (A)
                 (A) (A) (A) (A) (A) (A) (A) (A) (A) (A) (A) (A)
                 (A) (A) (A) (A) (A) (A) (A) (A) (A) (A) (A) (A)
                 (A) (A)
 The electronic state is 1-A.
 Alpha  occ. eigenvalues -- -145.52560-145.52304 -77.32939 -19.36121 -19.36031
 Alpha  occ. eigenvalues --  -19.28494 -19.15023 -15.59428 -15.59145 -12.72677
 Alpha  occ. eigenvalues --  -12.72602 -12.72511 -12.72378 -12.72348 -12.72228
 Alpha  occ. eigenvalues --   -6.78136  -4.94519  -4.94429  -4.93874  -1.96568
 Alpha  occ. eigenvalues --   -1.96256  -1.27105  -1.24353  -1.24150  -1.23933
 Alpha  occ. eigenvalues --   -1.23704  -1.23134  -1.22471  -1.12152  -1.00021
 Alpha  occ. eigenvalues --   -0.89425  -0.73037  -0.60914  -0.58902  -0.57893
 Alpha  occ. eigenvalues --   -0.53904  -0.48257  -0.46910  -0.42438  -0.42266
 Alpha  occ. eigenvalues --   -0.35634  -0.33597  -0.33507
 Alpha virt. eigenvalues --   -0.20899  -0.19541  -0.19412  -0.16449  -0.12534
 Alpha virt. eigenvalues --   -0.11231  -0.11081  -0.11010  -0.10014  -0.08470
 Alpha virt. eigenvalues --   -0.07621  -0.06638  -0.06226  -0.05389  -0.05361
 Alpha virt. eigenvalues --   -0.04571  -0.04455  -0.04298  -0.03606  -0.03487
 Alpha virt. eigenvalues --   -0.03311  -0.02349  -0.00522   0.00717   0.02019
 Alpha virt. eigenvalues --    0.02132   0.02724   0.03361   0.04296   0.04628
 Alpha virt. eigenvalues --    0.05031   0.05155   0.06156   0.06572   0.07372
 Alpha virt. eigenvalues --    0.07858   0.08032   0.08510   0.10171   0.12420
 Alpha virt. eigenvalues --    0.13505   0.14746   0.15929   0.16782   0.17772
 Alpha virt. eigenvalues --    0.19386   0.21213   0.22385   0.23045   0.23375
 Alpha virt. eigenvalues --    0.23607   0.27777   0.28226   0.29442   0.31518
 Alpha virt. eigenvalues --    0.33778   0.37337   0.37621   0.38830   0.43221
 Alpha virt. eigenvalues --    0.48285   0.56424   0.58599   0.61743   0.68335
 Alpha virt. eigenvalues --    0.68529   0.77700   0.82465   0.91505   1.00887
 Alpha virt. eigenvalues --    1.04789   1.05878   1.08586   1.10931   1.11918
 Alpha virt. eigenvalues --    1.13892   1.16732   1.18228   1.20691   1.23544
 Alpha virt. eigenvalues --    1.24706   1.38133   1.42421   1.45750   1.48615
 Alpha virt. eigenvalues --    1.50475   1.56610   1.66583   1.68773   1.70357
 Alpha virt. eigenvalues --    1.71352   1.74213   1.81927   1.82338   1.86240
 Alpha virt. eigenvalues --    1.86614   1.91386   1.93630   1.97698   2.01587
 Alpha virt. eigenvalues --    2.11957   2.23117   2.29885   2.64314   2.98562
 Alpha virt. eigenvalues --    3.42750   3.87018   3.94462   4.04502   4.05709
          Condensed to atoms (all electrons):
              1          2          3          4          5          6
     1  O    8.780747  -0.006413  -0.010991  -0.075568   0.002467   0.002342
     2  O   -0.006413   8.736674   0.223695  -0.009725   0.007426   0.007462
     3  Ca  -0.010991   0.223695  18.247984  -0.009909   0.047521   0.047300
     4  P   -0.075568  -0.009725  -0.009909  14.289621  -0.012291  -0.012739
     5  O    0.002467   0.007426   0.047521  -0.012291   8.332726   0.040254
     6  O    0.002342   0.007462   0.047300  -0.012739   0.040254   8.335010
     7  Ca   0.060792   0.228816  -0.005678  -0.018053   0.003541   0.003511
              7
     1  O    0.060792
     2  O    0.228816
     3  Ca  -0.005678
     4  P   -0.018053
     5  O    0.003541
     6  O    0.003511
     7  Ca  18.249717
 Mulliken atomic charges:
              1
     1  O   -0.753376
     2  O   -1.187936
     3  Ca   1.460077
     4  P    0.848665
     5  O   -0.421644
     6  O   -0.423141
     7  Ca   1.477354
 Sum of Mulliken charges=   1.00000
 Atomic charges with hydrogens summed into heavy atoms:
              1
     1  O   -0.753376
     2  O   -1.187936
     3  Ca   1.460077
     4  P    0.848665
     5  O   -0.421644
     6  O   -0.423141
     7  Ca   1.477354
 Sum of Mulliken charges=   1.00000
 Electronic spatial extent (au):  <R**2>=  1396.2742
 Charge=     1.0000 electrons
 Dipole moment (field-independent basis, Debye):
    X=     3.9525    Y=     1.6942    Z=    -0.0150  Tot=     4.3004
 Quadrupole moment (field-independent basis, Debye-Ang):
   XX=   -36.7536   YY=   -39.1612   ZZ=   -56.5030
   XY=   -26.7292   XZ=     0.0031   YZ=    -0.0094
 Traceless Quadrupole moment (field-independent basis, Debye-Ang):
   XX=     7.3856   YY=     4.9781   ZZ=   -12.3637
   XY=   -26.7292   XZ=     0.0031   YZ=    -0.0094
 Octapole moment (field-independent basis, Debye-Ang**2):
  XXX=    94.2330  YYY=    64.4672  ZZZ=    -0.0215  XYY=   -33.7786
  XXY=   -42.8012  XXZ=    -0.0402  XZZ=     6.6236  YZZ=     1.7946
  YYZ=    -0.0177  XYZ=    -0.0116
 Hexadecapole moment (field-independent basis, Debye-Ang**3):
 XXXX=  -645.9685 YYYY=  -575.9960 ZZZZ=   -96.6047 XXXY=  -151.2275
 XXXZ=    -0.0074 YYYX=  -119.0777 YYYZ=    -0.0502 ZZZX=    -0.0101
 ZZZY=    -0.0231 XXYY=  -247.3839 XXZZ=  -150.3020 YYZZ=  -122.2226
 XXYZ=    -0.0188 YYXZ=    -0.0245 ZZXY=   -20.7137
 N-N= 6.002496586702D+02 E-N=-5.919234591286D+03  KE= 1.991050994164D+03
 Merz-Kollman atomic radii used.
 Read replacement radii for each type of atom:
 Rad(20) =   1.188000000000D+00
 Atom Element Radius
    1     8    1.40
    2     8    1.40
    3    20    1.19
    4    15    1.80
    5     8    1.40
    6     8    1.40
    7    20    1.19

 **********************************************************************

            Electrostatic Properties Using The SCF Density

 **********************************************************************

       Atomic Center    1 is at   0.200806 -1.709189 -0.000132
       Atomic Center    2 is at   1.527377  1.395704  0.000928
       Atomic Center    3 is at  -0.517548  1.931985 -0.000202
       Atomic Center    4 is at  -1.329265 -1.577293 -0.000162
       Atomic Center    5 is at  -1.726450 -0.026937 -0.768002
       Atomic Center    6 is at  -1.727930 -0.028417  0.768248
       Atomic Center    7 is at   2.204976 -0.601480 -0.000092
     697 points will be used for fitting atomic charges
 Fitting point charges to eletrostatic potential
 Charges from ESP fit, RMS=   0.00556 RRMS=   0.03632:
 Charge=   1.00000 Dipole=     3.9270     1.6265    -0.0154 Tot=     4.2506
              1
     1  O   -0.752088
     2  O   -1.522435
     3  Ca   1.677042
     4  P    0.675684
     5  O   -0.384196
     6  O   -0.385740
     7  Ca   1.691733
 -----------------------------------------------------------------

              Electrostatic Properties (Atomic Units)

 -----------------------------------------------------------------
    Center     Electric         -------- Electric Field --------
               Potential          X             Y             Z
 -----------------------------------------------------------------
    1 Atom    -22.177303
    2 Atom    -22.312715
    3 Atom    -80.018060
    4 Atom    -53.887909
    5 Atom    -22.112286
    6 Atom    -22.114843
    7 Atom    -80.015910
 -----------------------------------------------------------------
 1\1\GINC-N035\SP\RB3LYP\6-31+G(d,p)\Ca2O4P1(1+)\TIMN\12-Jun-2015\0\\# 
 b3lyp/6-31+G(d,p) int=ultrafine pop=(ReadRadii,MK)\\mol_16.4.46.pdbcc_
 plusQ.out.z51596.zip.xyz\\1,1\O,0,0.20079,-1.70919,-0.00013\O,0,1.5273
 9,1.39569,0.00093\Ca,0,-0.51753,1.93199,-0.0002\P,0,-1.32928,-1.57728,
 -0.00016\O,0,-1.72645,-0.02692,-0.768\O,0,-1.72793,-0.0284,0.76825\Ca,
 0,2.20497,-0.6015,-0.00009\\Version=EM64T-G03RevE.01\State=1-A\HF=-199
 7.2549277\RMSD=6.265e-05\Thermal=0.\Dipole=1.5550515,0.6665489,-0.0058
 915\PG=C01 [X(Ca2O4P1)]\\@


 TOM, TOM, THE BURGLAR'S SON
 STOLE A MACHINE AND AWAY HE RUN
 THE JOB WAS NEAT, BUT TOM GOT BEAT
 BY THE TIME HE GOT HOME IT WAS OBSOLETE.
 Job cpu time:  0 days  0 hours  0 minutes 57.2 seconds.
 File lengths (MBytes):  RWF=     28 Int=      0 D2E=      0 Chk=     10 Scr=      1
 Normal termination of Gaussian 03 at Fri Jun 12 17:48:49 2015.
