 Entering Gaussian System, Link 0=/home/timn/tmp/g03.e01/g03
 Input=mol_16.4.24.pdbcc_plusQ.out.z51574.zip.xyz.gjf
 Output=mol_16.4.24.pdbcc_plusQ.out.z51574.zip.xyz.out
 Initial command:
 /home/timn/tmp/g03.e01/l1.exe /home/timn/tmp/g03.e01/Gau-19160.inp -scrdir=/home/timn/tmp/g03.e01/
 Default is to use a total of   2 processors:
                                2 via shared-memory
                                1 via Linda
 Entering Link 1 = /home/timn/tmp/g03.e01/l1.exe PID=     19163.
  
 Copyright (c) 1988,1990,1992,1993,1995,1998,2003,2004,2007, Gaussian, Inc.
                  All Rights Reserved.
  
 This is the Gaussian(R) 03 program.  It is based on the
 the Gaussian(R) 98 system (copyright 1998, Gaussian, Inc.),
 the Gaussian(R) 94 system (copyright 1995, Gaussian, Inc.),
 the Gaussian 92(TM) system (copyright 1992, Gaussian, Inc.),
 the Gaussian 90(TM) system (copyright 1990, Gaussian, Inc.),
 the Gaussian 88(TM) system (copyright 1988, Gaussian, Inc.),
 the Gaussian 86(TM) system (copyright 1986, Carnegie Mellon
 University), and the Gaussian 82(TM) system (copyright 1983,
 Carnegie Mellon University). Gaussian is a federally registered
 trademark of Gaussian, Inc.
  
 This software contains proprietary and confidential information,
 including trade secrets, belonging to Gaussian, Inc.
  
 This software is provided under written license and may be
 used, copied, transmitted, or stored only in accord with that
 written license.
  
 The following legend is applicable only to US Government
 contracts under FAR:
  
                    RESTRICTED RIGHTS LEGEND
  
 Use, reproduction and disclosure by the US Government is
 subject to restrictions as set forth in subparagraphs (a)
 and (c) of the Commercial Computer Software - Restricted
 Rights clause in FAR 52.227-19.
  
 Gaussian, Inc.
 340 Quinnipiac St., Bldg. 40, Wallingford CT 06492
  
  
 ---------------------------------------------------------------
 Warning -- This program may not be used in any manner that
 competes with the business of Gaussian, Inc. or will provide
 assistance to any competitor of Gaussian, Inc.  The licensee
 of this program is prohibited from giving any competitor of
 Gaussian, Inc. access to this program.  By using this program,
 the user acknowledges that Gaussian, Inc. is engaged in the
 business of creating and licensing software in the field of
 computational chemistry and represents and warrants to the
 licensee that it is not a competitor of Gaussian, Inc. and that
 it will not use this program in any manner prohibited above.
 ---------------------------------------------------------------
  

 Cite this work as:
 Gaussian 03, Revision E.01,
 M. J. Frisch, G. W. Trucks, H. B. Schlegel, G. E. Scuseria, 
 M. A. Robb, J. R. Cheeseman, J. A. Montgomery, Jr., T. Vreven, 
 K. N. Kudin, J. C. Burant, J. M. Millam, S. S. Iyengar, J. Tomasi, 
 V. Barone, B. Mennucci, M. Cossi, G. Scalmani, N. Rega, 
 G. A. Petersson, H. Nakatsuji, M. Hada, M. Ehara, K. Toyota, 
 R. Fukuda, J. Hasegawa, M. Ishida, T. Nakajima, Y. Honda, O. Kitao, 
 H. Nakai, M. Klene, X. Li, J. E. Knox, H. P. Hratchian, J. B. Cross, 
 V. Bakken, C. Adamo, J. Jaramillo, R. Gomperts, R. E. Stratmann, 
 O. Yazyev, A. J. Austin, R. Cammi, C. Pomelli, J. W. Ochterski, 
 P. Y. Ayala, K. Morokuma, G. A. Voth, P. Salvador, J. J. Dannenberg, 
 V. G. Zakrzewski, S. Dapprich, A. D. Daniels, M. C. Strain, 
 O. Farkas, D. K. Malick, A. D. Rabuck, K. Raghavachari, 
 J. B. Foresman, J. V. Ortiz, Q. Cui, A. G. Baboul, S. Clifford, 
 J. Cioslowski, B. B. Stefanov, G. Liu, A. Liashenko, P. Piskorz, 
 I. Komaromi, R. L. Martin, D. J. Fox, T. Keith, M. A. Al-Laham, 
 C. Y. Peng, A. Nanayakkara, M. Challacombe, P. M. W. Gill, 
 B. Johnson, W. Chen, M. W. Wong, C. Gonzalez, and J. A. Pople, 
 Gaussian, Inc., Wallingford CT, 2004.
 
 ******************************************
 Gaussian 03:  EM64T-G03RevE.01 11-Sep-2007
                12-Jun-2015 
 ******************************************
 %nproc=2
 Will use up to    2 processors via shared memory.
 Default route:  MP2=Direct MaxDisk=2000MB
 ----------------------------------------------------
 # b3lyp/6-31+G(d,p) int=ultrafine pop=(ReadRadii,MK)
 ----------------------------------------------------

 Warning!  SCF SP cutoffs with diffuse functions may be unreliable.
 Consider SCF=Tight

 1/38=1/1;
 2/17=6,18=5,40=1/2;
 3/5=1,6=6,7=111,11=2,16=1,25=1,30=1,74=-5,75=5/1,2,3;
 4//1;
 5/5=2,32=1,38=5/2;
 6/7=2,8=2,9=2,10=2,15=8,20=101,28=1/1,2;
 99/5=1,9=1/99;
 ------------------------------------------
 mol_16.4.24.pdbcc_plusQ.out.z51574.zip.xyz
 ------------------------------------------
 Symbolic Z-matrix:
 Charge =  1 Multiplicity = 1
 O                     1.44235  -1.27354   0.00001 
 P                     2.32005  -0.00018   0.00001 
 O                    -1.7138    0.00013  -0.78595 
 O                     1.44258   1.27334   0.00003 
 O                    -1.71353   0.00013   0.78635 
 Ca                   -0.76139   1.85812  -0.0001 
 Ca                   -0.76169  -1.85801  -0.00009 
 
                          Input orientation:                          
 ---------------------------------------------------------------------
 Center     Atomic     Atomic              Coordinates (Angstroms)
 Number     Number      Type              X           Y           Z
 ---------------------------------------------------------------------
    1          8             0        1.442350   -1.273540    0.000010
    2         15             0        2.320050   -0.000180    0.000010
    3          8             0       -1.713800    0.000130   -0.785950
    4          8             0        1.442580    1.273340    0.000030
    5          8             0       -1.713530    0.000130    0.786350
    6         20             0       -0.761390    1.858120   -0.000100
    7         20             0       -0.761690   -1.858010   -0.000090
 ---------------------------------------------------------------------
                    Distance matrix (angstroms):
                    1          2          3          4          5
     1  O    0.000000
     2  P    1.546545   0.000000
     3  O    3.493029   4.109705   0.000000
     4  O    2.546880   1.546547   3.493074   0.000000
     5  O    3.492871   4.109513   1.572300   3.492906   0.000000
     6  Ca   3.829329   3.598410   2.230868   2.280231   2.230964
     7  Ca   2.280219   3.598424   2.230868   3.829381   2.230958
                    6          7
     6  Ca   0.000000
     7  Ca   3.716130   0.000000
 Stoichiometry    Ca2O4P(1+)
 Framework group  C1[X(Ca2O4P)]
 Deg. of freedom    15
 Full point group                 C1
 Largest Abelian subgroup         C1      NOp   1
 Largest concise Abelian subgroup C1      NOp   1
                         Standard orientation:                         
 ---------------------------------------------------------------------
 Center     Atomic     Atomic              Coordinates (Angstroms)
 Number     Number      Type              X           Y           Z
 ---------------------------------------------------------------------
    1          8             0        1.442371   -1.273517    0.000011
    2         15             0        2.320051   -0.000143    0.000011
    3          8             0       -1.713799    0.000103   -0.785949
    4          8             0        1.442560    1.273363    0.000031
    5          8             0       -1.713529    0.000103    0.786351
    6         20             0       -0.761419    1.858108   -0.000099
    7         20             0       -0.761660   -1.858022   -0.000089
 ---------------------------------------------------------------------
 Rotational constants (GHZ):      1.4539885      1.2849162      0.7205738
 Standard basis: 6-31+G(d,p) (6D, 7F)
 There are   153 symmetry adapted basis functions of A   symmetry.
 Integral buffers will be    131072 words long.
 Raffenetti 2 integral format.
 Two-electron integral symmetry is turned on.
   153 basis functions,   344 primitive gaussians,   153 cartesian basis functions
    43 alpha electrons       43 beta electrons
       nuclear repulsion energy       602.1330379164 Hartrees.
 NAtoms=    7 NActive=    7 NUniq=    7 SFac= 7.50D-01 NAtFMM=   80 NAOKFM=F Big=F
 One-electron integrals computed using PRISM.
 NBasis=   153 RedAO= T  NBF=   153
 NBsUse=   153 1.00D-06 NBFU=   153
 Harris functional with IExCor=  402 diagonalized for initial guess.
 ExpMin= 7.10D-03 ExpMax= 3.53D+04 ExpMxC= 5.30D+03 IAcc=3 IRadAn=         5 AccDes= 0.00D+00
 HarFok:  IExCor= 402 AccDes= 0.00D+00 IRadAn=         5 IDoV=1
 ScaDFX=  1.000000  1.000000  1.000000  1.000000
 Initial guess orbital symmetries:
       Occupied  (A) (A) (A) (A) (A) (A) (A) (A) (A) (A) (A) (A)
                 (A) (A) (A) (A) (A) (A) (A) (A) (A) (A) (A) (A)
                 (A) (A) (A) (A) (A) (A) (A) (A) (A) (A) (A) (A)
                 (A) (A) (A) (A) (A) (A) (A)
       Virtual   (A) (A) (A) (A) (A) (A) (A) (A) (A) (A) (A) (A)
                 (A) (A) (A) (A) (A) (A) (A) (A) (A) (A) (A) (A)
                 (A) (A) (A) (A) (A) (A) (A) (A) (A) (A) (A) (A)
                 (A) (A) (A) (A) (A) (A) (A) (A) (A) (A) (A) (A)
                 (A) (A) (A) (A) (A) (A) (A) (A) (A) (A) (A) (A)
                 (A) (A) (A) (A) (A) (A) (A) (A) (A) (A) (A) (A)
                 (A) (A) (A) (A) (A) (A) (A) (A) (A) (A) (A) (A)
                 (A) (A) (A) (A) (A) (A) (A) (A) (A) (A) (A) (A)
                 (A) (A) (A) (A) (A) (A) (A) (A) (A) (A) (A) (A)
                 (A) (A)
 The electronic state of the initial guess is 1-A.
 Requested convergence on RMS density matrix=1.00D-04 within 128 cycles.
 Requested convergence on MAX density matrix=1.00D-02.
 Requested convergence on             energy=1.00D-02.
 No special actions if energy rises.
 SCF Done:  E(RB+HF-LYP) =  -1997.33372468     A.U. after    6 cycles
             Convg  =    0.4406D-04             -V/T =  2.0031
             S**2   =   0.0000

 **********************************************************************

            Population analysis using the SCF density.

 **********************************************************************

 Orbital symmetries:
       Occupied  (A) (A) (A) (A) (A) (A) (A) (A) (A) (A) (A) (A)
                 (A) (A) (A) (A) (A) (A) (A) (A) (A) (A) (A) (A)
                 (A) (A) (A) (A) (A) (A) (A) (A) (A) (A) (A) (A)
                 (A) (A) (A) (A) (A) (A) (A)
       Virtual   (A) (A) (A) (A) (A) (A) (A) (A) (A) (A) (A) (A)
                 (A) (A) (A) (A) (A) (A) (A) (A) (A) (A) (A) (A)
                 (A) (A) (A) (A) (A) (A) (A) (A) (A) (A) (A) (A)
                 (A) (A) (A) (A) (A) (A) (A) (A) (A) (A) (A) (A)
                 (A) (A) (A) (A) (A) (A) (A) (A) (A) (A) (A) (A)
                 (A) (A) (A) (A) (A) (A) (A) (A) (A) (A) (A) (A)
                 (A) (A) (A) (A) (A) (A) (A) (A) (A) (A) (A) (A)
                 (A) (A) (A) (A) (A) (A) (A) (A) (A) (A) (A) (A)
                 (A) (A) (A) (A) (A) (A) (A) (A) (A) (A) (A) (A)
                 (A) (A)
 The electronic state is 1-A.
 Alpha  occ. eigenvalues -- -145.53248-145.53247 -77.30163 -19.27954 -19.27953
 Alpha  occ. eigenvalues --  -19.25590 -19.25585 -15.60094 -15.60094 -12.73309
 Alpha  occ. eigenvalues --  -12.73309 -12.73291 -12.73291 -12.73209 -12.73207
 Alpha  occ. eigenvalues --   -6.75644  -4.92084  -4.91869  -4.91424  -1.97237
 Alpha  occ. eigenvalues --   -1.97211  -1.25766  -1.24807  -1.24793  -1.24727
 Alpha  occ. eigenvalues --   -1.24726  -1.24303  -1.13927  -1.08557  -1.08253
 Alpha  occ. eigenvalues --   -0.89518  -0.67706  -0.57283  -0.52825  -0.52602
 Alpha  occ. eigenvalues --   -0.48993  -0.47945  -0.46121  -0.45764  -0.43902
 Alpha  occ. eigenvalues --   -0.40701  -0.37188  -0.34164
 Alpha virt. eigenvalues --   -0.20457  -0.19853  -0.19631  -0.14479  -0.11368
 Alpha virt. eigenvalues --   -0.11280  -0.10319  -0.09667  -0.09040  -0.07375
 Alpha virt. eigenvalues --   -0.07216  -0.06432  -0.05962  -0.05215  -0.04858
 Alpha virt. eigenvalues --   -0.04431  -0.04389  -0.04083  -0.04000  -0.03874
 Alpha virt. eigenvalues --   -0.03337  -0.02378   0.00221   0.01109   0.02011
 Alpha virt. eigenvalues --    0.02949   0.03323   0.03643   0.04211   0.05047
 Alpha virt. eigenvalues --    0.05142   0.05190   0.06781   0.07029   0.07277
 Alpha virt. eigenvalues --    0.07476   0.08123   0.08216   0.12230   0.13582
 Alpha virt. eigenvalues --    0.14151   0.14767   0.16274   0.16814   0.16921
 Alpha virt. eigenvalues --    0.18688   0.20333   0.21715   0.24406   0.26748
 Alpha virt. eigenvalues --    0.28309   0.29463   0.31797   0.32139   0.32486
 Alpha virt. eigenvalues --    0.36020   0.36749   0.40444   0.43968   0.45541
 Alpha virt. eigenvalues --    0.48014   0.56599   0.57820   0.60212   0.65646
 Alpha virt. eigenvalues --    0.71331   0.87007   0.90193   0.94376   1.03573
 Alpha virt. eigenvalues --    1.05862   1.07984   1.08399   1.12008   1.12335
 Alpha virt. eigenvalues --    1.14813   1.15162   1.17891   1.20706   1.23937
 Alpha virt. eigenvalues --    1.28614   1.38344   1.42999   1.46782   1.50559
 Alpha virt. eigenvalues --    1.50918   1.58078   1.66231   1.68010   1.70626
 Alpha virt. eigenvalues --    1.71272   1.75745   1.80026   1.81205   1.82381
 Alpha virt. eigenvalues --    1.84422   1.85980   1.86057   1.92956   2.09470
 Alpha virt. eigenvalues --    2.16206   2.16974   2.53545   2.67521   3.00308
 Alpha virt. eigenvalues --    3.38472   3.83792   3.90576   3.97503   4.05861
          Condensed to atoms (all electrons):
              1          2          3          4          5          6
     1  O    8.815312  -0.094424   0.002539  -0.085954   0.002546   0.002342
     2  P   -0.094424  14.567076  -0.004380  -0.094406  -0.004387  -0.019102
     3  O    0.002539  -0.004380   8.515801   0.002539  -0.059871   0.105972
     4  O   -0.085954  -0.094406   0.002539   8.815292   0.002546   0.067451
     5  O    0.002546  -0.004387  -0.059871   0.002546   8.515826   0.105948
     6  Ca   0.002342  -0.019102   0.105972   0.067451   0.105948  18.210035
     7  Ca   0.067450  -0.019103   0.105970   0.002343   0.105949  -0.016659
              7
     1  O    0.067450
     2  P   -0.019103
     3  O    0.105970
     4  O    0.002343
     5  O    0.105949
     6  Ca  -0.016659
     7  Ca  18.210037
 Mulliken atomic charges:
              1
     1  O   -0.709812
     2  P    0.668725
     3  O   -0.668571
     4  O   -0.709811
     5  O   -0.668557
     6  Ca   1.544014
     7  Ca   1.544013
 Sum of Mulliken charges=   1.00000
 Atomic charges with hydrogens summed into heavy atoms:
              1
     1  O   -0.709812
     2  P    0.668725
     3  O   -0.668571
     4  O   -0.709811
     5  O   -0.668557
     6  Ca   1.544014
     7  Ca   1.544013
 Sum of Mulliken charges=   1.00000
 Electronic spatial extent (au):  <R**2>=  1378.3297
 Charge=     1.0000 electrons
 Dipole moment (field-independent basis, Debye):
    X=    -3.1386    Y=     0.0001    Z=    -0.0026  Tot=     3.1386
 Quadrupole moment (field-independent basis, Debye-Ang):
   XX=   -66.5125   YY=    -8.8864   ZZ=   -58.2533
   XY=     0.0036   XZ=     0.0027   YZ=    -0.0003
 Traceless Quadrupole moment (field-independent basis, Debye-Ang):
   XX=   -21.9618   YY=    35.6643   ZZ=   -13.7026
   XY=     0.0036   XZ=     0.0027   YZ=    -0.0003
 Octapole moment (field-independent basis, Debye-Ang**2):
  XXX=     6.9464  YYY=     0.0119  ZZZ=    -0.0064  XYY=   -70.8568
  XXY=    -0.0098  XXZ=    -0.0027  XZZ=     1.4193  YZZ=    -0.0001
  YYZ=    -0.0071  XYZ=     0.0000
 Hexadecapole moment (field-independent basis, Debye-Ang**3):
 XXXX=  -943.0802 YYYY=  -329.5204 ZZZZ=  -103.9541 XXXY=     0.0148
 XXXZ=     0.0058 YYYX=     0.0185 YYYZ=    -0.0008 ZZZX=     0.0092
 ZZZY=    -0.0001 XXYY=  -220.7522 XXZZ=  -174.5080 YYZZ=  -103.3749
 XXYZ=    -0.0003 YYXZ=     0.0057 ZZXY=     0.0036
 N-N= 6.021330379164D+02 E-N=-5.923699630418D+03  KE= 1.991110635275D+03
 Merz-Kollman atomic radii used.
 Read replacement radii for each type of atom:
 Rad(20) =   1.188000000000D+00
 Atom Element Radius
    1     8    1.40
    2    15    1.80
    3     8    1.40
    4     8    1.40
    5     8    1.40
    6    20    1.19
    7    20    1.19

 **********************************************************************

            Electrostatic Properties Using The SCF Density

 **********************************************************************

       Atomic Center    1 is at   1.442371 -1.273517  0.000011
       Atomic Center    2 is at   2.320051 -0.000143  0.000011
       Atomic Center    3 is at  -1.713799  0.000103 -0.785949
       Atomic Center    4 is at   1.442560  1.273363  0.000031
       Atomic Center    5 is at  -1.713529  0.000103  0.786351
       Atomic Center    6 is at  -0.761419  1.858108 -0.000099
       Atomic Center    7 is at  -0.761660 -1.858022 -0.000089
     705 points will be used for fitting atomic charges
 Fitting point charges to eletrostatic potential
 Charges from ESP fit, RMS=   0.00424 RRMS=   0.02787:
 Charge=   1.00000 Dipole=    -2.9793     0.0001    -0.0027 Tot=     2.9793
              1
     1  O   -0.755466
     2  P    0.639757
     3  O   -0.787716
     4  O   -0.755458
     5  O   -0.787584
     6  Ca   1.723234
     7  Ca   1.723234
 -----------------------------------------------------------------

              Electrostatic Properties (Atomic Units)

 -----------------------------------------------------------------
    Center     Electric         -------- Electric Field --------
               Potential          X             Y             Z
 -----------------------------------------------------------------
    1 Atom    -22.184118
    2 Atom    -53.916353
    3 Atom    -22.214036
    4 Atom    -22.184115
    5 Atom    -22.214086
    6 Atom    -80.007934
    7 Atom    -80.007935
 -----------------------------------------------------------------
 1\1\GINC-N026\SP\RB3LYP\6-31+G(d,p)\Ca2O4P1(1+)\TIMN\12-Jun-2015\0\\# 
 b3lyp/6-31+G(d,p) int=ultrafine pop=(ReadRadii,MK)\\mol_16.4.24.pdbcc_
 plusQ.out.z51574.zip.xyz\\1,1\O,0,1.44235,-1.27354,0.00001\P,0,2.32005
 ,-0.00018,0.00001\O,0,-1.7138,0.00013,-0.78595\O,0,1.44258,1.27334,0.0
 0003\O,0,-1.71353,0.00013,0.78635\Ca,0,-0.76139,1.85812,-0.0001\Ca,0,-
 0.76169,-1.85801,-0.00009\\Version=EM64T-G03RevE.01\State=1-A\HF=-1997
 .3337247\RMSD=4.406e-05\Thermal=0.\Dipole=-1.2348072,0.0000633,-0.0010
 181\PG=C01 [X(Ca2O4P1)]\\@


 IN-LAWS ARE LIKE SEEDS. YOU DON'T NEED THEM
 BUT THEY COME WITH THE TOMATO.
 Job cpu time:  0 days  0 hours  0 minutes 43.8 seconds.
 File lengths (MBytes):  RWF=     28 Int=      0 D2E=      0 Chk=     10 Scr=      1
 Normal termination of Gaussian 03 at Fri Jun 12 17:48:11 2015.
