 Entering Gaussian System, Link 0=/home/timn/tmp/g03.e01/g03
 Input=mol_17.29.16.pdbcccc_plusQ.z58596.zip.xyz.gjf
 Output=mol_17.29.16.pdbcccc_plusQ.z58596.zip.xyz.out
 Initial command:
 /home/timn/tmp/g03.e01/l1.exe /home/timn/tmp/g03.e01/Gau-15589.inp -scrdir=/home/timn/tmp/g03.e01/
 Default is to use a total of   2 processors:
                                2 via shared-memory
                                1 via Linda
 Entering Link 1 = /home/timn/tmp/g03.e01/l1.exe PID=     15590.
  
 Copyright (c) 1988,1990,1992,1993,1995,1998,2003,2004,2007, Gaussian, Inc.
                  All Rights Reserved.
  
 This is the Gaussian(R) 03 program.  It is based on the
 the Gaussian(R) 98 system (copyright 1998, Gaussian, Inc.),
 the Gaussian(R) 94 system (copyright 1995, Gaussian, Inc.),
 the Gaussian 92(TM) system (copyright 1992, Gaussian, Inc.),
 the Gaussian 90(TM) system (copyright 1990, Gaussian, Inc.),
 the Gaussian 88(TM) system (copyright 1988, Gaussian, Inc.),
 the Gaussian 86(TM) system (copyright 1986, Carnegie Mellon
 University), and the Gaussian 82(TM) system (copyright 1983,
 Carnegie Mellon University). Gaussian is a federally registered
 trademark of Gaussian, Inc.
  
 This software contains proprietary and confidential information,
 including trade secrets, belonging to Gaussian, Inc.
  
 This software is provided under written license and may be
 used, copied, transmitted, or stored only in accord with that
 written license.
  
 The following legend is applicable only to US Government
 contracts under FAR:
  
                    RESTRICTED RIGHTS LEGEND
  
 Use, reproduction and disclosure by the US Government is
 subject to restrictions as set forth in subparagraphs (a)
 and (c) of the Commercial Computer Software - Restricted
 Rights clause in FAR 52.227-19.
  
 Gaussian, Inc.
 340 Quinnipiac St., Bldg. 40, Wallingford CT 06492
  
  
 ---------------------------------------------------------------
 Warning -- This program may not be used in any manner that
 competes with the business of Gaussian, Inc. or will provide
 assistance to any competitor of Gaussian, Inc.  The licensee
 of this program is prohibited from giving any competitor of
 Gaussian, Inc. access to this program.  By using this program,
 the user acknowledges that Gaussian, Inc. is engaged in the
 business of creating and licensing software in the field of
 computational chemistry and represents and warrants to the
 licensee that it is not a competitor of Gaussian, Inc. and that
 it will not use this program in any manner prohibited above.
 ---------------------------------------------------------------
  

 Cite this work as:
 Gaussian 03, Revision E.01,
 M. J. Frisch, G. W. Trucks, H. B. Schlegel, G. E. Scuseria, 
 M. A. Robb, J. R. Cheeseman, J. A. Montgomery, Jr., T. Vreven, 
 K. N. Kudin, J. C. Burant, J. M. Millam, S. S. Iyengar, J. Tomasi, 
 V. Barone, B. Mennucci, M. Cossi, G. Scalmani, N. Rega, 
 G. A. Petersson, H. Nakatsuji, M. Hada, M. Ehara, K. Toyota, 
 R. Fukuda, J. Hasegawa, M. Ishida, T. Nakajima, Y. Honda, O. Kitao, 
 H. Nakai, M. Klene, X. Li, J. E. Knox, H. P. Hratchian, J. B. Cross, 
 V. Bakken, C. Adamo, J. Jaramillo, R. Gomperts, R. E. Stratmann, 
 O. Yazyev, A. J. Austin, R. Cammi, C. Pomelli, J. W. Ochterski, 
 P. Y. Ayala, K. Morokuma, G. A. Voth, P. Salvador, J. J. Dannenberg, 
 V. G. Zakrzewski, S. Dapprich, A. D. Daniels, M. C. Strain, 
 O. Farkas, D. K. Malick, A. D. Rabuck, K. Raghavachari, 
 J. B. Foresman, J. V. Ortiz, Q. Cui, A. G. Baboul, S. Clifford, 
 J. Cioslowski, B. B. Stefanov, G. Liu, A. Liashenko, P. Piskorz, 
 I. Komaromi, R. L. Martin, D. J. Fox, T. Keith, M. A. Al-Laham, 
 C. Y. Peng, A. Nanayakkara, M. Challacombe, P. M. W. Gill, 
 B. Johnson, W. Chen, M. W. Wong, C. Gonzalez, and J. A. Pople, 
 Gaussian, Inc., Wallingford CT, 2004.
 
 ******************************************
 Gaussian 03:  EM64T-G03RevE.01 11-Sep-2007
                12-Jun-2015 
 ******************************************
 %nproc=2
 Will use up to    2 processors via shared memory.
 Default route:  MP2=Direct MaxDisk=2000MB
 ----------------------------------------------------
 # b3lyp/6-31+G(d,p) int=ultrafine pop=(ReadRadii,MK)
 ----------------------------------------------------

 Warning!  SCF SP cutoffs with diffuse functions may be unreliable.
 Consider SCF=Tight

 1/38=1/1;
 2/17=6,18=5,40=1/2;
 3/5=1,6=6,7=111,11=2,16=1,25=1,30=1,74=-5,75=5/1,2,3;
 4//1;
 5/5=2,32=1,38=5/2;
 6/7=2,8=2,9=2,10=2,15=8,20=101,28=1/1,2;
 99/5=1,9=1/99;
 -----------------------------------------
 mol_17.29.16.pdbcccc_plusQ.z58596.zip.xyz
 -----------------------------------------
 Symbolic Z-matrix:
 Charge =  1 Multiplicity = 1
 O                     3.41079  -0.65321  -0.00242 
 O                    -0.82209  -0.87987   0.778 
 Ca                    1.2218   -1.49252   0.00139 
 P                     3.17051   0.86704  -0.00127 
 O                     1.61313   1.04033   0.00248 
 O                    -0.82121  -0.87977  -0.77754 
 Ca                   -0.72615   1.51891   0.00064 
 O                    -2.87492   1.41594  -0.00052 
 Ca                   -3.07582  -0.69403  -0.00108 
 
                          Input orientation:                          
 ---------------------------------------------------------------------
 Center     Atomic     Atomic              Coordinates (Angstroms)
 Number     Number      Type              X           Y           Z
 ---------------------------------------------------------------------
    1          8             0        3.410790   -0.653210   -0.002420
    2          8             0       -0.822090   -0.879870    0.778000
    3         20             0        1.221800   -1.492520    0.001390
    4         15             0        3.170510    0.867040   -0.001270
    5          8             0        1.613130    1.040330    0.002480
    6          8             0       -0.821210   -0.879770   -0.777540
    7         20             0       -0.726150    1.518910    0.000640
    8          8             0       -2.874920    1.415940   -0.000520
    9         20             0       -3.075820   -0.694030   -0.001080
 ---------------------------------------------------------------------
                    Distance matrix (angstroms):
                    1          2          3          4          5
     1  O    0.000000
     2  O    4.310186   0.000000
     3  Ca   2.344383   2.270672   0.000000
     4  P    1.539122   4.427167   3.060229   0.000000
     5  O    2.469754   3.196701   2.562903   1.566996   0.000000
     6  O    4.308360   1.555540   2.270701   4.425807   3.197065
     7  Ca   4.672514   2.523418   3.586533   3.950810   2.387734
     8  O    6.617517   3.176625   5.024167   6.070298   4.503741
     9  Ca   6.486739   2.391820   4.371170   6.438445   4.999427
                    6          7          8          9
     6  O    0.000000
     7  Ca   2.523542   0.000000
     8  O    3.176755   2.151236   0.000000
     9  Ca   2.391789   3.227701   2.119513   0.000000
 Stoichiometry    Ca3O5P(1+)
 Framework group  C1[X(Ca3O5P)]
 Deg. of freedom    21
 Full point group                 C1
 Largest Abelian subgroup         C1      NOp   1
 Largest concise Abelian subgroup C1      NOp   1
                         Standard orientation:                         
 ---------------------------------------------------------------------
 Center     Atomic     Atomic              Coordinates (Angstroms)
 Number     Number      Type              X           Y           Z
 ---------------------------------------------------------------------
    1          8             0        3.410790   -0.653218   -0.002420
    2          8             0       -0.822090   -0.879870    0.778000
    3         20             0        1.221798   -1.492524    0.001390
    4         15             0        3.170513    0.867032   -0.001270
    5          8             0        1.613133    1.040325    0.002480
    6          8             0       -0.821210   -0.879770   -0.777540
    7         20             0       -0.726146    1.518910    0.000640
    8          8             0       -2.874916    1.415944   -0.000520
    9         20             0       -3.075820   -0.694025   -0.001080
 ---------------------------------------------------------------------
 Rotational constants (GHZ):      1.5595282      0.4315917      0.3470245
 Standard basis: 6-31+G(d,p) (6D, 7F)
 There are   199 symmetry adapted basis functions of A   symmetry.
 Integral buffers will be    131072 words long.
 Raffenetti 2 integral format.
 Two-electron integral symmetry is turned on.
   199 basis functions,   456 primitive gaussians,   199 cartesian basis functions
    57 alpha electrons       57 beta electrons
       nuclear repulsion energy       978.3790691154 Hartrees.
 NAtoms=    9 NActive=    9 NUniq=    9 SFac= 7.50D-01 NAtFMM=   80 NAOKFM=F Big=F
 One-electron integrals computed using PRISM.
 NBasis=   199 RedAO= T  NBF=   199
 NBsUse=   199 1.00D-06 NBFU=   199
 Harris functional with IExCor=  402 diagonalized for initial guess.
 ExpMin= 7.10D-03 ExpMax= 3.53D+04 ExpMxC= 5.30D+03 IAcc=3 IRadAn=         5 AccDes= 0.00D+00
 HarFok:  IExCor= 402 AccDes= 0.00D+00 IRadAn=         5 IDoV=1
 ScaDFX=  1.000000  1.000000  1.000000  1.000000
 Initial guess orbital symmetries:
       Occupied  (A) (A) (A) (A) (A) (A) (A) (A) (A) (A) (A) (A)
                 (A) (A) (A) (A) (A) (A) (A) (A) (A) (A) (A) (A)
                 (A) (A) (A) (A) (A) (A) (A) (A) (A) (A) (A) (A)
                 (A) (A) (A) (A) (A) (A) (A) (A) (A) (A) (A) (A)
                 (A) (A) (A) (A) (A) (A) (A) (A) (A)
       Virtual   (A) (A) (A) (A) (A) (A) (A) (A) (A) (A) (A) (A)
                 (A) (A) (A) (A) (A) (A) (A) (A) (A) (A) (A) (A)
                 (A) (A) (A) (A) (A) (A) (A) (A) (A) (A) (A) (A)
                 (A) (A) (A) (A) (A) (A) (A) (A) (A) (A) (A) (A)
                 (A) (A) (A) (A) (A) (A) (A) (A) (A) (A) (A) (A)
                 (A) (A) (A) (A) (A) (A) (A) (A) (A) (A) (A) (A)
                 (A) (A) (A) (A) (A) (A) (A) (A) (A) (A) (A) (A)
                 (A) (A) (A) (A) (A) (A) (A) (A) (A) (A) (A) (A)
                 (A) (A) (A) (A) (A) (A) (A) (A) (A) (A) (A) (A)
                 (A) (A) (A) (A) (A) (A) (A) (A) (A) (A) (A) (A)
                 (A) (A) (A) (A) (A) (A) (A) (A) (A) (A) (A) (A)
                 (A) (A) (A) (A) (A) (A) (A) (A) (A) (A)
 The electronic state of the initial guess is 1-A.
 Requested convergence on RMS density matrix=1.00D-04 within 128 cycles.
 Requested convergence on MAX density matrix=1.00D-02.
 Requested convergence on             energy=1.00D-02.
 No special actions if energy rises.
 EnCoef did     3 forward-backward iterations
 SCF Done:  E(RB+HF-LYP) =  -2750.19922760     A.U. after    8 cycles
             Convg  =    0.8780D-04             -V/T =  2.0029
             S**2   =   0.0000

 **********************************************************************

            Population analysis using the SCF density.

 **********************************************************************

 Orbital symmetries:
       Occupied  (A) (A) (A) (A) (A) (A) (A) (A) (A) (A) (A) (A)
                 (A) (A) (A) (A) (A) (A) (A) (A) (A) (A) (A) (A)
                 (A) (A) (A) (A) (A) (A) (A) (A) (A) (A) (A) (A)
                 (A) (A) (A) (A) (A) (A) (A) (A) (A) (A) (A) (A)
                 (A) (A) (A) (A) (A) (A) (A) (A) (A)
       Virtual   (A) (A) (A) (A) (A) (A) (A) (A) (A) (A) (A) (A)
                 (A) (A) (A) (A) (A) (A) (A) (A) (A) (A) (A) (A)
                 (A) (A) (A) (A) (A) (A) (A) (A) (A) (A) (A) (A)
                 (A) (A) (A) (A) (A) (A) (A) (A) (A) (A) (A) (A)
                 (A) (A) (A) (A) (A) (A) (A) (A) (A) (A) (A) (A)
                 (A) (A) (A) (A) (A) (A) (A) (A) (A) (A) (A) (A)
                 (A) (A) (A) (A) (A) (A) (A) (A) (A) (A) (A) (A)
                 (A) (A) (A) (A) (A) (A) (A) (A) (A) (A) (A) (A)
                 (A) (A) (A) (A) (A) (A) (A) (A) (A) (A) (A) (A)
                 (A) (A) (A) (A) (A) (A) (A) (A) (A) (A) (A) (A)
                 (A) (A) (A) (A) (A) (A) (A) (A) (A) (A) (A) (A)
                 (A) (A) (A) (A) (A) (A) (A) (A) (A) (A)
 The electronic state is 1-A.
 Alpha  occ. eigenvalues -- -145.53299-145.48101-145.46500 -77.31646 -19.29957
 Alpha  occ. eigenvalues --  -19.29135 -19.27656 -19.27651 -19.10311 -15.60145
 Alpha  occ. eigenvalues --  -15.54938 -15.53359 -12.73381 -12.73376 -12.73211
 Alpha  occ. eigenvalues --  -12.68157 -12.68121 -12.68041 -12.66613 -12.66577
 Alpha  occ. eigenvalues --  -12.66408  -6.77271  -4.93703  -4.93471  -4.93053
 Alpha  occ. eigenvalues --   -1.97330  -1.92136  -1.90669  -1.25313  -1.25143
 Alpha  occ. eigenvalues --   -1.25003  -1.20357  -1.19790  -1.19239  -1.18530
 Alpha  occ. eigenvalues --   -1.18452  -1.17870  -1.15551  -1.10914  -1.09762
 Alpha  occ. eigenvalues --   -0.91289  -0.84520  -0.68929  -0.57896  -0.55271
 Alpha  occ. eigenvalues --   -0.54482  -0.51224  -0.50448  -0.49465  -0.46900
 Alpha  occ. eigenvalues --   -0.45452  -0.42700  -0.38846  -0.36715  -0.30147
 Alpha  occ. eigenvalues --   -0.28563  -0.28510
 Alpha virt. eigenvalues --   -0.21597  -0.19565  -0.17911  -0.15028  -0.15009
 Alpha virt. eigenvalues --   -0.11255  -0.10531  -0.09853  -0.09287  -0.08793
 Alpha virt. eigenvalues --   -0.08674  -0.08136  -0.07317  -0.06844  -0.06403
 Alpha virt. eigenvalues --   -0.05270  -0.05161  -0.04773  -0.04392  -0.04325
 Alpha virt. eigenvalues --   -0.04067  -0.03928  -0.03832  -0.03754  -0.03164
 Alpha virt. eigenvalues --   -0.02886  -0.02820  -0.02756  -0.02036  -0.00679
 Alpha virt. eigenvalues --    0.01191   0.02370   0.03020   0.03129   0.03557
 Alpha virt. eigenvalues --    0.04613   0.04769   0.05247   0.05722   0.05974
 Alpha virt. eigenvalues --    0.06044   0.07070   0.07152   0.08138   0.08650
 Alpha virt. eigenvalues --    0.09109   0.09288   0.10065   0.10525   0.11195
 Alpha virt. eigenvalues --    0.12841   0.12877   0.14784   0.14995   0.16232
 Alpha virt. eigenvalues --    0.16461   0.16526   0.17569   0.18107   0.20917
 Alpha virt. eigenvalues --    0.21385   0.22316   0.22848   0.23438   0.24457
 Alpha virt. eigenvalues --    0.26191   0.28128   0.28795   0.29849   0.31218
 Alpha virt. eigenvalues --    0.31307   0.33454   0.35770   0.37587   0.39305
 Alpha virt. eigenvalues --    0.42546   0.43239   0.45404   0.47294   0.47387
 Alpha virt. eigenvalues --    0.51488   0.53832   0.56498   0.60334   0.61237
 Alpha virt. eigenvalues --    0.63767   0.84709   0.89747   0.94116   0.99243
 Alpha virt. eigenvalues --    1.04397   1.06950   1.08631   1.10107   1.11266
 Alpha virt. eigenvalues --    1.11289   1.14316   1.15318   1.17573   1.19319
 Alpha virt. eigenvalues --    1.19827   1.21088   1.24062   1.29925   1.34429
 Alpha virt. eigenvalues --    1.35822   1.41127   1.46721   1.47081   1.53214
 Alpha virt. eigenvalues --    1.54252   1.60402   1.65372   1.66159   1.66531
 Alpha virt. eigenvalues --    1.69485   1.73058   1.74293   1.76451   1.78988
 Alpha virt. eigenvalues --    1.82217   1.83843   1.84154   1.86188   1.87443
 Alpha virt. eigenvalues --    1.89438   1.92634   1.95943   2.01022   2.04351
 Alpha virt. eigenvalues --    2.16475   2.17805   2.17900   2.50724   2.67351
 Alpha virt. eigenvalues --    3.00527   3.38859   3.87255   3.89014   4.00833
 Alpha virt. eigenvalues --    4.08745   4.08989
          Condensed to atoms (all electrons):
              1          2          3          4          5          6
     1  O    8.529524  -0.001269   0.079171   0.111299  -0.074582  -0.001242
     2  O   -0.001269   8.576835   0.094652  -0.004144  -0.000427  -0.050462
     3  Ca   0.079171   0.094652  18.244202  -0.018416   0.022361   0.094630
     4  P    0.111299  -0.004144  -0.018416  14.415456  -0.159729  -0.004161
     5  O   -0.074582  -0.000427   0.022361  -0.159729   8.921093  -0.000420
     6  O   -0.001242  -0.050462   0.094630  -0.004161  -0.000420   8.577016
     7  Ca   0.003481   0.027596  -0.004182  -0.006707   0.034091   0.027668
     8  O    0.000000   0.000584   0.001294  -0.001398  -0.005215   0.000564
     9  Ca   0.001055   0.050869  -0.016938  -0.012404   0.005510   0.050833
              7          8          9
     1  O    0.003481   0.000000   0.001055
     2  O    0.027596   0.000584   0.050869
     3  Ca  -0.004182   0.001294  -0.016938
     4  P   -0.006707  -0.001398  -0.012404
     5  O    0.034091  -0.005215   0.005510
     6  O    0.027668   0.000564   0.050833
     7  Ca  18.364720   0.224539  -0.027435
     8  O    0.224539   8.679332   0.224135
     9  Ca  -0.027435   0.224135  18.361420
 Mulliken atomic charges:
              1
     1  O   -0.647438
     2  O   -0.694234
     3  Ca   1.503226
     4  P    0.680204
     5  O   -0.742682
     6  O   -0.694425
     7  Ca   1.356228
     8  O   -1.123834
     9  Ca   1.362955
 Sum of Mulliken charges=   1.00000
 Atomic charges with hydrogens summed into heavy atoms:
              1
     1  O   -0.647438
     2  O   -0.694234
     3  Ca   1.503226
     4  P    0.680204
     5  O   -0.742682
     6  O   -0.694425
     7  Ca   1.356228
     8  O   -1.123834
     9  Ca   1.362955
 Sum of Mulliken charges=   1.00000
 Electronic spatial extent (au):  <R**2>=  2764.5453
 Charge=     1.0000 electrons
 Dipole moment (field-independent basis, Debye):
    X=     0.3535    Y=    -7.6408    Z=     0.0062  Tot=     7.6490
 Quadrupole moment (field-independent basis, Debye-Ang):
   XX=   -63.4215   YY=   -57.0546   ZZ=   -77.2559
   XY=    23.1645   XZ=     0.0352   YZ=    -0.0124
 Traceless Quadrupole moment (field-independent basis, Debye-Ang):
   XX=     2.4892   YY=     8.8561   ZZ=   -11.3452
   XY=    23.1645   XZ=     0.0352   YZ=    -0.0124
 Octapole moment (field-independent basis, Debye-Ang**2):
  XXX=  -107.7327  YYY=   -38.0153  ZZZ=     0.0195  XYY=    27.7473
  XXY=  -109.5279  XXZ=     0.0279  XZZ=     2.9061  YZZ=    -3.4973
  YYZ=     0.0447  XYZ=    -0.0969
 Hexadecapole moment (field-independent basis, Debye-Ang**3):
 XXXX= -2335.1932 YYYY=  -569.6560 ZZZZ=  -129.5771 XXXY=   483.7593
 XXXZ=     0.5143 YYYX=     2.8755 YYYZ=    -0.0212 ZZZX=     0.0734
 ZZZY=    -0.0050 XXYY=  -575.9773 XXZZ=  -421.9309 YYZZ=  -130.0564
 XXYZ=     0.0001 YYXZ=     0.0535 ZZXY=     6.1408
 N-N= 9.783790691154D+02 E-N=-8.456757689841D+03  KE= 2.742195260350D+03
 Merz-Kollman atomic radii used.
 Read replacement radii for each type of atom:
 Rad(20) =   1.188000000000D+00
 Atom Element Radius
    1     8    1.40
    2     8    1.40
    3    20    1.19
    4    15    1.80
    5     8    1.40
    6     8    1.40
    7    20    1.19
    8     8    1.40
    9    20    1.19

 **********************************************************************

            Electrostatic Properties Using The SCF Density

 **********************************************************************

       Atomic Center    1 is at   3.410790 -0.653218 -0.002420
       Atomic Center    2 is at  -0.822090 -0.879870  0.778000
       Atomic Center    3 is at   1.221798 -1.492524  0.001390
       Atomic Center    4 is at   3.170513  0.867032 -0.001270
       Atomic Center    5 is at   1.613133  1.040325  0.002480
       Atomic Center    6 is at  -0.821210 -0.879770 -0.777540
       Atomic Center    7 is at  -0.726146  1.518910  0.000640
       Atomic Center    8 is at  -2.874916  1.415944 -0.000520
       Atomic Center    9 is at  -3.075820 -0.694025 -0.001080
     878 points will be used for fitting atomic charges
 Fitting point charges to eletrostatic potential
 Charges from ESP fit, RMS=   0.00499 RRMS=   0.03332:
 Charge=   1.00000 Dipole=     0.0773    -7.7073     0.0049 Tot=     7.7077
              1
     1  O   -0.647997
     2  O   -0.868169
     3  Ca   1.731739
     4  P    0.596538
     5  O   -0.762730
     6  O   -0.868204
     7  Ca   1.665812
     8  O   -1.478074
     9  Ca   1.631085
 -----------------------------------------------------------------

              Electrostatic Properties (Atomic Units)

 -----------------------------------------------------------------
    Center     Electric         -------- Electric Field --------
               Potential          X             Y             Z
 -----------------------------------------------------------------
    1 Atom    -22.175299
    2 Atom    -22.188368
    3 Atom    -80.007461
    4 Atom    -53.900354
    5 Atom    -22.165625
    6 Atom    -22.188366
    7 Atom    -80.075572
    8 Atom    -22.360318
    9 Atom    -80.060485
 -----------------------------------------------------------------
 1\1\GINC-N030\SP\RB3LYP\6-31+G(d,p)\Ca3O5P1(1+)\TIMN\12-Jun-2015\0\\# 
 b3lyp/6-31+G(d,p) int=ultrafine pop=(ReadRadii,MK)\\mol_17.29.16.pdbcc
 cc_plusQ.z58596.zip.xyz\\1,1\O,0,3.41079,-0.65321,-0.00242\O,0,-0.8220
 9,-0.87987,0.778\Ca,0,1.2218,-1.49252,0.00139\P,0,3.17051,0.86704,-0.0
 0127\O,0,1.61313,1.04033,0.00248\O,0,-0.82121,-0.87977,-0.77754\Ca,0,-
 0.72615,1.51891,0.00064\O,0,-2.87492,1.41594,-0.00052\Ca,0,-3.07582,-0
 .69403,-0.00108\\Version=EM64T-G03RevE.01\State=1-A\HF=-2750.1992276\R
 MSD=8.780e-05\Thermal=0.\Dipole=0.1390737,-3.0061152,0.0024289\PG=C01 
 [X(Ca3O5P1)]\\@


 THE 2ND LAW OF THERMODYNAMICS HAS THE SAME
 DEGREE OF TRUTH AS THE STATEMENT THAT IF YOU THROW
 A TUMBLERFULL OF WATER INTO THE SEA, YOU CANNOT GET
 THE SAME TUMBLERFULL OF WATER OUT AGAIN.
          - J.C. MAXWELL, LETTER TO LORD RAYLEIGH, DECEMBER 6,1870
 Job cpu time:  0 days  0 hours  1 minutes 57.6 seconds.
 File lengths (MBytes):  RWF=     36 Int=      0 D2E=      0 Chk=     11 Scr=      1
 Normal termination of Gaussian 03 at Fri Jun 12 18:11:40 2015.
