 Entering Gaussian System, Link 0=/home/timn/tmp/g03.e01/g03
 Input=mol_16.4.52.pdb_plusQ.out.z51603.zip.xyz.gjf
 Output=mol_16.4.52.pdb_plusQ.out.z51603.zip.xyz.out
 Initial command:
 /home/timn/tmp/g03.e01/l1.exe /home/timn/tmp/g03.e01/Gau-16715.inp -scrdir=/home/timn/tmp/g03.e01/
 Default is to use a total of   2 processors:
                                2 via shared-memory
                                1 via Linda
 Entering Link 1 = /home/timn/tmp/g03.e01/l1.exe PID=     16718.
  
 Copyright (c) 1988,1990,1992,1993,1995,1998,2003,2004,2007, Gaussian, Inc.
                  All Rights Reserved.
  
 This is the Gaussian(R) 03 program.  It is based on the
 the Gaussian(R) 98 system (copyright 1998, Gaussian, Inc.),
 the Gaussian(R) 94 system (copyright 1995, Gaussian, Inc.),
 the Gaussian 92(TM) system (copyright 1992, Gaussian, Inc.),
 the Gaussian 90(TM) system (copyright 1990, Gaussian, Inc.),
 the Gaussian 88(TM) system (copyright 1988, Gaussian, Inc.),
 the Gaussian 86(TM) system (copyright 1986, Carnegie Mellon
 University), and the Gaussian 82(TM) system (copyright 1983,
 Carnegie Mellon University). Gaussian is a federally registered
 trademark of Gaussian, Inc.
  
 This software contains proprietary and confidential information,
 including trade secrets, belonging to Gaussian, Inc.
  
 This software is provided under written license and may be
 used, copied, transmitted, or stored only in accord with that
 written license.
  
 The following legend is applicable only to US Government
 contracts under FAR:
  
                    RESTRICTED RIGHTS LEGEND
  
 Use, reproduction and disclosure by the US Government is
 subject to restrictions as set forth in subparagraphs (a)
 and (c) of the Commercial Computer Software - Restricted
 Rights clause in FAR 52.227-19.
  
 Gaussian, Inc.
 340 Quinnipiac St., Bldg. 40, Wallingford CT 06492
  
  
 ---------------------------------------------------------------
 Warning -- This program may not be used in any manner that
 competes with the business of Gaussian, Inc. or will provide
 assistance to any competitor of Gaussian, Inc.  The licensee
 of this program is prohibited from giving any competitor of
 Gaussian, Inc. access to this program.  By using this program,
 the user acknowledges that Gaussian, Inc. is engaged in the
 business of creating and licensing software in the field of
 computational chemistry and represents and warrants to the
 licensee that it is not a competitor of Gaussian, Inc. and that
 it will not use this program in any manner prohibited above.
 ---------------------------------------------------------------
  

 Cite this work as:
 Gaussian 03, Revision E.01,
 M. J. Frisch, G. W. Trucks, H. B. Schlegel, G. E. Scuseria, 
 M. A. Robb, J. R. Cheeseman, J. A. Montgomery, Jr., T. Vreven, 
 K. N. Kudin, J. C. Burant, J. M. Millam, S. S. Iyengar, J. Tomasi, 
 V. Barone, B. Mennucci, M. Cossi, G. Scalmani, N. Rega, 
 G. A. Petersson, H. Nakatsuji, M. Hada, M. Ehara, K. Toyota, 
 R. Fukuda, J. Hasegawa, M. Ishida, T. Nakajima, Y. Honda, O. Kitao, 
 H. Nakai, M. Klene, X. Li, J. E. Knox, H. P. Hratchian, J. B. Cross, 
 V. Bakken, C. Adamo, J. Jaramillo, R. Gomperts, R. E. Stratmann, 
 O. Yazyev, A. J. Austin, R. Cammi, C. Pomelli, J. W. Ochterski, 
 P. Y. Ayala, K. Morokuma, G. A. Voth, P. Salvador, J. J. Dannenberg, 
 V. G. Zakrzewski, S. Dapprich, A. D. Daniels, M. C. Strain, 
 O. Farkas, D. K. Malick, A. D. Rabuck, K. Raghavachari, 
 J. B. Foresman, J. V. Ortiz, Q. Cui, A. G. Baboul, S. Clifford, 
 J. Cioslowski, B. B. Stefanov, G. Liu, A. Liashenko, P. Piskorz, 
 I. Komaromi, R. L. Martin, D. J. Fox, T. Keith, M. A. Al-Laham, 
 C. Y. Peng, A. Nanayakkara, M. Challacombe, P. M. W. Gill, 
 B. Johnson, W. Chen, M. W. Wong, C. Gonzalez, and J. A. Pople, 
 Gaussian, Inc., Wallingford CT, 2004.
 
 ******************************************
 Gaussian 03:  EM64T-G03RevE.01 11-Sep-2007
                12-Jun-2015 
 ******************************************
 %nproc=2
 Will use up to    2 processors via shared memory.
 Default route:  MP2=Direct MaxDisk=2000MB
 ----------------------------------------------------
 # b3lyp/6-31+G(d,p) int=ultrafine pop=(ReadRadii,MK)
 ----------------------------------------------------

 Warning!  SCF SP cutoffs with diffuse functions may be unreliable.
 Consider SCF=Tight

 1/38=1/1;
 2/17=6,18=5,40=1/2;
 3/5=1,6=6,7=111,11=2,16=1,25=1,30=1,74=-5,75=5/1,2,3;
 4//1;
 5/5=2,32=1,38=5/2;
 6/7=2,8=2,9=2,10=2,15=8,20=101,28=1/1,2;
 99/5=1,9=1/99;
 ----------------------------------------
 mol_16.4.52.pdb_plusQ.out.z51603.zip.xyz
 ----------------------------------------
 Symbolic Z-matrix:
 Charge =  1 Multiplicity = 1
 O                     0.14928  -1.95654   0.7695 
 O                     0.14928  -1.95654  -0.7695 
 P                     0.95966  -0.51986   0. 
 Ca                    0.72923   2.28254   0. 
 O                     0.14928   0.47236   1.18647 
 Ca                   -1.68782  -0.7053    0. 
 O                     0.14928   0.47236  -1.18647 
 
                          Input orientation:                          
 ---------------------------------------------------------------------
 Center     Atomic     Atomic              Coordinates (Angstroms)
 Number     Number      Type              X           Y           Z
 ---------------------------------------------------------------------
    1          8             0        0.149280   -1.956540    0.769500
    2          8             0        0.149280   -1.956540   -0.769500
    3         15             0        0.959660   -0.519860    0.000000
    4         20             0        0.729230    2.282540    0.000000
    5          8             0        0.149280    0.472360    1.186470
    6         20             0       -1.687820   -0.705300    0.000000
    7          8             0        0.149280    0.472360   -1.186470
 ---------------------------------------------------------------------
                    Distance matrix (angstroms):
                    1          2          3          4          5
     1  O    0.000000
     2  O    1.539000   0.000000
     3  P    1.820136   1.820136   0.000000
     4  Ca   4.347214   4.347214   2.811858   0.000000
     5  O    2.464431   3.118553   1.746118   2.240715   0.000000
     6  Ca   2.352162   2.352162   2.653967   3.843087   2.483854
     7  O    3.118553   2.464431   1.746118   2.240715   2.372940
                    6          7
     6  Ca   0.000000
     7  O    2.483854   0.000000
 Stoichiometry    Ca2O4P(1+)
 Framework group  CS[SG(Ca2P),X(O4)]
 Deg. of freedom     9
 Full point group                 CS
 Largest Abelian subgroup         CS      NOp   2
 Largest concise Abelian subgroup CS      NOp   2
                         Standard orientation:                         
 ---------------------------------------------------------------------
 Center     Atomic     Atomic              Coordinates (Angstroms)
 Number     Number      Type              X           Y           Z
 ---------------------------------------------------------------------
    1          8             0        0.149279   -1.956540    0.769500
    2          8             0        0.149279   -1.956540   -0.769500
    3         15             0        0.959659   -0.519860    0.000000
    4         20             0        0.729229    2.282540    0.000000
    5          8             0        0.149279    0.472360    1.186470
    6         20             0       -1.687821   -0.705300    0.000000
    7          8             0        0.149279    0.472360   -1.186470
 ---------------------------------------------------------------------
 Rotational constants (GHZ):      2.6108823      1.0857349      0.9515900
 Standard basis: 6-31+G(d,p) (6D, 7F)
 There are    95 symmetry adapted basis functions of A'  symmetry.
 There are    58 symmetry adapted basis functions of A"  symmetry.
 Integral buffers will be    131072 words long.
 Raffenetti 2 integral format.
 Two-electron integral symmetry is turned on.
   153 basis functions,   344 primitive gaussians,   153 cartesian basis functions
    43 alpha electrons       43 beta electrons
       nuclear repulsion energy       654.0404063474 Hartrees.
 NAtoms=    7 NActive=    7 NUniq=    5 SFac= 1.47D+00 NAtFMM=   80 NAOKFM=F Big=F
 One-electron integrals computed using PRISM.
 NBasis=   153 RedAO= T  NBF=    95    58
 NBsUse=   153 1.00D-06 NBFU=    95    58
 Harris functional with IExCor=  402 diagonalized for initial guess.
 ExpMin= 7.10D-03 ExpMax= 3.53D+04 ExpMxC= 5.30D+03 IAcc=3 IRadAn=         5 AccDes= 0.00D+00
 HarFok:  IExCor= 402 AccDes= 0.00D+00 IRadAn=         5 IDoV=1
 ScaDFX=  1.000000  1.000000  1.000000  1.000000
 Initial guess orbital symmetries:
       Occupied  (A') (A') (A') (A') (A") (A') (A") (A') (A') (A')
                 (A') (A") (A') (A") (A') (A') (A') (A') (A") (A')
                 (A') (A') (A') (A") (A') (A") (A') (A') (A') (A")
                 (A") (A') (A') (A') (A") (A') (A') (A") (A') (A")
                 (A") (A") (A')
       Virtual   (A") (A') (A') (A') (A") (A') (A') (A") (A") (A')
                 (A') (A') (A') (A") (A') (A') (A') (A") (A') (A')
                 (A') (A") (A') (A') (A') (A") (A') (A') (A") (A')
                 (A") (A") (A') (A') (A") (A') (A') (A') (A") (A")
                 (A') (A') (A") (A') (A") (A') (A") (A') (A') (A')
                 (A") (A') (A") (A') (A") (A') (A') (A") (A') (A")
                 (A') (A') (A') (A") (A') (A") (A') (A') (A') (A")
                 (A') (A") (A') (A') (A") (A") (A") (A') (A') (A")
                 (A') (A') (A") (A') (A') (A") (A") (A') (A') (A")
                 (A') (A') (A") (A") (A") (A') (A') (A') (A") (A')
                 (A") (A') (A") (A") (A") (A') (A") (A') (A') (A")
 The electronic state of the initial guess is 1-A'.
 Requested convergence on RMS density matrix=1.00D-04 within 128 cycles.
 Requested convergence on MAX density matrix=1.00D-02.
 Requested convergence on             energy=1.00D-02.
 No special actions if energy rises.
 SCF Done:  E(RB+HF-LYP) =  -1997.18931650     A.U. after    8 cycles
             Convg  =    0.5538D-04             -V/T =  2.0031
             S**2   =   0.0000

 **********************************************************************

            Population analysis using the SCF density.

 **********************************************************************

 Orbital symmetries:
       Occupied  (A') (A') (A') (A') (A") (A") (A') (A') (A') (A')
                 (A") (A') (A') (A') (A") (A') (A') (A") (A') (A')
                 (A') (A') (A') (A") (A') (A') (A") (A') (A') (A")
                 (A") (A') (A') (A') (A') (A") (A') (A") (A') (A")
                 (A") (A") (A')
       Virtual   (A') (A') (A') (A") (A') (A") (A") (A') (A') (A')
                 (A') (A') (A') (A") (A') (A") (A") (A') (A') (A')
                 (A') (A") (A') (A') (A') (A") (A') (A') (A") (A')
                 (A') (A") (A") (A') (A') (A') (A') (A") (A") (A')
                 (A") (A') (A") (A') (A") (A') (A") (A') (A') (A')
                 (A") (A') (A') (A') (A") (A") (A') (A") (A') (A")
                 (A') (A') (A') (A") (A') (A') (A") (A') (A') (A")
                 (A') (A") (A') (A") (A') (A") (A') (A") (A') (A")
                 (A') (A') (A") (A') (A") (A') (A') (A') (A") (A')
                 (A") (A') (A") (A") (A') (A") (A') (A") (A') (A')
                 (A") (A") (A') (A") (A") (A') (A") (A') (A') (A")
 The electronic state is 1-A'.
 Alpha  occ. eigenvalues -- -145.57758-145.55591 -77.28915 -19.29094 -19.29088
 Alpha  occ. eigenvalues --  -19.22286 -19.22286 -15.64587 -15.62293 -12.77833
 Alpha  occ. eigenvalues --  -12.77730 -12.77709 -12.75498 -12.75473 -12.75472
 Alpha  occ. eigenvalues --   -6.73746  -4.90165  -4.89946  -4.89655  -2.01609
 Alpha  occ. eigenvalues --   -1.99196  -1.29381  -1.28916  -1.28683  -1.27728
 Alpha  occ. eigenvalues --   -1.26433  -1.26306  -1.17965  -1.05061  -1.00005
 Alpha  occ. eigenvalues --   -0.92767  -0.67514  -0.54381  -0.53338  -0.52311
 Alpha  occ. eigenvalues --   -0.49823  -0.45969  -0.42496  -0.42317  -0.39052
 Alpha  occ. eigenvalues --   -0.35932  -0.35386  -0.35300
 Alpha virt. eigenvalues --   -0.24393  -0.21699  -0.16289  -0.14565  -0.13547
 Alpha virt. eigenvalues --   -0.13124  -0.10912  -0.10475  -0.08291  -0.08174
 Alpha virt. eigenvalues --   -0.07665  -0.06190  -0.05663  -0.05527  -0.05130
 Alpha virt. eigenvalues --   -0.04987  -0.04509  -0.04261  -0.03592  -0.03172
 Alpha virt. eigenvalues --   -0.01312  -0.01107  -0.00531   0.00587   0.01725
 Alpha virt. eigenvalues --    0.01910   0.02222   0.02775   0.03498   0.03579
 Alpha virt. eigenvalues --    0.04434   0.04441   0.05077   0.06363   0.06712
 Alpha virt. eigenvalues --    0.07221   0.07984   0.08912   0.10861   0.14412
 Alpha virt. eigenvalues --    0.14693   0.17404   0.17650   0.17808   0.19553
 Alpha virt. eigenvalues --    0.20710   0.21082   0.22836   0.23716   0.25416
 Alpha virt. eigenvalues --    0.25562   0.28305   0.30848   0.32557   0.33576
 Alpha virt. eigenvalues --    0.35586   0.37701   0.40127   0.42926   0.47181
 Alpha virt. eigenvalues --    0.47341   0.53679   0.58164   0.69359   0.72020
 Alpha virt. eigenvalues --    0.79589   0.82167   0.85744   0.92537   1.07459
 Alpha virt. eigenvalues --    1.10347   1.13344   1.14906   1.15093   1.15355
 Alpha virt. eigenvalues --    1.16055   1.20422   1.23022   1.24969   1.27433
 Alpha virt. eigenvalues --    1.32145   1.46353   1.52715   1.55190   1.60942
 Alpha virt. eigenvalues --    1.61510   1.70926   1.71715   1.72057   1.75876
 Alpha virt. eigenvalues --    1.76156   1.77709   1.81310   1.84999   1.86088
 Alpha virt. eigenvalues --    1.87068   1.87178   1.96247   1.98396   2.15150
 Alpha virt. eigenvalues --    2.18288   2.33621   2.35001   2.41042   3.06254
 Alpha virt. eigenvalues --    3.53139   4.03563   4.04289   4.20327   4.22380
          Condensed to atoms (all electrons):
              1          2          3          4          5          6
     1  O    8.301564   0.026022   0.069004   0.006903  -0.030358   0.059492
     2  O    0.026022   8.301564   0.069004   0.006903  -0.007756   0.059492
     3  P    0.069004   0.069004  14.419401  -0.046368  -0.148394   0.085650
     4  Ca   0.006903   0.006903  -0.046368  18.255226   0.157490  -0.013558
     5  O   -0.030358  -0.007756  -0.148394   0.157490   8.866636   0.056280
     6  Ca   0.059492   0.059492   0.085650  -0.013558   0.056280  18.266419
     7  O   -0.007756  -0.030358  -0.148394   0.157490  -0.015788   0.056280
              7
     1  O   -0.007756
     2  O   -0.030358
     3  P   -0.148394
     4  Ca   0.157490
     5  O   -0.015788
     6  Ca   0.056280
     7  O    8.866636
 Mulliken atomic charges:
              1
     1  O   -0.424870
     2  O   -0.424870
     3  P    0.700098
     4  Ca   1.475915
     5  O   -0.878110
     6  Ca   1.429946
     7  O   -0.878110
 Sum of Mulliken charges=   1.00000
 Atomic charges with hydrogens summed into heavy atoms:
              1
     1  O   -0.424870
     2  O   -0.424870
     3  P    0.700098
     4  Ca   1.475915
     5  O   -0.878110
     6  Ca   1.429946
     7  O   -0.878110
 Sum of Mulliken charges=   1.00000
 Electronic spatial extent (au):  <R**2>=  1154.7404
 Charge=     1.0000 electrons
 Dipole moment (field-independent basis, Debye):
    X=    -6.7730    Y=    12.8292    Z=     0.0000  Tot=    14.5073
 Quadrupole moment (field-independent basis, Debye-Ang):
   XX=   -29.8713   YY=   -25.3981   ZZ=   -70.5934
   XY=    21.9759   XZ=     0.0000   YZ=     0.0000
 Traceless Quadrupole moment (field-independent basis, Debye-Ang):
   XX=    12.0830   YY=    16.5562   ZZ=   -28.6391
   XY=    21.9759   XZ=     0.0000   YZ=     0.0000
 Octapole moment (field-independent basis, Debye-Ang**2):
  XXX=   -61.4138  YYY=   146.2740  ZZZ=     0.0000  XYY=    19.6313
  XXY=     0.7980  XXZ=     0.0000  XZZ=    -6.9184  YZZ=     4.4550
  YYZ=     0.0000  XYZ=     0.0000
 Hexadecapole moment (field-independent basis, Debye-Ang**3):
 XXXX=  -250.4455 YYYY=  -487.6859 ZZZZ=  -243.2567 XXXY=    -7.7430
 XXXZ=     0.0000 YYYX=    29.6753 YYYZ=     0.0000 ZZZX=     0.0000
 ZZZY=     0.0000 XXYY=  -125.2036 XXZZ=   -89.5375 YYZZ=  -160.4569
 XXYZ=     0.0000 YYXZ=     0.0000 ZZXY=   -17.8922
 N-N= 6.540404063474D+02 E-N=-6.026816073019D+03  KE= 1.991050220911D+03
 Symmetry A'   KE= 1.665031142070D+03
 Symmetry A"   KE= 3.260190788414D+02
 Merz-Kollman atomic radii used.
 Read replacement radii for each type of atom:
 Rad(20) =   1.188000000000D+00
 Atom Element Radius
    1     8    1.40
    2     8    1.40
    3    15    1.80
    4    20    1.19
    5     8    1.40
    6    20    1.19
    7     8    1.40

 **********************************************************************

            Electrostatic Properties Using The SCF Density

 **********************************************************************

       Atomic Center    1 is at   0.149279 -1.956540  0.769500
       Atomic Center    2 is at   0.149279 -1.956540 -0.769500
       Atomic Center    3 is at   0.959659 -0.519860  0.000000
       Atomic Center    4 is at   0.729229  2.282540  0.000000
       Atomic Center    5 is at   0.149279  0.472360  1.186470
       Atomic Center    6 is at  -1.687821 -0.705300  0.000000
       Atomic Center    7 is at   0.149279  0.472360 -1.186470
     621 points will be used for fitting atomic charges
 Fitting point charges to eletrostatic potential
 Charges from ESP fit, RMS=   0.00759 RRMS=   0.04428:
 Charge=   1.00000 Dipole=    -6.9022    12.8507     0.0000 Tot=    14.5870
              1
     1  O   -0.322195
     2  O   -0.322195
     3  P    0.472637
     4  Ca   1.647150
     5  O   -1.033668
     6  Ca   1.591940
     7  O   -1.033668
 -----------------------------------------------------------------

              Electrostatic Properties (Atomic Units)

 -----------------------------------------------------------------
    Center     Electric         -------- Electric Field --------
               Potential          X             Y             Z
 -----------------------------------------------------------------
    1 Atom    -22.184754
    2 Atom    -22.184754
    3 Atom    -53.927066
    4 Atom    -79.963721
    5 Atom    -22.244443
    6 Atom    -79.984384
    7 Atom    -22.244443
 -----------------------------------------------------------------
 1\1\GINC-N028\SP\RB3LYP\6-31+G(d,p)\Ca2O4P1(1+)\TIMN\12-Jun-2015\0\\# 
 b3lyp/6-31+G(d,p) int=ultrafine pop=(ReadRadii,MK)\\mol_16.4.52.pdb_pl
 usQ.out.z51603.zip.xyz\\1,1\O,0,0.14928,-1.95654,0.7695\O,0,0.14928,-1
 .95654,-0.7695\P,0,0.95966,-0.51986,0.\Ca,0,0.72923,2.28254,0.\O,0,0.1
 4928,0.47236,1.18647\Ca,0,-1.68782,-0.7053,0.\O,0,0.14928,0.47236,-1.1
 8647\\Version=EM64T-G03RevE.01\State=1-A'\HF=-1997.1893165\RMSD=5.538e
 -05\Thermal=0.\Dipole=-2.664707,5.0473944,0.\PG=CS [SG(Ca2P1),X(O4)]\\
 @


 THE ONLY DIFFERENCE BETWEEN ECCENTRICS AND JOGGERS
 IS THAT JOGGERS WEAR SWEATBANDS WHEN THEY RUN IN THE RAIN.
 Job cpu time:  0 days  0 hours  0 minutes 35.7 seconds.
 File lengths (MBytes):  RWF=     28 Int=      0 D2E=      0 Chk=     10 Scr=      1
 Normal termination of Gaussian 03 at Fri Jun 12 17:48:42 2015.
