 Entering Gaussian System, Link 0=/home/timn/tmp/g03.e01/g03
 Input=mol_17.23.40.pdbcc_plusQ.z58241.zip.xyz.gjf
 Output=mol_17.23.40.pdbcc_plusQ.z58241.zip.xyz.out
 Initial command:
 /home/timn/tmp/g03.e01/l1.exe /home/timn/tmp/g03.e01/Gau-14367.inp -scrdir=/home/timn/tmp/g03.e01/
 Default is to use a total of   2 processors:
                                2 via shared-memory
                                1 via Linda
 Entering Link 1 = /home/timn/tmp/g03.e01/l1.exe PID=     14368.
  
 Copyright (c) 1988,1990,1992,1993,1995,1998,2003,2004,2007, Gaussian, Inc.
                  All Rights Reserved.
  
 This is the Gaussian(R) 03 program.  It is based on the
 the Gaussian(R) 98 system (copyright 1998, Gaussian, Inc.),
 the Gaussian(R) 94 system (copyright 1995, Gaussian, Inc.),
 the Gaussian 92(TM) system (copyright 1992, Gaussian, Inc.),
 the Gaussian 90(TM) system (copyright 1990, Gaussian, Inc.),
 the Gaussian 88(TM) system (copyright 1988, Gaussian, Inc.),
 the Gaussian 86(TM) system (copyright 1986, Carnegie Mellon
 University), and the Gaussian 82(TM) system (copyright 1983,
 Carnegie Mellon University). Gaussian is a federally registered
 trademark of Gaussian, Inc.
  
 This software contains proprietary and confidential information,
 including trade secrets, belonging to Gaussian, Inc.
  
 This software is provided under written license and may be
 used, copied, transmitted, or stored only in accord with that
 written license.
  
 The following legend is applicable only to US Government
 contracts under FAR:
  
                    RESTRICTED RIGHTS LEGEND
  
 Use, reproduction and disclosure by the US Government is
 subject to restrictions as set forth in subparagraphs (a)
 and (c) of the Commercial Computer Software - Restricted
 Rights clause in FAR 52.227-19.
  
 Gaussian, Inc.
 340 Quinnipiac St., Bldg. 40, Wallingford CT 06492
  
  
 ---------------------------------------------------------------
 Warning -- This program may not be used in any manner that
 competes with the business of Gaussian, Inc. or will provide
 assistance to any competitor of Gaussian, Inc.  The licensee
 of this program is prohibited from giving any competitor of
 Gaussian, Inc. access to this program.  By using this program,
 the user acknowledges that Gaussian, Inc. is engaged in the
 business of creating and licensing software in the field of
 computational chemistry and represents and warrants to the
 licensee that it is not a competitor of Gaussian, Inc. and that
 it will not use this program in any manner prohibited above.
 ---------------------------------------------------------------
  

 Cite this work as:
 Gaussian 03, Revision E.01,
 M. J. Frisch, G. W. Trucks, H. B. Schlegel, G. E. Scuseria, 
 M. A. Robb, J. R. Cheeseman, J. A. Montgomery, Jr., T. Vreven, 
 K. N. Kudin, J. C. Burant, J. M. Millam, S. S. Iyengar, J. Tomasi, 
 V. Barone, B. Mennucci, M. Cossi, G. Scalmani, N. Rega, 
 G. A. Petersson, H. Nakatsuji, M. Hada, M. Ehara, K. Toyota, 
 R. Fukuda, J. Hasegawa, M. Ishida, T. Nakajima, Y. Honda, O. Kitao, 
 H. Nakai, M. Klene, X. Li, J. E. Knox, H. P. Hratchian, J. B. Cross, 
 V. Bakken, C. Adamo, J. Jaramillo, R. Gomperts, R. E. Stratmann, 
 O. Yazyev, A. J. Austin, R. Cammi, C. Pomelli, J. W. Ochterski, 
 P. Y. Ayala, K. Morokuma, G. A. Voth, P. Salvador, J. J. Dannenberg, 
 V. G. Zakrzewski, S. Dapprich, A. D. Daniels, M. C. Strain, 
 O. Farkas, D. K. Malick, A. D. Rabuck, K. Raghavachari, 
 J. B. Foresman, J. V. Ortiz, Q. Cui, A. G. Baboul, S. Clifford, 
 J. Cioslowski, B. B. Stefanov, G. Liu, A. Liashenko, P. Piskorz, 
 I. Komaromi, R. L. Martin, D. J. Fox, T. Keith, M. A. Al-Laham, 
 C. Y. Peng, A. Nanayakkara, M. Challacombe, P. M. W. Gill, 
 B. Johnson, W. Chen, M. W. Wong, C. Gonzalez, and J. A. Pople, 
 Gaussian, Inc., Wallingford CT, 2004.
 
 ******************************************
 Gaussian 03:  EM64T-G03RevE.01 11-Sep-2007
                12-Jun-2015 
 ******************************************
 %nproc=2
 Will use up to    2 processors via shared memory.
 Default route:  MP2=Direct MaxDisk=2000MB
 ----------------------------------------------------
 # b3lyp/6-31+G(d,p) int=ultrafine pop=(ReadRadii,MK)
 ----------------------------------------------------

 Warning!  SCF SP cutoffs with diffuse functions may be unreliable.
 Consider SCF=Tight

 1/38=1/1;
 2/17=6,18=5,40=1/2;
 3/5=1,6=6,7=111,11=2,16=1,25=1,30=1,74=-5,75=5/1,2,3;
 4//1;
 5/5=2,32=1,38=5/2;
 6/7=2,8=2,9=2,10=2,15=8,20=101,28=1/1,2;
 99/5=1,9=1/99;
 ---------------------------------------
 mol_17.23.40.pdbcc_plusQ.z58241.zip.xyz
 ---------------------------------------
 Symbolic Z-matrix:
 Charge =  1 Multiplicity = 1
 O                    -4.16046  -0.97984   0.00105 
 P                    -2.78548  -0.4604    0.00013 
 O                    -1.53647  -1.31752  -0.00025 
 O                     2.95592  -1.6412   -0.00022 
 Ca                    0.79836  -1.47141  -0.0005 
 Ca                    3.42385   0.42578   0.00057 
 O                     1.20076   0.90816   0.00016 
 Ca                   -0.52842   2.18853  -0.00033 
 O                    -2.47146   1.03636  -0.00033 
 
                          Input orientation:                          
 ---------------------------------------------------------------------
 Center     Atomic     Atomic              Coordinates (Angstroms)
 Number     Number      Type              X           Y           Z
 ---------------------------------------------------------------------
    1          8             0       -4.160460   -0.979840    0.001050
    2         15             0       -2.785480   -0.460400    0.000130
    3          8             0       -1.536470   -1.317520   -0.000250
    4          8             0        2.955920   -1.641200   -0.000220
    5         20             0        0.798360   -1.471410   -0.000500
    6         20             0        3.423850    0.425780    0.000570
    7          8             0        1.200760    0.908160    0.000160
    8         20             0       -0.528420    2.188530   -0.000330
    9          8             0       -2.471460    1.036360   -0.000330
 ---------------------------------------------------------------------
                    Distance matrix (angstroms):
                    1          2          3          4          5
     1  O    0.000000
     2  P    1.469826   0.000000
     3  O    2.645629   1.514820   0.000000
     4  O    7.147046   5.861567   4.504036   0.000000
     5  Ca   4.983125   3.723715   2.339896   2.164231   0.000000
     6  Ca   7.713464   6.272248   5.257744   2.119284   3.239217
     7  O    5.683944   4.214625   3.527900   3.095129   2.413354
     8  Ca   4.819781   3.480108   3.648089   5.177592   3.893007
     9  O    2.630168   1.529346   2.532777   6.051924   4.120756
                    6          7          8          9
     6  Ca   0.000000
     7  O    2.274823   0.000000
     8  Ca   4.327554   2.151607   0.000000
     9  O    5.926845   3.674457   2.258960   0.000000
 Stoichiometry    Ca3O5P(1+)
 Framework group  C1[X(Ca3O5P)]
 Deg. of freedom    21
 Full point group                 C1
 Largest Abelian subgroup         C1      NOp   1
 Largest concise Abelian subgroup C1      NOp   1
                         Standard orientation:                         
 ---------------------------------------------------------------------
 Center     Atomic     Atomic              Coordinates (Angstroms)
 Number     Number      Type              X           Y           Z
 ---------------------------------------------------------------------
    1          8             0       -4.160459   -0.979840    0.001050
    2         15             0       -2.785479   -0.460399    0.000130
    3          8             0       -1.536468   -1.317518   -0.000250
    4          8             0        2.955922   -1.641195   -0.000220
    5         20             0        0.798362   -1.471407   -0.000500
    6         20             0        3.423850    0.425785    0.000570
    7          8             0        1.200760    0.908164    0.000160
    8         20             0       -0.528421    2.188532   -0.000330
    9          8             0       -2.471460    1.036361   -0.000330
 ---------------------------------------------------------------------
 Rotational constants (GHZ):      1.2377301      0.3827095      0.2923226
 Standard basis: 6-31+G(d,p) (6D, 7F)
 There are   199 symmetry adapted basis functions of A   symmetry.
 Integral buffers will be    131072 words long.
 Raffenetti 2 integral format.
 Two-electron integral symmetry is turned on.
   199 basis functions,   456 primitive gaussians,   199 cartesian basis functions
    57 alpha electrons       57 beta electrons
       nuclear repulsion energy       927.7831916517 Hartrees.
 NAtoms=    9 NActive=    9 NUniq=    9 SFac= 7.50D-01 NAtFMM=   80 NAOKFM=F Big=F
 One-electron integrals computed using PRISM.
 NBasis=   199 RedAO= T  NBF=   199
 NBsUse=   199 1.00D-06 NBFU=   199
 Harris functional with IExCor=  402 diagonalized for initial guess.
 ExpMin= 7.10D-03 ExpMax= 3.53D+04 ExpMxC= 5.30D+03 IAcc=3 IRadAn=         5 AccDes= 0.00D+00
 HarFok:  IExCor= 402 AccDes= 0.00D+00 IRadAn=         5 IDoV=1
 ScaDFX=  1.000000  1.000000  1.000000  1.000000
 Initial guess orbital symmetries:
       Occupied  (A) (A) (A) (A) (A) (A) (A) (A) (A) (A) (A) (A)
                 (A) (A) (A) (A) (A) (A) (A) (A) (A) (A) (A) (A)
                 (A) (A) (A) (A) (A) (A) (A) (A) (A) (A) (A) (A)
                 (A) (A) (A) (A) (A) (A) (A) (A) (A) (A) (A) (A)
                 (A) (A) (A) (A) (A) (A) (A) (A) (A)
       Virtual   (A) (A) (A) (A) (A) (A) (A) (A) (A) (A) (A) (A)
                 (A) (A) (A) (A) (A) (A) (A) (A) (A) (A) (A) (A)
                 (A) (A) (A) (A) (A) (A) (A) (A) (A) (A) (A) (A)
                 (A) (A) (A) (A) (A) (A) (A) (A) (A) (A) (A) (A)
                 (A) (A) (A) (A) (A) (A) (A) (A) (A) (A) (A) (A)
                 (A) (A) (A) (A) (A) (A) (A) (A) (A) (A) (A) (A)
                 (A) (A) (A) (A) (A) (A) (A) (A) (A) (A) (A) (A)
                 (A) (A) (A) (A) (A) (A) (A) (A) (A) (A) (A) (A)
                 (A) (A) (A) (A) (A) (A) (A) (A) (A) (A) (A) (A)
                 (A) (A) (A) (A) (A) (A) (A) (A) (A) (A) (A) (A)
                 (A) (A) (A) (A) (A) (A) (A) (A) (A) (A) (A) (A)
                 (A) (A) (A) (A) (A) (A) (A) (A) (A) (A)
 The electronic state of the initial guess is 1-A.
 Requested convergence on RMS density matrix=1.00D-04 within 128 cycles.
 Requested convergence on MAX density matrix=1.00D-02.
 Requested convergence on             energy=1.00D-02.
 No special actions if energy rises.
 EnCoef did     5 forward-backward iterations
 EnCoef did   100 forward-backward iterations
 EnCoef did     3 forward-backward iterations
 EnCoef did     2 forward-backward iterations
 EnCoef did    18 forward-backward iterations
 EnCoef did     2 forward-backward iterations
 SCF Done:  E(RB+HF-LYP) =  -2750.23671897     A.U. after   11 cycles
             Convg  =    0.5730D-04             -V/T =  2.0029
             S**2   =   0.0000

 **********************************************************************

            Population analysis using the SCF density.

 **********************************************************************

 Orbital symmetries:
       Occupied  (A) (A) (A) (A) (A) (A) (A) (A) (A) (A) (A) (A)
                 (A) (A) (A) (A) (A) (A) (A) (A) (A) (A) (A) (A)
                 (A) (A) (A) (A) (A) (A) (A) (A) (A) (A) (A) (A)
                 (A) (A) (A) (A) (A) (A) (A) (A) (A) (A) (A) (A)
                 (A) (A) (A) (A) (A) (A) (A) (A) (A)
       Virtual   (A) (A) (A) (A) (A) (A) (A) (A) (A) (A) (A) (A)
                 (A) (A) (A) (A) (A) (A) (A) (A) (A) (A) (A) (A)
                 (A) (A) (A) (A) (A) (A) (A) (A) (A) (A) (A) (A)
                 (A) (A) (A) (A) (A) (A) (A) (A) (A) (A) (A) (A)
                 (A) (A) (A) (A) (A) (A) (A) (A) (A) (A) (A) (A)
                 (A) (A) (A) (A) (A) (A) (A) (A) (A) (A) (A) (A)
                 (A) (A) (A) (A) (A) (A) (A) (A) (A) (A) (A) (A)
                 (A) (A) (A) (A) (A) (A) (A) (A) (A) (A) (A) (A)
                 (A) (A) (A) (A) (A) (A) (A) (A) (A) (A) (A) (A)
                 (A) (A) (A) (A) (A) (A) (A) (A) (A) (A) (A) (A)
                 (A) (A) (A) (A) (A) (A) (A) (A) (A) (A) (A) (A)
                 (A) (A) (A) (A) (A) (A) (A) (A) (A) (A)
 The electronic state is 1-A.
 Alpha  occ. eigenvalues -- -145.54687-145.47883-145.45478 -77.35453 -19.29881
 Alpha  occ. eigenvalues --  -19.29308 -19.27349 -19.18794 -19.11037 -15.61553
 Alpha  occ. eigenvalues --  -15.54782 -15.52416 -12.74807 -12.74748 -12.74613
 Alpha  occ. eigenvalues --  -12.68021 -12.67938 -12.67863 -12.65691 -12.65601
 Alpha  occ. eigenvalues --  -12.65455  -6.80688  -4.97301  -4.96834  -4.96739
 Alpha  occ. eigenvalues --   -1.98714  -1.92072  -1.89835  -1.26528  -1.26435
 Alpha  occ. eigenvalues --   -1.25606  -1.19926  -1.19615  -1.19066  -1.18683
 Alpha  occ. eigenvalues --   -1.17911  -1.17298  -1.16566  -1.10904  -1.10186
 Alpha  occ. eigenvalues --   -0.93302  -0.85095  -0.67383  -0.59519  -0.56367
 Alpha  occ. eigenvalues --   -0.55666  -0.50017  -0.47669  -0.47373  -0.45192
 Alpha  occ. eigenvalues --   -0.42277  -0.39529  -0.38509  -0.37244  -0.30634
 Alpha  occ. eigenvalues --   -0.29209  -0.28906
 Alpha virt. eigenvalues --   -0.22712  -0.18990  -0.17385  -0.14716  -0.14076
 Alpha virt. eigenvalues --   -0.13575  -0.12013  -0.11176  -0.11025  -0.09238
 Alpha virt. eigenvalues --   -0.08414  -0.07801  -0.07578  -0.06032  -0.05771
 Alpha virt. eigenvalues --   -0.05679  -0.05060  -0.04772  -0.04520  -0.04139
 Alpha virt. eigenvalues --   -0.03897  -0.03790  -0.03348  -0.03065  -0.03060
 Alpha virt. eigenvalues --   -0.02880  -0.01491  -0.00381   0.00178   0.00317
 Alpha virt. eigenvalues --    0.01145   0.02395   0.02927   0.03162   0.03644
 Alpha virt. eigenvalues --    0.03929   0.04531   0.05355   0.05429   0.05705
 Alpha virt. eigenvalues --    0.05869   0.06628   0.07318   0.07804   0.08978
 Alpha virt. eigenvalues --    0.09501   0.10221   0.10894   0.11188   0.11230
 Alpha virt. eigenvalues --    0.12986   0.13964   0.14738   0.14836   0.15760
 Alpha virt. eigenvalues --    0.16261   0.17976   0.18176   0.18741   0.20421
 Alpha virt. eigenvalues --    0.21446   0.21692   0.22226   0.24249   0.24910
 Alpha virt. eigenvalues --    0.26025   0.26729   0.27259   0.29054   0.29450
 Alpha virt. eigenvalues --    0.32805   0.34389   0.36851   0.36990   0.38505
 Alpha virt. eigenvalues --    0.39729   0.46075   0.46371   0.51808   0.53539
 Alpha virt. eigenvalues --    0.54808   0.54822   0.57166   0.57544   0.66333
 Alpha virt. eigenvalues --    0.79615   0.91511   0.93179   0.94812   0.98769
 Alpha virt. eigenvalues --    1.04464   1.06134   1.07136   1.08765   1.10138
 Alpha virt. eigenvalues --    1.13060   1.14846   1.17515   1.18046   1.19080
 Alpha virt. eigenvalues --    1.20295   1.23815   1.27024   1.29138   1.30385
 Alpha virt. eigenvalues --    1.32700   1.38412   1.42667   1.43171   1.55428
 Alpha virt. eigenvalues --    1.58916   1.63909   1.64801   1.66799   1.68450
 Alpha virt. eigenvalues --    1.71029   1.74920   1.76174   1.78301   1.79667
 Alpha virt. eigenvalues --    1.80804   1.82757   1.86175   1.86787   1.87321
 Alpha virt. eigenvalues --    1.90923   1.92956   1.98879   1.99380   2.00611
 Alpha virt. eigenvalues --    2.17519   2.19002   2.22911   2.56804   2.70829
 Alpha virt. eigenvalues --    2.78453   3.36777   3.83439   3.91870   3.94719
 Alpha virt. eigenvalues --    3.99237   4.08028
          Condensed to atoms (all electrons):
              1          2          3          4          5          6
     1  O    8.477095   0.450151  -0.175855   0.000026   0.004657  -0.005102
     2  P    0.450151  12.581171   0.201436   0.001774  -0.015287   0.006723
     3  O   -0.175855   0.201436   9.122416  -0.002252   0.057568   0.004834
     4  O    0.000026   0.001774  -0.002252   8.672528   0.224092   0.229819
     5  Ca   0.004657  -0.015287   0.057568   0.224092  18.380255  -0.024381
     6  Ca  -0.005102   0.006723   0.004834   0.229819  -0.024381  18.383441
     7  O   -0.000358  -0.019405   0.003983  -0.021824   0.034990   0.084738
     8  Ca   0.001038  -0.013753  -0.022434  -0.000657   0.002065  -0.008484
     9  O   -0.136795   0.264138  -0.362321  -0.000229  -0.024753   0.001812
              7          8          9
     1  O   -0.000358   0.001038  -0.136795
     2  P   -0.019405  -0.013753   0.264138
     3  O    0.003983  -0.022434  -0.362321
     4  O   -0.021824  -0.000657  -0.000229
     5  Ca   0.034990   0.002065  -0.024753
     6  Ca   0.084738  -0.008484   0.001812
     7  O    9.066773   0.189951   0.009941
     8  Ca   0.189951  18.252224   0.088446
     9  O    0.009941   0.088446   9.007509
 Mulliken atomic charges:
              1
     1  O   -0.614857
     2  P    1.543052
     3  O   -0.827375
     4  O   -1.103278
     5  Ca   1.360793
     6  Ca   1.326599
     7  O   -1.348790
     8  Ca   1.511603
     9  O   -0.847748
 Sum of Mulliken charges=   1.00000
 Atomic charges with hydrogens summed into heavy atoms:
              1
     1  O   -0.614857
     2  P    1.543052
     3  O   -0.827375
     4  O   -1.103278
     5  Ca   1.360793
     6  Ca   1.326599
     7  O   -1.348790
     8  Ca   1.511603
     9  O   -0.847748
 Sum of Mulliken charges=   1.00000
 Electronic spatial extent (au):  <R**2>=  3222.6932
 Charge=     1.0000 electrons
 Dipole moment (field-independent basis, Debye):
    X=     6.2944    Y=    13.1119    Z=    -0.0017  Tot=    14.5445
 Quadrupole moment (field-independent basis, Debye-Ang):
   XX=   -73.9711   YY=   -51.9358   ZZ=   -72.9893
   XY=    15.9501   XZ=     0.0207   YZ=     0.0013
 Traceless Quadrupole moment (field-independent basis, Debye-Ang):
   XX=    -7.6724   YY=    14.3629   ZZ=    -6.6906
   XY=    15.9501   XZ=     0.0207   YZ=     0.0013
 Octapole moment (field-independent basis, Debye-Ang**2):
  XXX=   237.8767  YYY=   107.6430  ZZZ=    -0.0033  XYY=   -34.2807
  XXY=   130.3669  XXZ=     0.0266  XZZ=    -1.2032  YZZ=     7.8718
  YYZ=    -0.0206  XYZ=    -0.0049
 Hexadecapole moment (field-independent basis, Debye-Ang**3):
 XXXX= -2665.2173 YYYY=  -636.8786 ZZZZ=   -84.5328 XXXY=   345.4798
 XXXZ=     0.3823 YYYX=    12.0736 YYYZ=    -0.0191 ZZZX=     0.0322
 ZZZY=    -0.0001 XXYY=  -782.8903 XXZZ=  -460.5029 YYZZ=  -147.4827
 XXYZ=     0.0463 YYXZ=     0.0203 ZZXY=    10.5598
 N-N= 9.277831916517D+02 E-N=-8.355362327900D+03  KE= 2.742150242099D+03
 Merz-Kollman atomic radii used.
 Read replacement radii for each type of atom:
 Rad(20) =   1.188000000000D+00
 Atom Element Radius
    1     8    1.40
    2    15    1.80
    3     8    1.40
    4     8    1.40
    5    20    1.19
    6    20    1.19
    7     8    1.40
    8    20    1.19
    9     8    1.40

 **********************************************************************

            Electrostatic Properties Using The SCF Density

 **********************************************************************

       Atomic Center    1 is at  -4.160459 -0.979840  0.001050
       Atomic Center    2 is at  -2.785479 -0.460399  0.000130
       Atomic Center    3 is at  -1.536468 -1.317518 -0.000250
       Atomic Center    4 is at   2.955922 -1.641195 -0.000220
       Atomic Center    5 is at   0.798362 -1.471407 -0.000500
       Atomic Center    6 is at   3.423850  0.425785  0.000570
       Atomic Center    7 is at   1.200760  0.908164  0.000160
       Atomic Center    8 is at  -0.528421  2.188532 -0.000330
       Atomic Center    9 is at  -2.471460  1.036361 -0.000330
     842 points will be used for fitting atomic charges
 Fitting point charges to eletrostatic potential
 Charges from ESP fit, RMS=   0.00518 RRMS=   0.03370:
 Charge=   1.00000 Dipole=     6.9415    13.5146    -0.0018 Tot=    15.1931
              1
     1  O   -0.561827
     2  P    1.460765
     3  O   -0.887010
     4  O   -1.460646
     5  Ca   1.752717
     6  Ca   1.611211
     7  O   -1.742489
     8  Ca   1.725333
     9  O   -0.898054
 -----------------------------------------------------------------

              Electrostatic Properties (Atomic Units)

 -----------------------------------------------------------------
    Center     Electric         -------- Electric Field --------
               Potential          X             Y             Z
 -----------------------------------------------------------------
    1 Atom    -22.197870
    2 Atom    -53.852453
    3 Atom    -22.171174
    4 Atom    -22.344274
    5 Atom    -80.084731
    6 Atom    -80.062413
    7 Atom    -22.269977
    8 Atom    -79.994834
    9 Atom    -22.162899
 -----------------------------------------------------------------
 1\1\GINC-N029\SP\RB3LYP\6-31+G(d,p)\Ca3O5P1(1+)\TIMN\12-Jun-2015\0\\# 
 b3lyp/6-31+G(d,p) int=ultrafine pop=(ReadRadii,MK)\\mol_17.23.40.pdbcc
 _plusQ.z58241.zip.xyz\\1,1\O,0,-4.16046,-0.97984,0.00105\P,0,-2.78548,
 -0.4604,0.00013\O,0,-1.53647,-1.31752,-0.00025\O,0,2.95592,-1.6412,-0.
 00022\Ca,0,0.79836,-1.47141,-0.0005\Ca,0,3.42385,0.42578,0.00057\O,0,1
 .20076,0.90816,0.00016\Ca,0,-0.52842,2.18853,-0.00033\O,0,-2.47146,1.0
 3636,-0.00033\\Version=EM64T-G03RevE.01\State=1-A\HF=-2750.236719\RMSD
 =5.730e-05\Thermal=0.\Dipole=2.4764108,5.1586269,-0.0006667\PG=C01 [X(
 Ca3O5P1)]\\@


 THE HURRIEDER I GO, THE BEHINDER I GET.
 Job cpu time:  0 days  0 hours  2 minutes 27.3 seconds.
 File lengths (MBytes):  RWF=     36 Int=      0 D2E=      0 Chk=     11 Scr=      1
 Normal termination of Gaussian 03 at Fri Jun 12 17:53:53 2015.
