 Entering Gaussian System, Link 0=/home/timn/tmp/g03.e01/g03
 Input=mol_17.29.23.pdbccc.z57187c_plusQ.z58604.zip.xyz.gjf
 Output=mol_17.29.23.pdbccc.z57187c_plusQ.z58604.zip.xyz.out
 Initial command:
 /home/timn/tmp/g03.e01/l1.exe /home/timn/tmp/g03.e01/Gau-15237.inp -scrdir=/home/timn/tmp/g03.e01/
 Default is to use a total of   2 processors:
                                2 via shared-memory
                                1 via Linda
 Entering Link 1 = /home/timn/tmp/g03.e01/l1.exe PID=     15238.
  
 Copyright (c) 1988,1990,1992,1993,1995,1998,2003,2004,2007, Gaussian, Inc.
                  All Rights Reserved.
  
 This is the Gaussian(R) 03 program.  It is based on the
 the Gaussian(R) 98 system (copyright 1998, Gaussian, Inc.),
 the Gaussian(R) 94 system (copyright 1995, Gaussian, Inc.),
 the Gaussian 92(TM) system (copyright 1992, Gaussian, Inc.),
 the Gaussian 90(TM) system (copyright 1990, Gaussian, Inc.),
 the Gaussian 88(TM) system (copyright 1988, Gaussian, Inc.),
 the Gaussian 86(TM) system (copyright 1986, Carnegie Mellon
 University), and the Gaussian 82(TM) system (copyright 1983,
 Carnegie Mellon University). Gaussian is a federally registered
 trademark of Gaussian, Inc.
  
 This software contains proprietary and confidential information,
 including trade secrets, belonging to Gaussian, Inc.
  
 This software is provided under written license and may be
 used, copied, transmitted, or stored only in accord with that
 written license.
  
 The following legend is applicable only to US Government
 contracts under FAR:
  
                    RESTRICTED RIGHTS LEGEND
  
 Use, reproduction and disclosure by the US Government is
 subject to restrictions as set forth in subparagraphs (a)
 and (c) of the Commercial Computer Software - Restricted
 Rights clause in FAR 52.227-19.
  
 Gaussian, Inc.
 340 Quinnipiac St., Bldg. 40, Wallingford CT 06492
  
  
 ---------------------------------------------------------------
 Warning -- This program may not be used in any manner that
 competes with the business of Gaussian, Inc. or will provide
 assistance to any competitor of Gaussian, Inc.  The licensee
 of this program is prohibited from giving any competitor of
 Gaussian, Inc. access to this program.  By using this program,
 the user acknowledges that Gaussian, Inc. is engaged in the
 business of creating and licensing software in the field of
 computational chemistry and represents and warrants to the
 licensee that it is not a competitor of Gaussian, Inc. and that
 it will not use this program in any manner prohibited above.
 ---------------------------------------------------------------
  

 Cite this work as:
 Gaussian 03, Revision E.01,
 M. J. Frisch, G. W. Trucks, H. B. Schlegel, G. E. Scuseria, 
 M. A. Robb, J. R. Cheeseman, J. A. Montgomery, Jr., T. Vreven, 
 K. N. Kudin, J. C. Burant, J. M. Millam, S. S. Iyengar, J. Tomasi, 
 V. Barone, B. Mennucci, M. Cossi, G. Scalmani, N. Rega, 
 G. A. Petersson, H. Nakatsuji, M. Hada, M. Ehara, K. Toyota, 
 R. Fukuda, J. Hasegawa, M. Ishida, T. Nakajima, Y. Honda, O. Kitao, 
 H. Nakai, M. Klene, X. Li, J. E. Knox, H. P. Hratchian, J. B. Cross, 
 V. Bakken, C. Adamo, J. Jaramillo, R. Gomperts, R. E. Stratmann, 
 O. Yazyev, A. J. Austin, R. Cammi, C. Pomelli, J. W. Ochterski, 
 P. Y. Ayala, K. Morokuma, G. A. Voth, P. Salvador, J. J. Dannenberg, 
 V. G. Zakrzewski, S. Dapprich, A. D. Daniels, M. C. Strain, 
 O. Farkas, D. K. Malick, A. D. Rabuck, K. Raghavachari, 
 J. B. Foresman, J. V. Ortiz, Q. Cui, A. G. Baboul, S. Clifford, 
 J. Cioslowski, B. B. Stefanov, G. Liu, A. Liashenko, P. Piskorz, 
 I. Komaromi, R. L. Martin, D. J. Fox, T. Keith, M. A. Al-Laham, 
 C. Y. Peng, A. Nanayakkara, M. Challacombe, P. M. W. Gill, 
 B. Johnson, W. Chen, M. W. Wong, C. Gonzalez, and J. A. Pople, 
 Gaussian, Inc., Wallingford CT, 2004.
 
 ******************************************
 Gaussian 03:  EM64T-G03RevE.01 11-Sep-2007
                12-Jun-2015 
 ******************************************
 %nproc=2
 Will use up to    2 processors via shared memory.
 Default route:  MP2=Direct MaxDisk=2000MB
 ----------------------------------------------------
 # b3lyp/6-31+G(d,p) int=ultrafine pop=(ReadRadii,MK)
 ----------------------------------------------------

 Warning!  SCF SP cutoffs with diffuse functions may be unreliable.
 Consider SCF=Tight

 1/38=1/1;
 2/17=6,18=5,40=1/2;
 3/5=1,6=6,7=111,11=2,16=1,25=1,30=1,74=-5,75=5/1,2,3;
 4//1;
 5/5=2,32=1,38=5/2;
 6/7=2,8=2,9=2,10=2,15=8,20=101,28=1/1,2;
 99/5=1,9=1/99;
 ------------------------------------------------
 mol_17.29.23.pdbccc.z57187c_plusQ.z58604.zip.xyz
 ------------------------------------------------
 Symbolic Z-matrix:
 Charge =  1 Multiplicity = 1
 O                    -0.49853  -0.01219  -1.70131 
 Ca                    1.28486  -1.22784  -0.92417 
 O                     2.56139   0.08289   0.39088 
 O                     1.25991   0.75606   0.70141 
 P                     0.04648  -0.0569    1.76326 
 O                    -1.15934   0.87743   1.11802 
 Ca                   -0.08405   1.94782  -0.699 
 O                    -0.16786  -1.44991   0.92438 
 Ca                   -2.0339   -0.77902  -0.27263 
 
                          Input orientation:                          
 ---------------------------------------------------------------------
 Center     Atomic     Atomic              Coordinates (Angstroms)
 Number     Number      Type              X           Y           Z
 ---------------------------------------------------------------------
    1          8             0       -0.498530   -0.012190   -1.701310
    2         20             0        1.284860   -1.227840   -0.924170
    3          8             0        2.561390    0.082890    0.390880
    4          8             0        1.259910    0.756060    0.701410
    5         15             0        0.046480   -0.056900    1.763260
    6          8             0       -1.159340    0.877430    1.118020
    7         20             0       -0.084050    1.947820   -0.699000
    8          8             0       -0.167860   -1.449910    0.924380
    9         20             0       -2.033900   -0.779020   -0.272630
 ---------------------------------------------------------------------
                    Distance matrix (angstroms):
                    1          2          3          4          5
     1  O    0.000000
     2  Ca   2.293955   0.000000
     3  O    3.708020   2.253197   0.000000
     4  O    3.074961   2.564955   1.497811   0.000000
     5  P    3.507461   3.182289   2.868404   1.805780   0.000000
     6  O    3.029309   3.817960   3.873481   2.457858   1.656294
     7  Ca   2.240102   3.465463   3.415283   2.277645   3.177840
     8  O    3.011749   2.361535   3.175359   2.637147   1.640164
     9  Ca   2.233051   3.411761   4.722269   3.762235   2.999048
                    6          7          8          9
     6  O    0.000000
     7  Ca   2.367181   0.000000
     8  O    2.537132   3.766558   0.000000
     9  Ca   2.332936   3.379255   2.316254   0.000000
 Stoichiometry    Ca3O5P(1+)
 Framework group  C1[X(Ca3O5P)]
 Deg. of freedom    21
 Full point group                 C1
 Largest Abelian subgroup         C1      NOp   1
 Largest concise Abelian subgroup C1      NOp   1
                         Standard orientation:                         
 ---------------------------------------------------------------------
 Center     Atomic     Atomic              Coordinates (Angstroms)
 Number     Number      Type              X           Y           Z
 ---------------------------------------------------------------------
    1          8             0       -0.498530   -0.012192   -1.701309
    2         20             0        1.284866   -1.227833   -0.924169
    3          8             0        2.561390    0.082903    0.390881
    4          8             0        1.259907    0.756066    0.701411
    5         15             0        0.046481   -0.056899    1.763261
    6          8             0       -1.159344    0.877425    1.118021
    7         20             0       -0.084059    1.947820   -0.698999
    8          8             0       -0.167853   -1.449910    0.924381
    9         20             0       -2.033896   -0.779029   -0.272629
 ---------------------------------------------------------------------
 Rotational constants (GHZ):      0.9453465      0.8008245      0.7439676
 Standard basis: 6-31+G(d,p) (6D, 7F)
 There are   199 symmetry adapted basis functions of A   symmetry.
 Integral buffers will be    131072 words long.
 Raffenetti 2 integral format.
 Two-electron integral symmetry is turned on.
   199 basis functions,   456 primitive gaussians,   199 cartesian basis functions
    57 alpha electrons       57 beta electrons
       nuclear repulsion energy      1090.2947754028 Hartrees.
 NAtoms=    9 NActive=    9 NUniq=    9 SFac= 7.50D-01 NAtFMM=   80 NAOKFM=F Big=F
 One-electron integrals computed using PRISM.
 NBasis=   199 RedAO= T  NBF=   199
 NBsUse=   199 1.00D-06 NBFU=   199
 Harris functional with IExCor=  402 diagonalized for initial guess.
 ExpMin= 7.10D-03 ExpMax= 3.53D+04 ExpMxC= 5.30D+03 IAcc=3 IRadAn=         5 AccDes= 0.00D+00
 HarFok:  IExCor= 402 AccDes= 0.00D+00 IRadAn=         5 IDoV=1
 ScaDFX=  1.000000  1.000000  1.000000  1.000000
 Initial guess orbital symmetries:
       Occupied  (A) (A) (A) (A) (A) (A) (A) (A) (A) (A) (A) (A)
                 (A) (A) (A) (A) (A) (A) (A) (A) (A) (A) (A) (A)
                 (A) (A) (A) (A) (A) (A) (A) (A) (A) (A) (A) (A)
                 (A) (A) (A) (A) (A) (A) (A) (A) (A) (A) (A) (A)
                 (A) (A) (A) (A) (A) (A) (A) (A) (A)
       Virtual   (A) (A) (A) (A) (A) (A) (A) (A) (A) (A) (A) (A)
                 (A) (A) (A) (A) (A) (A) (A) (A) (A) (A) (A) (A)
                 (A) (A) (A) (A) (A) (A) (A) (A) (A) (A) (A) (A)
                 (A) (A) (A) (A) (A) (A) (A) (A) (A) (A) (A) (A)
                 (A) (A) (A) (A) (A) (A) (A) (A) (A) (A) (A) (A)
                 (A) (A) (A) (A) (A) (A) (A) (A) (A) (A) (A) (A)
                 (A) (A) (A) (A) (A) (A) (A) (A) (A) (A) (A) (A)
                 (A) (A) (A) (A) (A) (A) (A) (A) (A) (A) (A) (A)
                 (A) (A) (A) (A) (A) (A) (A) (A) (A) (A) (A) (A)
                 (A) (A) (A) (A) (A) (A) (A) (A) (A) (A) (A) (A)
                 (A) (A) (A) (A) (A) (A) (A) (A) (A) (A) (A) (A)
                 (A) (A) (A) (A) (A) (A) (A) (A) (A) (A)
 The electronic state of the initial guess is 1-A.
 Requested convergence on RMS density matrix=1.00D-04 within 128 cycles.
 Requested convergence on MAX density matrix=1.00D-02.
 Requested convergence on             energy=1.00D-02.
 No special actions if energy rises.
 EnCoef did     3 forward-backward iterations
 SCF Done:  E(RB+HF-LYP) =  -2750.19417659     A.U. after    9 cycles
             Convg  =    0.4252D-04             -V/T =  2.0029
             S**2   =   0.0000

 **********************************************************************

            Population analysis using the SCF density.

 **********************************************************************

 Orbital symmetries:
       Occupied  (A) (A) (A) (A) (A) (A) (A) (A) (A) (A) (A) (A)
                 (A) (A) (A) (A) (A) (A) (A) (A) (A) (A) (A) (A)
                 (A) (A) (A) (A) (A) (A) (A) (A) (A) (A) (A) (A)
                 (A) (A) (A) (A) (A) (A) (A) (A) (A) (A) (A) (A)
                 (A) (A) (A) (A) (A) (A) (A) (A) (A)
       Virtual   (A) (A) (A) (A) (A) (A) (A) (A) (A) (A) (A) (A)
                 (A) (A) (A) (A) (A) (A) (A) (A) (A) (A) (A) (A)
                 (A) (A) (A) (A) (A) (A) (A) (A) (A) (A) (A) (A)
                 (A) (A) (A) (A) (A) (A) (A) (A) (A) (A) (A) (A)
                 (A) (A) (A) (A) (A) (A) (A) (A) (A) (A) (A) (A)
                 (A) (A) (A) (A) (A) (A) (A) (A) (A) (A) (A) (A)
                 (A) (A) (A) (A) (A) (A) (A) (A) (A) (A) (A) (A)
                 (A) (A) (A) (A) (A) (A) (A) (A) (A) (A) (A) (A)
                 (A) (A) (A) (A) (A) (A) (A) (A) (A) (A) (A) (A)
                 (A) (A) (A) (A) (A) (A) (A) (A) (A) (A) (A) (A)
                 (A) (A) (A) (A) (A) (A) (A) (A) (A) (A) (A) (A)
                 (A) (A) (A) (A) (A) (A) (A) (A) (A) (A)
 The electronic state is 1-A.
 Alpha  occ. eigenvalues -- -145.51673-145.51594-145.48704 -77.27302 -19.29095
 Alpha  occ. eigenvalues --  -19.23568 -19.23486 -19.23300 -19.17350 -15.58484
 Alpha  occ. eigenvalues --  -15.58420 -15.55552 -12.71698 -12.71660 -12.71627
 Alpha  occ. eigenvalues --  -12.71612 -12.71592 -12.71547 -12.68781 -12.68747
 Alpha  occ. eigenvalues --  -12.68646  -6.72399  -4.88804  -4.88690  -4.88157
 Alpha  occ. eigenvalues --   -1.95724  -1.95669  -1.92862  -1.23976  -1.23553
 Alpha  occ. eigenvalues --   -1.23412  -1.23061  -1.23030  -1.22529  -1.21067
 Alpha  occ. eigenvalues --   -1.20537  -1.19966  -1.13363  -1.07566  -1.03109
 Alpha  occ. eigenvalues --   -0.92320  -0.90590  -0.65535  -0.55298  -0.53389
 Alpha  occ. eigenvalues --   -0.51714  -0.49580  -0.46914  -0.44122  -0.42328
 Alpha  occ. eigenvalues --   -0.40297  -0.37798  -0.37631  -0.36827  -0.35223
 Alpha  occ. eigenvalues --   -0.33499  -0.32026
 Alpha virt. eigenvalues --   -0.20903  -0.19068  -0.17413  -0.13458  -0.12276
 Alpha virt. eigenvalues --   -0.11628  -0.10496  -0.10037  -0.08917  -0.08220
 Alpha virt. eigenvalues --   -0.07988  -0.06859  -0.06592  -0.06167  -0.05827
 Alpha virt. eigenvalues --   -0.05026  -0.04875  -0.04697  -0.04539  -0.04331
 Alpha virt. eigenvalues --   -0.04009  -0.03630  -0.03308  -0.03184  -0.02970
 Alpha virt. eigenvalues --   -0.02966  -0.02003  -0.00870   0.00733   0.01603
 Alpha virt. eigenvalues --    0.01799   0.02563   0.03296   0.04144   0.04757
 Alpha virt. eigenvalues --    0.04941   0.05319   0.05712   0.05828   0.06042
 Alpha virt. eigenvalues --    0.06393   0.06751   0.07237   0.07600   0.08125
 Alpha virt. eigenvalues --    0.08940   0.09517   0.09872   0.10455   0.11389
 Alpha virt. eigenvalues --    0.13099   0.14207   0.14820   0.17088   0.17802
 Alpha virt. eigenvalues --    0.18451   0.19738   0.20384   0.21061   0.22360
 Alpha virt. eigenvalues --    0.22972   0.24027   0.24368   0.26028   0.26752
 Alpha virt. eigenvalues --    0.28254   0.29334   0.31424   0.33107   0.33398
 Alpha virt. eigenvalues --    0.34379   0.35330   0.35631   0.37004   0.38651
 Alpha virt. eigenvalues --    0.40217   0.42017   0.43842   0.49195   0.51860
 Alpha virt. eigenvalues --    0.52349   0.57973   0.61335   0.64228   0.65856
 Alpha virt. eigenvalues --    0.78187   0.83731   0.86145   0.90816   0.94368
 Alpha virt. eigenvalues --    1.09172   1.11334   1.13663   1.15715   1.15925
 Alpha virt. eigenvalues --    1.17803   1.19016   1.19237   1.21821   1.21927
 Alpha virt. eigenvalues --    1.23180   1.24348   1.28696   1.31196   1.33710
 Alpha virt. eigenvalues --    1.36916   1.51218   1.53369   1.54895   1.57594
 Alpha virt. eigenvalues --    1.60290   1.63707   1.67895   1.70943   1.73713
 Alpha virt. eigenvalues --    1.75141   1.80612   1.82489   1.84099   1.84836
 Alpha virt. eigenvalues --    1.85773   1.86558   1.88278   1.90436   1.91821
 Alpha virt. eigenvalues --    1.92715   1.97219   1.98871   2.01438   2.10388
 Alpha virt. eigenvalues --    2.15531   2.24705   2.32338   2.48561   2.57892
 Alpha virt. eigenvalues --    3.09317   3.50960   3.99651   4.07018   4.15195
 Alpha virt. eigenvalues --    4.23980   4.36704
          Condensed to atoms (all electrons):
              1          2          3          4          5          6
     1  O    8.860753   0.108697  -0.010387   0.019139  -0.042547   0.028148
     2  Ca   0.108697  18.368851   0.174369  -0.022342  -0.051001   0.013756
     3  O   -0.010387   0.174369   8.558179  -0.112156  -0.066174   0.010006
     4  O    0.019139  -0.022342  -0.112156   8.597302  -0.061148   0.085842
     5  P   -0.042547  -0.051001  -0.066174  -0.061148  14.407611  -0.144036
     6  O    0.028148   0.013756   0.010006   0.085842  -0.144036   8.848074
     7  Ca   0.134361  -0.010316  -0.022630   0.064233  -0.011073   0.053935
     8  O    0.029762   0.054916   0.031150   0.007078  -0.152999   0.037778
     9  Ca   0.133739  -0.054320   0.006795   0.012719   0.019745   0.067726
              7          8          9
     1  O    0.134361   0.029762   0.133739
     2  Ca  -0.010316   0.054916  -0.054320
     3  O   -0.022630   0.031150   0.006795
     4  O    0.064233   0.007078   0.012719
     5  P   -0.011073  -0.152999   0.019745
     6  O    0.053935   0.037778   0.067726
     7  Ca  18.352905   0.016026  -0.071131
     8  O    0.016026   8.930749   0.064529
     9  Ca  -0.071131   0.064529  18.391207
 Mulliken atomic charges:
              1
     1  O   -1.261665
     2  Ca   1.417390
     3  O   -0.569150
     4  O   -0.590666
     5  P    1.101623
     6  O   -1.001228
     7  Ca   1.493692
     8  O   -1.018988
     9  Ca   1.428992
 Sum of Mulliken charges=   1.00000
 Atomic charges with hydrogens summed into heavy atoms:
              1
     1  O   -1.261665
     2  Ca   1.417390
     3  O   -0.569150
     4  O   -0.590666
     5  P    1.101623
     6  O   -1.001228
     7  Ca   1.493692
     8  O   -1.018988
     9  Ca   1.428992
 Sum of Mulliken charges=   1.00000
 Electronic spatial extent (au):  <R**2>=  1782.2355
 Charge=     1.0000 electrons
 Dipole moment (field-independent basis, Debye):
    X=    -6.9412    Y=    -0.0926    Z=    -8.5332  Tot=    11.0002
 Quadrupole moment (field-independent basis, Debye-Ang):
   XX=   -58.4089   YY=   -40.8229   ZZ=   -88.3324
   XY=    -0.3061   XZ=    -9.1372   YZ=    -0.1657
 Traceless Quadrupole moment (field-independent basis, Debye-Ang):
   XX=     4.1125   YY=    21.6985   ZZ=   -25.8110
   XY=    -0.3061   XZ=    -9.1372   YZ=    -0.1657
 Octapole moment (field-independent basis, Debye-Ang**2):
  XXX=  -106.8485  YYY=    51.8257  ZZZ=    -6.0858  XYY=     4.1193
  XXY=   -53.5469  XXZ=   -40.9333  XZZ=    18.2421  YZZ=    -1.6926
  YYZ=   -56.4223  XYZ=    12.5491
 Hexadecapole moment (field-independent basis, Debye-Ang**3):
 XXXX=  -740.9683 YYYY=  -407.3107 ZZZZ=  -730.3404 XXXY=    30.6766
 XXXZ=   -27.4870 YYYX=   -19.1033 YYYZ=   -19.2294 ZZZX=   -44.2653
 ZZZY=     2.7787 XXYY=  -182.5909 XXZZ=  -239.8778 YYZZ=  -180.0353
 XXYZ=    16.8830 YYXZ=   -12.9205 ZZXY=    -7.5960
 N-N= 1.090294775403D+03 E-N=-8.681102202853D+03  KE= 2.742201854008D+03
 Merz-Kollman atomic radii used.
 Read replacement radii for each type of atom:
 Rad(20) =   1.188000000000D+00
 Atom Element Radius
    1     8    1.40
    2    20    1.19
    3     8    1.40
    4     8    1.40
    5    15    1.80
    6     8    1.40
    7    20    1.19
    8     8    1.40
    9    20    1.19

 **********************************************************************

            Electrostatic Properties Using The SCF Density

 **********************************************************************

       Atomic Center    1 is at  -0.498530 -0.012192 -1.701309
       Atomic Center    2 is at   1.284866 -1.227833 -0.924169
       Atomic Center    3 is at   2.561390  0.082903  0.390881
       Atomic Center    4 is at   1.259907  0.756066  0.701411
       Atomic Center    5 is at   0.046481 -0.056899  1.763261
       Atomic Center    6 is at  -1.159344  0.877425  1.118021
       Atomic Center    7 is at  -0.084059  1.947820 -0.698999
       Atomic Center    8 is at  -0.167853 -1.449910  0.924381
       Atomic Center    9 is at  -2.033896 -0.779029 -0.272629
     740 points will be used for fitting atomic charges
 Fitting point charges to eletrostatic potential
 Charges from ESP fit, RMS=   0.00539 RRMS=   0.03344:
 Charge=   1.00000 Dipole=    -7.1077    -0.0293    -8.6994 Tot=    11.2338
              1
     1  O   -1.618601
     2  Ca   1.648217
     3  O   -0.637232
     4  O   -0.405764
     5  P    0.549134
     6  O   -0.932136
     7  Ca   1.638110
     8  O   -0.904195
     9  Ca   1.662468
 -----------------------------------------------------------------

              Electrostatic Properties (Atomic Units)

 -----------------------------------------------------------------
    Center     Electric         -------- Electric Field --------
               Potential          X             Y             Z
 -----------------------------------------------------------------
    1 Atom    -22.289774
    2 Atom    -80.054030
    3 Atom    -22.239635
    4 Atom    -22.175714
    5 Atom    -53.943293
    6 Atom    -22.225730
    7 Atom    -80.024192
    8 Atom    -22.231403
    9 Atom    -80.025038
 -----------------------------------------------------------------
 1\1\GINC-N029\SP\RB3LYP\6-31+G(d,p)\Ca3O5P1(1+)\TIMN\12-Jun-2015\0\\# 
 b3lyp/6-31+G(d,p) int=ultrafine pop=(ReadRadii,MK)\\mol_17.29.23.pdbcc
 c.z57187c_plusQ.z58604.zip.xyz\\1,1\O,0,-0.49853,-0.01219,-1.70131\Ca,
 0,1.28486,-1.22784,-0.92417\O,0,2.56139,0.08289,0.39088\O,0,1.25991,0.
 75606,0.70141\P,0,0.04648,-0.0569,1.76326\O,0,-1.15934,0.87743,1.11802
 \Ca,0,-0.08405,1.94782,-0.699\O,0,-0.16786,-1.44991,0.92438\Ca,0,-2.03
 39,-0.77902,-0.27263\\Version=EM64T-G03RevE.01\State=1-A\HF=-2750.1941
 766\RMSD=4.252e-05\Thermal=0.\Dipole=-2.730872,-0.0364151,-3.3572113\P
 G=C01 [X(Ca3O5P1)]\\@


 I DO NOT DEFINE TIME, SPACE, PLACE, AND MOTION, AS BEING WELL KNOWN TO ALL.
                                            -- NEWTON (1642-1726), PRINCIPIA
 Job cpu time:  0 days  0 hours  2 minutes 28.8 seconds.
 File lengths (MBytes):  RWF=     36 Int=      0 D2E=      0 Chk=     11 Scr=      1
 Normal termination of Gaussian 03 at Fri Jun 12 18:12:20 2015.
