 Entering Gaussian System, Link 0=/home/timn/tmp/g03.e01/g03
 Input=mol_17.29.20.pdbcc_plusQ.z58601.zip.xyz.gjf
 Output=mol_17.29.20.pdbcc_plusQ.z58601.zip.xyz.out
 Initial command:
 /home/timn/tmp/g03.e01/l1.exe /home/timn/tmp/g03.e01/Gau-19065.inp -scrdir=/home/timn/tmp/g03.e01/
 Default is to use a total of   2 processors:
                                2 via shared-memory
                                1 via Linda
 Entering Link 1 = /home/timn/tmp/g03.e01/l1.exe PID=     19066.
  
 Copyright (c) 1988,1990,1992,1993,1995,1998,2003,2004,2007, Gaussian, Inc.
                  All Rights Reserved.
  
 This is the Gaussian(R) 03 program.  It is based on the
 the Gaussian(R) 98 system (copyright 1998, Gaussian, Inc.),
 the Gaussian(R) 94 system (copyright 1995, Gaussian, Inc.),
 the Gaussian 92(TM) system (copyright 1992, Gaussian, Inc.),
 the Gaussian 90(TM) system (copyright 1990, Gaussian, Inc.),
 the Gaussian 88(TM) system (copyright 1988, Gaussian, Inc.),
 the Gaussian 86(TM) system (copyright 1986, Carnegie Mellon
 University), and the Gaussian 82(TM) system (copyright 1983,
 Carnegie Mellon University). Gaussian is a federally registered
 trademark of Gaussian, Inc.
  
 This software contains proprietary and confidential information,
 including trade secrets, belonging to Gaussian, Inc.
  
 This software is provided under written license and may be
 used, copied, transmitted, or stored only in accord with that
 written license.
  
 The following legend is applicable only to US Government
 contracts under FAR:
  
                    RESTRICTED RIGHTS LEGEND
  
 Use, reproduction and disclosure by the US Government is
 subject to restrictions as set forth in subparagraphs (a)
 and (c) of the Commercial Computer Software - Restricted
 Rights clause in FAR 52.227-19.
  
 Gaussian, Inc.
 340 Quinnipiac St., Bldg. 40, Wallingford CT 06492
  
  
 ---------------------------------------------------------------
 Warning -- This program may not be used in any manner that
 competes with the business of Gaussian, Inc. or will provide
 assistance to any competitor of Gaussian, Inc.  The licensee
 of this program is prohibited from giving any competitor of
 Gaussian, Inc. access to this program.  By using this program,
 the user acknowledges that Gaussian, Inc. is engaged in the
 business of creating and licensing software in the field of
 computational chemistry and represents and warrants to the
 licensee that it is not a competitor of Gaussian, Inc. and that
 it will not use this program in any manner prohibited above.
 ---------------------------------------------------------------
  

 Cite this work as:
 Gaussian 03, Revision E.01,
 M. J. Frisch, G. W. Trucks, H. B. Schlegel, G. E. Scuseria, 
 M. A. Robb, J. R. Cheeseman, J. A. Montgomery, Jr., T. Vreven, 
 K. N. Kudin, J. C. Burant, J. M. Millam, S. S. Iyengar, J. Tomasi, 
 V. Barone, B. Mennucci, M. Cossi, G. Scalmani, N. Rega, 
 G. A. Petersson, H. Nakatsuji, M. Hada, M. Ehara, K. Toyota, 
 R. Fukuda, J. Hasegawa, M. Ishida, T. Nakajima, Y. Honda, O. Kitao, 
 H. Nakai, M. Klene, X. Li, J. E. Knox, H. P. Hratchian, J. B. Cross, 
 V. Bakken, C. Adamo, J. Jaramillo, R. Gomperts, R. E. Stratmann, 
 O. Yazyev, A. J. Austin, R. Cammi, C. Pomelli, J. W. Ochterski, 
 P. Y. Ayala, K. Morokuma, G. A. Voth, P. Salvador, J. J. Dannenberg, 
 V. G. Zakrzewski, S. Dapprich, A. D. Daniels, M. C. Strain, 
 O. Farkas, D. K. Malick, A. D. Rabuck, K. Raghavachari, 
 J. B. Foresman, J. V. Ortiz, Q. Cui, A. G. Baboul, S. Clifford, 
 J. Cioslowski, B. B. Stefanov, G. Liu, A. Liashenko, P. Piskorz, 
 I. Komaromi, R. L. Martin, D. J. Fox, T. Keith, M. A. Al-Laham, 
 C. Y. Peng, A. Nanayakkara, M. Challacombe, P. M. W. Gill, 
 B. Johnson, W. Chen, M. W. Wong, C. Gonzalez, and J. A. Pople, 
 Gaussian, Inc., Wallingford CT, 2004.
 
 ******************************************
 Gaussian 03:  EM64T-G03RevE.01 11-Sep-2007
                12-Jun-2015 
 ******************************************
 %nproc=2
 Will use up to    2 processors via shared memory.
 Default route:  MP2=Direct MaxDisk=2000MB
 ----------------------------------------------------
 # b3lyp/6-31+G(d,p) int=ultrafine pop=(ReadRadii,MK)
 ----------------------------------------------------

 Warning!  SCF SP cutoffs with diffuse functions may be unreliable.
 Consider SCF=Tight

 1/38=1/1;
 2/17=6,18=5,40=1/2;
 3/5=1,6=6,7=111,11=2,16=1,25=1,30=1,74=-5,75=5/1,2,3;
 4//1;
 5/5=2,32=1,38=5/2;
 6/7=2,8=2,9=2,10=2,15=8,20=101,28=1/1,2;
 99/5=1,9=1/99;
 ---------------------------------------
 mol_17.29.20.pdbcc_plusQ.z58601.zip.xyz
 ---------------------------------------
 Symbolic Z-matrix:
 Charge =  1 Multiplicity = 1
 O                     0.29431  -1.00024   0.96973 
 O                     0.53117  -1.6698   -0.39397 
 P                     1.01634   0.64212   1.22763 
 O                     2.53241   0.33924   0.98216 
 O                     0.5709    1.29005  -0.24895 
 Ca                    2.15328  -0.23399  -1.16199 
 Ca                   -1.64795   1.88561  -0.27442 
 O                    -2.74698   0.07922  -0.32747 
 Ca                   -1.74031  -1.7486    0.12309 
 
                          Input orientation:                          
 ---------------------------------------------------------------------
 Center     Atomic     Atomic              Coordinates (Angstroms)
 Number     Number      Type              X           Y           Z
 ---------------------------------------------------------------------
    1          8             0        0.294310   -1.000240    0.969730
    2          8             0        0.531170   -1.669800   -0.393970
    3         15             0        1.016340    0.642120    1.227630
    4          8             0        2.532410    0.339240    0.982160
    5          8             0        0.570900    1.290050   -0.248950
    6         20             0        2.153280   -0.233990   -1.161990
    7         20             0       -1.647950    1.885610   -0.274420
    8          8             0       -2.746980    0.079220   -0.327470
    9         20             0       -1.740310   -1.748600    0.123090
 ---------------------------------------------------------------------
                    Distance matrix (angstroms):
                    1          2          3          4          5
     1  O    0.000000
     2  O    1.537560   0.000000
     3  P    1.812508   2.865301   0.000000
     4  O    2.608343   3.151974   1.565395   0.000000
     5  O    2.609044   2.963667   1.672877   2.503436   0.000000
     6  Ca   2.930382   2.298401   2.787559   2.251602   2.379131
     7  Ca   3.694376   4.171786   3.301645   4.630946   2.297528
     8  O    3.478133   3.716149   4.110690   5.445613   3.532790
     9  Ca   2.327342   2.330919   3.812436   4.832516   3.835818
                    6          7          8          9
     6  Ca   0.000000
     7  Ca   4.441828   0.000000
     8  O    4.980670   2.115118   0.000000
     9  Ca   4.370986   3.657052   2.134787   0.000000
 Stoichiometry    Ca3O5P(1+)
 Framework group  C1[X(Ca3O5P)]
 Deg. of freedom    21
 Full point group                 C1
 Largest Abelian subgroup         C1      NOp   1
 Largest concise Abelian subgroup C1      NOp   1
                         Standard orientation:                         
 ---------------------------------------------------------------------
 Center     Atomic     Atomic              Coordinates (Angstroms)
 Number     Number      Type              X           Y           Z
 ---------------------------------------------------------------------
    1          8             0        0.294312   -1.000239    0.969730
    2          8             0        0.531174   -1.669799   -0.393970
    3         15             0        1.016339    0.642122    1.227630
    4          8             0        2.532409    0.339245    0.982160
    5          8             0        0.570898    1.290051   -0.248950
    6         20             0        2.153281   -0.233985   -1.161990
    7         20             0       -1.647954    1.885607   -0.274420
    8          8             0       -2.746980    0.079215   -0.327470
    9         20             0       -1.740306   -1.748603    0.123090
 ---------------------------------------------------------------------
 Rotational constants (GHZ):      0.9942590      0.6154663      0.4814838
 Standard basis: 6-31+G(d,p) (6D, 7F)
 There are   199 symmetry adapted basis functions of A   symmetry.
 Integral buffers will be    131072 words long.
 Raffenetti 2 integral format.
 Two-electron integral symmetry is turned on.
   199 basis functions,   456 primitive gaussians,   199 cartesian basis functions
    57 alpha electrons       57 beta electrons
       nuclear repulsion energy      1016.4136827675 Hartrees.
 NAtoms=    9 NActive=    9 NUniq=    9 SFac= 7.50D-01 NAtFMM=   80 NAOKFM=F Big=F
 One-electron integrals computed using PRISM.
 NBasis=   199 RedAO= T  NBF=   199
 NBsUse=   199 1.00D-06 NBFU=   199
 Harris functional with IExCor=  402 diagonalized for initial guess.
 ExpMin= 7.10D-03 ExpMax= 3.53D+04 ExpMxC= 5.30D+03 IAcc=3 IRadAn=         5 AccDes= 0.00D+00
 HarFok:  IExCor= 402 AccDes= 0.00D+00 IRadAn=         5 IDoV=1
 ScaDFX=  1.000000  1.000000  1.000000  1.000000
 Initial guess orbital symmetries:
       Occupied  (A) (A) (A) (A) (A) (A) (A) (A) (A) (A) (A) (A)
                 (A) (A) (A) (A) (A) (A) (A) (A) (A) (A) (A) (A)
                 (A) (A) (A) (A) (A) (A) (A) (A) (A) (A) (A) (A)
                 (A) (A) (A) (A) (A) (A) (A) (A) (A) (A) (A) (A)
                 (A) (A) (A) (A) (A) (A) (A) (A) (A)
       Virtual   (A) (A) (A) (A) (A) (A) (A) (A) (A) (A) (A) (A)
                 (A) (A) (A) (A) (A) (A) (A) (A) (A) (A) (A) (A)
                 (A) (A) (A) (A) (A) (A) (A) (A) (A) (A) (A) (A)
                 (A) (A) (A) (A) (A) (A) (A) (A) (A) (A) (A) (A)
                 (A) (A) (A) (A) (A) (A) (A) (A) (A) (A) (A) (A)
                 (A) (A) (A) (A) (A) (A) (A) (A) (A) (A) (A) (A)
                 (A) (A) (A) (A) (A) (A) (A) (A) (A) (A) (A) (A)
                 (A) (A) (A) (A) (A) (A) (A) (A) (A) (A) (A) (A)
                 (A) (A) (A) (A) (A) (A) (A) (A) (A) (A) (A) (A)
                 (A) (A) (A) (A) (A) (A) (A) (A) (A) (A) (A) (A)
                 (A) (A) (A) (A) (A) (A) (A) (A) (A) (A) (A) (A)
                 (A) (A) (A) (A) (A) (A) (A) (A) (A) (A)
 The electronic state of the initial guess is 1-A.
 Requested convergence on RMS density matrix=1.00D-04 within 128 cycles.
 Requested convergence on MAX density matrix=1.00D-02.
 Requested convergence on             energy=1.00D-02.
 No special actions if energy rises.
 EnCoef did     4 forward-backward iterations
 SCF Done:  E(RB+HF-LYP) =  -2750.16692675     A.U. after    9 cycles
             Convg  =    0.7212D-04             -V/T =  2.0029
             S**2   =   0.0000

 **********************************************************************

            Population analysis using the SCF density.

 **********************************************************************

 Orbital symmetries:
       Occupied  (A) (A) (A) (A) (A) (A) (A) (A) (A) (A) (A) (A)
                 (A) (A) (A) (A) (A) (A) (A) (A) (A) (A) (A) (A)
                 (A) (A) (A) (A) (A) (A) (A) (A) (A) (A) (A) (A)
                 (A) (A) (A) (A) (A) (A) (A) (A) (A) (A) (A) (A)
                 (A) (A) (A) (A) (A) (A) (A) (A) (A)
       Virtual   (A) (A) (A) (A) (A) (A) (A) (A) (A) (A) (A) (A)
                 (A) (A) (A) (A) (A) (A) (A) (A) (A) (A) (A) (A)
                 (A) (A) (A) (A) (A) (A) (A) (A) (A) (A) (A) (A)
                 (A) (A) (A) (A) (A) (A) (A) (A) (A) (A) (A) (A)
                 (A) (A) (A) (A) (A) (A) (A) (A) (A) (A) (A) (A)
                 (A) (A) (A) (A) (A) (A) (A) (A) (A) (A) (A) (A)
                 (A) (A) (A) (A) (A) (A) (A) (A) (A) (A) (A) (A)
                 (A) (A) (A) (A) (A) (A) (A) (A) (A) (A) (A) (A)
                 (A) (A) (A) (A) (A) (A) (A) (A) (A) (A) (A) (A)
                 (A) (A) (A) (A) (A) (A) (A) (A) (A) (A) (A) (A)
                 (A) (A) (A) (A) (A) (A) (A) (A) (A) (A) (A) (A)
                 (A) (A) (A) (A) (A) (A) (A) (A) (A) (A)
 The electronic state is 1-A.
 Alpha  occ. eigenvalues -- -145.52702-145.49229-145.47396 -77.26186 -19.29360
 Alpha  occ. eigenvalues --  -19.26759 -19.23287 -19.20689 -19.12334 -15.59507
 Alpha  occ. eigenvalues --  -15.56123 -15.54295 -12.72703 -12.72698 -12.72648
 Alpha  occ. eigenvalues --  -12.69378 -12.69306 -12.69180 -12.67527 -12.67498
 Alpha  occ. eigenvalues --  -12.67361  -6.71449  -4.87894  -4.87724  -4.87239
 Alpha  occ. eigenvalues --   -1.96615  -1.93369  -1.91590  -1.24642  -1.23987
 Alpha  occ. eigenvalues --   -1.23908  -1.21265  -1.20942  -1.20295  -1.20003
 Alpha  occ. eigenvalues --   -1.19355  -1.18641  -1.12931  -1.06896  -1.01987
 Alpha  occ. eigenvalues --   -0.93253  -0.86550  -0.64615  -0.55143  -0.52550
 Alpha  occ. eigenvalues --   -0.51115  -0.48255  -0.47850  -0.43067  -0.40579
 Alpha  occ. eigenvalues --   -0.39641  -0.37834  -0.35821  -0.33994  -0.32594
 Alpha  occ. eigenvalues --   -0.30752  -0.30649
 Alpha virt. eigenvalues --   -0.20593  -0.18565  -0.16508  -0.14557  -0.12509
 Alpha virt. eigenvalues --   -0.10780  -0.10581  -0.08947  -0.08725  -0.08208
 Alpha virt. eigenvalues --   -0.07328  -0.07080  -0.06620  -0.05807  -0.05408
 Alpha virt. eigenvalues --   -0.04998  -0.04828  -0.04629  -0.04425  -0.04022
 Alpha virt. eigenvalues --   -0.03978  -0.03770  -0.03439  -0.03148  -0.02948
 Alpha virt. eigenvalues --   -0.02828  -0.02530  -0.01039   0.00279   0.00872
 Alpha virt. eigenvalues --    0.02241   0.03261   0.03591   0.04039   0.04375
 Alpha virt. eigenvalues --    0.04887   0.05167   0.05599   0.05681   0.06674
 Alpha virt. eigenvalues --    0.07301   0.07681   0.08095   0.08251   0.08613
 Alpha virt. eigenvalues --    0.09251   0.09551   0.10479   0.10964   0.11164
 Alpha virt. eigenvalues --    0.12135   0.13470   0.14252   0.15776   0.16548
 Alpha virt. eigenvalues --    0.17869   0.19243   0.20339   0.20579   0.22001
 Alpha virt. eigenvalues --    0.23121   0.23456   0.24004   0.25916   0.26749
 Alpha virt. eigenvalues --    0.27078   0.28068   0.29137   0.30702   0.32897
 Alpha virt. eigenvalues --    0.33910   0.35228   0.36272   0.38114   0.38723
 Alpha virt. eigenvalues --    0.40772   0.41913   0.45613   0.46878   0.52163
 Alpha virt. eigenvalues --    0.55722   0.57464   0.62430   0.64258   0.67716
 Alpha virt. eigenvalues --    0.72686   0.78225   0.85331   0.91135   0.92650
 Alpha virt. eigenvalues --    0.96158   1.07617   1.12725   1.15045   1.16212
 Alpha virt. eigenvalues --    1.16986   1.17687   1.18409   1.19602   1.21124
 Alpha virt. eigenvalues --    1.23834   1.23983   1.26337   1.26901   1.28660
 Alpha virt. eigenvalues --    1.31354   1.44170   1.47586   1.52181   1.53056
 Alpha virt. eigenvalues --    1.56905   1.68284   1.70183   1.73037   1.74717
 Alpha virt. eigenvalues --    1.76566   1.78343   1.80345   1.82114   1.83552
 Alpha virt. eigenvalues --    1.84832   1.85345   1.87869   1.89462   1.90994
 Alpha virt. eigenvalues --    1.95416   1.96712   1.99104   2.02911   2.05284
 Alpha virt. eigenvalues --    2.17323   2.19340   2.27778   2.48102   2.69695
 Alpha virt. eigenvalues --    3.04781   3.49662   3.97373   4.01432   4.06758
 Alpha virt. eigenvalues --    4.17857   4.25663
          Condensed to atoms (all electrons):
              1          2          3          4          5          6
     1  O    8.882391  -0.192382  -0.338179   0.008547   0.082190  -0.048936
     2  O   -0.192382   8.649516   0.030923   0.020237  -0.013975   0.123532
     3  P   -0.338179   0.030923  14.431580   0.113600  -0.224248   0.094753
     4  O    0.008547   0.020237   0.113600   8.624377  -0.000555   0.104078
     5  O    0.082190  -0.013975  -0.224248  -0.000555   9.034988   0.021870
     6  Ca  -0.048936   0.123532   0.094753   0.104078   0.021870  18.286174
     7  Ca   0.027242  -0.005445  -0.022861   0.015039   0.091533  -0.013483
     8  O   -0.000218  -0.000453  -0.005769   0.001090  -0.004268   0.000543
     9  Ca   0.043579   0.076885  -0.037771   0.005284   0.011166  -0.014173
              7          8          9
     1  O    0.027242  -0.000218   0.043579
     2  O   -0.005445  -0.000453   0.076885
     3  P   -0.022861  -0.005769  -0.037771
     4  O    0.015039   0.001090   0.005284
     5  O    0.091533  -0.004268   0.011166
     6  Ca  -0.013483   0.000543  -0.014173
     7  Ca  18.298166   0.238099  -0.017956
     8  O    0.238099   8.754553   0.203187
     9  Ca  -0.017956   0.203187  18.292848
 Mulliken atomic charges:
              1
     1  O   -0.464233
     2  O   -0.688837
     3  P    0.957972
     4  O   -0.891696
     5  O   -0.998701
     6  Ca   1.445642
     7  Ca   1.389666
     8  O   -1.186765
     9  Ca   1.436952
 Sum of Mulliken charges=   1.00000
 Atomic charges with hydrogens summed into heavy atoms:
              1
     1  O   -0.464233
     2  O   -0.688837
     3  P    0.957972
     4  O   -0.891696
     5  O   -0.998701
     6  Ca   1.445642
     7  Ca   1.389666
     8  O   -1.186765
     9  Ca   1.436952
 Sum of Mulliken charges=   1.00000
 Electronic spatial extent (au):  <R**2>=  2250.7060
 Charge=     1.0000 electrons
 Dipole moment (field-independent basis, Debye):
    X=    -0.3563    Y=     0.4249    Z=    -8.0616  Tot=     8.0807
 Quadrupole moment (field-independent basis, Debye-Ang):
   XX=   -66.2331   YY=   -40.7282   ZZ=   -68.4785
   XY=    -3.5047   XZ=   -27.7679   YZ=    -2.5965
 Traceless Quadrupole moment (field-independent basis, Debye-Ang):
   XX=    -7.7532   YY=    17.7517   ZZ=    -9.9986
   XY=    -3.5047   XZ=   -27.7679   YZ=    -2.5965
 Octapole moment (field-independent basis, Debye-Ang**2):
  XXX=    87.2475  YYY=    13.7945  ZZZ=   -42.7138  XYY=  -101.9904
  XXY=   -22.9323  XXZ=   -54.1913  XZZ=    21.3997  YZZ=    -3.6015
  YYZ=    -9.5296  XYZ=    14.8036
 Hexadecapole moment (field-independent basis, Debye-Ang**3):
 XXXX= -1622.1749 YYYY=  -553.4567 ZZZZ=  -354.4663 XXXY=   -25.6759
 XXXZ=  -242.6633 YYYX=   -17.0711 YYYZ=   -32.1780 ZZZX=   -88.2585
 ZZZY=   -13.3804 XXYY=  -190.9665 XXZZ=  -255.5552 YYZZ=  -175.1877
 XXYZ=   -11.9526 YYXZ=    -8.2343 ZZXY=   -10.7553
 N-N= 1.016413682768D+03 E-N=-8.534364421441D+03  KE= 2.742186914364D+03
 Merz-Kollman atomic radii used.
 Read replacement radii for each type of atom:
 Rad(20) =   1.188000000000D+00
 Atom Element Radius
    1     8    1.40
    2     8    1.40
    3    15    1.80
    4     8    1.40
    5     8    1.40
    6    20    1.19
    7    20    1.19
    8     8    1.40
    9    20    1.19

 **********************************************************************

            Electrostatic Properties Using The SCF Density

 **********************************************************************

       Atomic Center    1 is at   0.294312 -1.000239  0.969730
       Atomic Center    2 is at   0.531174 -1.669799 -0.393970
       Atomic Center    3 is at   1.016339  0.642122  1.227630
       Atomic Center    4 is at   2.532409  0.339245  0.982160
       Atomic Center    5 is at   0.570898  1.290051 -0.248950
       Atomic Center    6 is at   2.153281 -0.233985 -1.161990
       Atomic Center    7 is at  -1.647954  1.885607 -0.274420
       Atomic Center    8 is at  -2.746980  0.079215 -0.327470
       Atomic Center    9 is at  -1.740306 -1.748603  0.123090
     774 points will be used for fitting atomic charges
 Fitting point charges to eletrostatic potential
 Charges from ESP fit, RMS=   0.00666 RRMS=   0.04317:
 Charge=   1.00000 Dipole=    -0.3243     0.4815    -8.1006 Tot=     8.1214
              1
     1  O   -0.405726
     2  O   -0.790271
     3  P    0.302175
     4  O   -0.554168
     5  O   -1.039324
     6  Ca   1.672874
     7  Ca   1.680977
     8  O   -1.551191
     9  Ca   1.684654
 -----------------------------------------------------------------

              Electrostatic Properties (Atomic Units)

 -----------------------------------------------------------------
    Center     Electric         -------- Electric Field --------
               Potential          X             Y             Z
 -----------------------------------------------------------------
    1 Atom    -22.176225
    2 Atom    -22.200819
    3 Atom    -53.952400
    4 Atom    -22.254654
    5 Atom    -22.234965
    6 Atom    -80.014083
    7 Atom    -80.049501
    8 Atom    -22.338294
    9 Atom    -80.066982
 -----------------------------------------------------------------
 1\1\GINC-N021\SP\RB3LYP\6-31+G(d,p)\Ca3O5P1(1+)\TIMN\12-Jun-2015\0\\# 
 b3lyp/6-31+G(d,p) int=ultrafine pop=(ReadRadii,MK)\\mol_17.29.20.pdbcc
 _plusQ.z58601.zip.xyz\\1,1\O,0,0.29431,-1.00024,0.96973\O,0,0.53117,-1
 .6698,-0.39397\P,0,1.01634,0.64212,1.22763\O,0,2.53241,0.33924,0.98216
 \O,0,0.5709,1.29005,-0.24895\Ca,0,2.15328,-0.23399,-1.16199\Ca,0,-1.64
 795,1.88561,-0.27442\O,0,-2.74698,0.07922,-0.32747\Ca,0,-1.74031,-1.74
 86,0.12309\\Version=EM64T-G03RevE.01\State=1-A\HF=-2750.1669267\RMSD=7
 .212e-05\Thermal=0.\Dipole=-0.1401981,0.1671538,-3.1716799\PG=C01 [X(C
 a3O5P1)]\\@


 FAULTILY FAULTLESS, ICILY REGULAR, SPLENDIDLY NULL...
           MAUDE BY TENNYSON
 Job cpu time:  0 days  0 hours  2 minutes 23.5 seconds.
 File lengths (MBytes):  RWF=     36 Int=      0 D2E=      0 Chk=     11 Scr=      1
 Normal termination of Gaussian 03 at Fri Jun 12 18:12:07 2015.
