 Entering Gaussian System, Link 0=/home/timn/tmp/g03.e01/g03
 Input=mol_16.5.0.pdbc_plusQc.out.z51615.zip.xyz.gjf
 Output=mol_16.5.0.pdbc_plusQc.out.z51615.zip.xyz.out
 Initial command:
 /home/timn/tmp/g03.e01/l1.exe /home/timn/tmp/g03.e01/Gau-12367.inp -scrdir=/home/timn/tmp/g03.e01/
 Default is to use a total of   2 processors:
                                2 via shared-memory
                                1 via Linda
 Entering Link 1 = /home/timn/tmp/g03.e01/l1.exe PID=     12368.
  
 Copyright (c) 1988,1990,1992,1993,1995,1998,2003,2004,2007, Gaussian, Inc.
                  All Rights Reserved.
  
 This is the Gaussian(R) 03 program.  It is based on the
 the Gaussian(R) 98 system (copyright 1998, Gaussian, Inc.),
 the Gaussian(R) 94 system (copyright 1995, Gaussian, Inc.),
 the Gaussian 92(TM) system (copyright 1992, Gaussian, Inc.),
 the Gaussian 90(TM) system (copyright 1990, Gaussian, Inc.),
 the Gaussian 88(TM) system (copyright 1988, Gaussian, Inc.),
 the Gaussian 86(TM) system (copyright 1986, Carnegie Mellon
 University), and the Gaussian 82(TM) system (copyright 1983,
 Carnegie Mellon University). Gaussian is a federally registered
 trademark of Gaussian, Inc.
  
 This software contains proprietary and confidential information,
 including trade secrets, belonging to Gaussian, Inc.
  
 This software is provided under written license and may be
 used, copied, transmitted, or stored only in accord with that
 written license.
  
 The following legend is applicable only to US Government
 contracts under FAR:
  
                    RESTRICTED RIGHTS LEGEND
  
 Use, reproduction and disclosure by the US Government is
 subject to restrictions as set forth in subparagraphs (a)
 and (c) of the Commercial Computer Software - Restricted
 Rights clause in FAR 52.227-19.
  
 Gaussian, Inc.
 340 Quinnipiac St., Bldg. 40, Wallingford CT 06492
  
  
 ---------------------------------------------------------------
 Warning -- This program may not be used in any manner that
 competes with the business of Gaussian, Inc. or will provide
 assistance to any competitor of Gaussian, Inc.  The licensee
 of this program is prohibited from giving any competitor of
 Gaussian, Inc. access to this program.  By using this program,
 the user acknowledges that Gaussian, Inc. is engaged in the
 business of creating and licensing software in the field of
 computational chemistry and represents and warrants to the
 licensee that it is not a competitor of Gaussian, Inc. and that
 it will not use this program in any manner prohibited above.
 ---------------------------------------------------------------
  

 Cite this work as:
 Gaussian 03, Revision E.01,
 M. J. Frisch, G. W. Trucks, H. B. Schlegel, G. E. Scuseria, 
 M. A. Robb, J. R. Cheeseman, J. A. Montgomery, Jr., T. Vreven, 
 K. N. Kudin, J. C. Burant, J. M. Millam, S. S. Iyengar, J. Tomasi, 
 V. Barone, B. Mennucci, M. Cossi, G. Scalmani, N. Rega, 
 G. A. Petersson, H. Nakatsuji, M. Hada, M. Ehara, K. Toyota, 
 R. Fukuda, J. Hasegawa, M. Ishida, T. Nakajima, Y. Honda, O. Kitao, 
 H. Nakai, M. Klene, X. Li, J. E. Knox, H. P. Hratchian, J. B. Cross, 
 V. Bakken, C. Adamo, J. Jaramillo, R. Gomperts, R. E. Stratmann, 
 O. Yazyev, A. J. Austin, R. Cammi, C. Pomelli, J. W. Ochterski, 
 P. Y. Ayala, K. Morokuma, G. A. Voth, P. Salvador, J. J. Dannenberg, 
 V. G. Zakrzewski, S. Dapprich, A. D. Daniels, M. C. Strain, 
 O. Farkas, D. K. Malick, A. D. Rabuck, K. Raghavachari, 
 J. B. Foresman, J. V. Ortiz, Q. Cui, A. G. Baboul, S. Clifford, 
 J. Cioslowski, B. B. Stefanov, G. Liu, A. Liashenko, P. Piskorz, 
 I. Komaromi, R. L. Martin, D. J. Fox, T. Keith, M. A. Al-Laham, 
 C. Y. Peng, A. Nanayakkara, M. Challacombe, P. M. W. Gill, 
 B. Johnson, W. Chen, M. W. Wong, C. Gonzalez, and J. A. Pople, 
 Gaussian, Inc., Wallingford CT, 2004.
 
 ******************************************
 Gaussian 03:  EM64T-G03RevE.01 11-Sep-2007
                12-Jun-2015 
 ******************************************
 %nproc=2
 Will use up to    2 processors via shared memory.
 Default route:  MP2=Direct MaxDisk=2000MB
 ----------------------------------------------------
 # b3lyp/6-31+G(d,p) int=ultrafine pop=(ReadRadii,MK)
 ----------------------------------------------------

 Warning!  SCF SP cutoffs with diffuse functions may be unreliable.
 Consider SCF=Tight

 1/38=1/1;
 2/17=6,18=5,40=1/2;
 3/5=1,6=6,7=111,11=2,16=1,25=1,30=1,74=-5,75=5/1,2,3;
 4//1;
 5/5=2,32=1,38=5/2;
 6/7=2,8=2,9=2,10=2,15=8,20=101,28=1/1,2;
 99/5=1,9=1/99;
 -----------------------------------------
 mol_16.5.0.pdbc_plusQc.out.z51615.zip.xyz
 -----------------------------------------
 Symbolic Z-matrix:
 Charge =  1 Multiplicity = 1
 O                     1.44289   1.27303  -0.00052 
 O                     1.44167  -1.27411  -0.00053 
 P                     2.31983  -0.00098   0.00041 
 Ca                   -0.76245  -1.85796  -0.00009 
 Ca                   -0.76075   1.85854  -0.00004 
 O                    -1.71346   0.00088  -0.78583 
 O                    -1.71276   0.0006    0.78645 
 
                          Input orientation:                          
 ---------------------------------------------------------------------
 Center     Atomic     Atomic              Coordinates (Angstroms)
 Number     Number      Type              X           Y           Z
 ---------------------------------------------------------------------
    1          8             0        1.442890    1.273030   -0.000520
    2          8             0        1.441670   -1.274110   -0.000530
    3         15             0        2.319830   -0.000980    0.000410
    4         20             0       -0.762450   -1.857960   -0.000090
    5         20             0       -0.760750    1.858540   -0.000040
    6          8             0       -1.713460    0.000880   -0.785830
    7          8             0       -1.712760    0.000600    0.786450
 ---------------------------------------------------------------------
                    Distance matrix (angstroms):
                    1          2          3          4          5
     1  O    0.000000
     2  O    2.547140   0.000000
     3  P    1.546650   1.546618   0.000000
     4  Ca   3.829703   2.280137   3.598448   0.000000
     5  Ca   2.280099   3.829380   3.598303   3.716500   0.000000
     6  O    3.492510   3.492441   4.109210   2.230940   2.230700
     7  O    3.492353   3.492084   4.108484   2.230690   2.230881
                    6          7
     6  O    0.000000
     7  O    1.572280   0.000000
 Stoichiometry    Ca2O4P(1+)
 Framework group  C1[X(Ca2O4P)]
 Deg. of freedom    15
 Full point group                 C1
 Largest Abelian subgroup         C1      NOp   1
 Largest concise Abelian subgroup C1      NOp   1
                         Standard orientation:                         
 ---------------------------------------------------------------------
 Center     Atomic     Atomic              Coordinates (Angstroms)
 Number     Number      Type              X           Y           Z
 ---------------------------------------------------------------------
    1          8             0        1.442884    1.273034   -0.000521
    2          8             0        1.441673   -1.274106   -0.000531
    3         15             0        2.319828   -0.000973    0.000409
    4         20             0       -0.762445   -1.857964   -0.000091
    5         20             0       -0.760759    1.858536   -0.000041
    6          8             0       -1.713462    0.000873   -0.785831
    7          8             0       -1.712762    0.000593    0.786449
 ---------------------------------------------------------------------
 Rotational constants (GHZ):      1.4537161      1.2852517      0.7206113
 Standard basis: 6-31+G(d,p) (6D, 7F)
 There are   153 symmetry adapted basis functions of A   symmetry.
 Integral buffers will be    131072 words long.
 Raffenetti 2 integral format.
 Two-electron integral symmetry is turned on.
   153 basis functions,   344 primitive gaussians,   153 cartesian basis functions
    43 alpha electrons       43 beta electrons
       nuclear repulsion energy       602.1441977450 Hartrees.
 NAtoms=    7 NActive=    7 NUniq=    7 SFac= 7.50D-01 NAtFMM=   80 NAOKFM=F Big=F
 One-electron integrals computed using PRISM.
 NBasis=   153 RedAO= T  NBF=   153
 NBsUse=   153 1.00D-06 NBFU=   153
 Harris functional with IExCor=  402 diagonalized for initial guess.
 ExpMin= 7.10D-03 ExpMax= 3.53D+04 ExpMxC= 5.30D+03 IAcc=3 IRadAn=         5 AccDes= 0.00D+00
 HarFok:  IExCor= 402 AccDes= 0.00D+00 IRadAn=         5 IDoV=1
 ScaDFX=  1.000000  1.000000  1.000000  1.000000
 Initial guess orbital symmetries:
       Occupied  (A) (A) (A) (A) (A) (A) (A) (A) (A) (A) (A) (A)
                 (A) (A) (A) (A) (A) (A) (A) (A) (A) (A) (A) (A)
                 (A) (A) (A) (A) (A) (A) (A) (A) (A) (A) (A) (A)
                 (A) (A) (A) (A) (A) (A) (A)
       Virtual   (A) (A) (A) (A) (A) (A) (A) (A) (A) (A) (A) (A)
                 (A) (A) (A) (A) (A) (A) (A) (A) (A) (A) (A) (A)
                 (A) (A) (A) (A) (A) (A) (A) (A) (A) (A) (A) (A)
                 (A) (A) (A) (A) (A) (A) (A) (A) (A) (A) (A) (A)
                 (A) (A) (A) (A) (A) (A) (A) (A) (A) (A) (A) (A)
                 (A) (A) (A) (A) (A) (A) (A) (A) (A) (A) (A) (A)
                 (A) (A) (A) (A) (A) (A) (A) (A) (A) (A) (A) (A)
                 (A) (A) (A) (A) (A) (A) (A) (A) (A) (A) (A) (A)
                 (A) (A) (A) (A) (A) (A) (A) (A) (A) (A) (A) (A)
                 (A) (A)
 The electronic state of the initial guess is 1-A.
 Requested convergence on RMS density matrix=1.00D-04 within 128 cycles.
 Requested convergence on MAX density matrix=1.00D-02.
 Requested convergence on             energy=1.00D-02.
 No special actions if energy rises.
 SCF Done:  E(RB+HF-LYP) =  -1997.33372464     A.U. after    6 cycles
             Convg  =    0.4406D-04             -V/T =  2.0031
             S**2   =   0.0000

 **********************************************************************

            Population analysis using the SCF density.

 **********************************************************************

 Orbital symmetries:
       Occupied  (A) (A) (A) (A) (A) (A) (A) (A) (A) (A) (A) (A)
                 (A) (A) (A) (A) (A) (A) (A) (A) (A) (A) (A) (A)
                 (A) (A) (A) (A) (A) (A) (A) (A) (A) (A) (A) (A)
                 (A) (A) (A) (A) (A) (A) (A)
       Virtual   (A) (A) (A) (A) (A) (A) (A) (A) (A) (A) (A) (A)
                 (A) (A) (A) (A) (A) (A) (A) (A) (A) (A) (A) (A)
                 (A) (A) (A) (A) (A) (A) (A) (A) (A) (A) (A) (A)
                 (A) (A) (A) (A) (A) (A) (A) (A) (A) (A) (A) (A)
                 (A) (A) (A) (A) (A) (A) (A) (A) (A) (A) (A) (A)
                 (A) (A) (A) (A) (A) (A) (A) (A) (A) (A) (A) (A)
                 (A) (A) (A) (A) (A) (A) (A) (A) (A) (A) (A) (A)
                 (A) (A) (A) (A) (A) (A) (A) (A) (A) (A) (A) (A)
                 (A) (A) (A) (A) (A) (A) (A) (A) (A) (A) (A) (A)
                 (A) (A)
 The electronic state is 1-A.
 Alpha  occ. eigenvalues -- -145.53245-145.53244 -77.30162 -19.27955 -19.27948
 Alpha  occ. eigenvalues --  -19.25589 -19.25583 -15.60092 -15.60091 -12.73307
 Alpha  occ. eigenvalues --  -12.73305 -12.73289 -12.73287 -12.73207 -12.73204
 Alpha  occ. eigenvalues --   -6.75643  -4.92083  -4.91868  -4.91423  -1.97235
 Alpha  occ. eigenvalues --   -1.97208  -1.25764  -1.24805  -1.24791  -1.24724
 Alpha  occ. eigenvalues --   -1.24724  -1.24301  -1.13921  -1.08553  -1.08252
 Alpha  occ. eigenvalues --   -0.89518  -0.67705  -0.57280  -0.52821  -0.52598
 Alpha  occ. eigenvalues --   -0.48994  -0.47946  -0.46120  -0.45761  -0.43900
 Alpha  occ. eigenvalues --   -0.40699  -0.37189  -0.34163
 Alpha virt. eigenvalues --   -0.20456  -0.19853  -0.19631  -0.14478  -0.11367
 Alpha virt. eigenvalues --   -0.11280  -0.10319  -0.09666  -0.09039  -0.07375
 Alpha virt. eigenvalues --   -0.07215  -0.06431  -0.05962  -0.05215  -0.04857
 Alpha virt. eigenvalues --   -0.04431  -0.04389  -0.04083  -0.03998  -0.03873
 Alpha virt. eigenvalues --   -0.03337  -0.02377   0.00222   0.01112   0.02012
 Alpha virt. eigenvalues --    0.02950   0.03326   0.03645   0.04212   0.05048
 Alpha virt. eigenvalues --    0.05147   0.05191   0.06781   0.07028   0.07278
 Alpha virt. eigenvalues --    0.07477   0.08123   0.08218   0.12231   0.13582
 Alpha virt. eigenvalues --    0.14153   0.14769   0.16275   0.16815   0.16922
 Alpha virt. eigenvalues --    0.18690   0.20335   0.21717   0.24408   0.26748
 Alpha virt. eigenvalues --    0.28310   0.29468   0.31799   0.32151   0.32489
 Alpha virt. eigenvalues --    0.36022   0.36752   0.40434   0.43970   0.45542
 Alpha virt. eigenvalues --    0.48012   0.56599   0.57822   0.60212   0.65641
 Alpha virt. eigenvalues --    0.71364   0.87011   0.90192   0.94371   1.03577
 Alpha virt. eigenvalues --    1.05864   1.07984   1.08399   1.12008   1.12334
 Alpha virt. eigenvalues --    1.14816   1.15157   1.17896   1.20708   1.23938
 Alpha virt. eigenvalues --    1.28608   1.38345   1.43009   1.46783   1.50561
 Alpha virt. eigenvalues --    1.50923   1.58067   1.66234   1.68019   1.70629
 Alpha virt. eigenvalues --    1.71271   1.75762   1.80032   1.81219   1.82388
 Alpha virt. eigenvalues --    1.84419   1.85980   1.86052   1.92952   2.09466
 Alpha virt. eigenvalues --    2.16209   2.16975   2.53535   2.67508   3.00309
 Alpha virt. eigenvalues --    3.38477   3.83796   3.90577   3.97508   4.05866
          Condensed to atoms (all electrons):
              1          2          3          4          5          6
     1  O    8.815309  -0.085933  -0.094384   0.002345   0.067451   0.002556
     2  O   -0.085933   8.815188  -0.094393   0.067449   0.002343   0.002555
     3  P   -0.094384  -0.094393  14.567006  -0.019102  -0.019106  -0.004443
     4  Ca   0.002345   0.067449  -0.019102  18.210032  -0.016659   0.105958
     5  Ca   0.067451   0.002343  -0.019106  -0.016659  18.210051   0.105980
     6  O    0.002556   0.002555  -0.004443   0.105958   0.105980   8.515739
     7  O    0.002547   0.002546  -0.004334   0.105956   0.105935  -0.059799
              7
     1  O    0.002547
     2  O    0.002546
     3  P   -0.004334
     4  Ca   0.105956
     5  Ca   0.105935
     6  O   -0.059799
     7  O    8.515741
 Mulliken atomic charges:
              1
     1  O   -0.709893
     2  O   -0.709755
     3  P    0.668757
     4  Ca   1.544022
     5  Ca   1.544006
     6  O   -0.668545
     7  O   -0.668591
 Sum of Mulliken charges=   1.00000
 Atomic charges with hydrogens summed into heavy atoms:
              1
     1  O   -0.709893
     2  O   -0.709755
     3  P    0.668757
     4  Ca   1.544022
     5  Ca   1.544006
     6  O   -0.668545
     7  O   -0.668591
 Sum of Mulliken charges=   1.00000
 Electronic spatial extent (au):  <R**2>=  1378.2502
 Charge=     1.0000 electrons
 Dipole moment (field-independent basis, Debye):
    X=    -3.1425    Y=    -0.0005    Z=     0.0002  Tot=     3.1425
 Quadrupole moment (field-independent basis, Debye-Ang):
   XX=   -66.5003   YY=    -8.8783   ZZ=   -58.2532
   XY=     0.0245   XZ=     0.0046   YZ=     0.0012
 Traceless Quadrupole moment (field-independent basis, Debye-Ang):
   XX=   -21.9564   YY=    35.6656   ZZ=   -13.7093
   XY=     0.0245   XZ=     0.0046   YZ=     0.0012
 Octapole moment (field-independent basis, Debye-Ang**2):
  XXX=     6.9093  YYY=     0.0782  ZZZ=    -0.0082  XYY=   -70.8729
  XXY=    -0.0701  XXZ=    -0.0065  XZZ=     1.4143  YZZ=    -0.0011
  YYZ=     0.0012  XYZ=    -0.0019
 Hexadecapole moment (field-independent basis, Debye-Ang**3):
 XXXX=  -942.7756 YYYY=  -329.5498 ZZZZ=  -103.9515 XXXY=     0.1038
 XXXZ=    -0.0375 YYYX=     0.1317 YYYZ=     0.0037 ZZZX=     0.0087
 ZZZY=     0.0008 XXYY=  -220.7134 XXZZ=  -174.4606 YYZZ=  -103.3897
 XXYZ=     0.0034 YYXZ=     0.0126 ZZXY=     0.0257
 N-N= 6.021441977450D+02 E-N=-5.923723586348D+03  KE= 1.991110568164D+03
 Merz-Kollman atomic radii used.
 Read replacement radii for each type of atom:
 Rad(20) =   1.188000000000D+00
 Atom Element Radius
    1     8    1.40
    2     8    1.40
    3    15    1.80
    4    20    1.19
    5    20    1.19
    6     8    1.40
    7     8    1.40

 **********************************************************************

            Electrostatic Properties Using The SCF Density

 **********************************************************************

       Atomic Center    1 is at   1.442884  1.273034 -0.000521
       Atomic Center    2 is at   1.441673 -1.274106 -0.000531
       Atomic Center    3 is at   2.319828 -0.000973  0.000409
       Atomic Center    4 is at  -0.762445 -1.857964 -0.000091
       Atomic Center    5 is at  -0.760759  1.858536 -0.000041
       Atomic Center    6 is at  -1.713462  0.000873 -0.785831
       Atomic Center    7 is at  -1.712762  0.000593  0.786449
     705 points will be used for fitting atomic charges
 Fitting point charges to eletrostatic potential
 Charges from ESP fit, RMS=   0.00424 RRMS=   0.02786:
 Charge=   1.00000 Dipole=    -2.9835    -0.0006     0.0016 Tot=     2.9835
              1
     1  O   -0.755466
     2  O   -0.755352
     3  P    0.639679
     4  Ca   1.723263
     5  Ca   1.723262
     6  O   -0.787681
     7  O   -0.787705
 -----------------------------------------------------------------

              Electrostatic Properties (Atomic Units)

 -----------------------------------------------------------------
    Center     Electric         -------- Electric Field --------
               Potential          X             Y             Z
 -----------------------------------------------------------------
    1 Atom    -22.184240
    2 Atom    -22.184027
    3 Atom    -53.916352
    4 Atom    -80.007952
    5 Atom    -80.007978
    6 Atom    -22.214092
    7 Atom    -22.214049
 -----------------------------------------------------------------
 1\1\GINC-N033\SP\RB3LYP\6-31+G(d,p)\Ca2O4P1(1+)\TIMN\12-Jun-2015\0\\# 
 b3lyp/6-31+G(d,p) int=ultrafine pop=(ReadRadii,MK)\\mol_16.5.0.pdbc_pl
 usQc.out.z51615.zip.xyz\\1,1\O,0,1.44289,1.27303,-0.00052\O,0,1.44167,
 -1.27411,-0.00053\P,0,2.31983,-0.00098,0.00041\Ca,0,-0.76245,-1.85796,
 -0.00009\Ca,0,-0.76075,1.85854,-0.00004\O,0,-1.71346,0.00088,-0.78583\
 O,0,-1.71276,0.0006,0.78645\\Version=EM64T-G03RevE.01\State=1-A\HF=-19
 97.3337246\RMSD=4.406e-05\Thermal=0.\Dipole=-1.2363475,-0.0002041,0.00
 0096\PG=C01 [X(Ca2O4P1)]\\@


 THE PROGRESS OF RIVERS TO THE SEA IS NOT AS RAPID
 AS THAT OF MAN TO ERROR.
                                              -- VOLTAIRE
 Job cpu time:  0 days  0 hours  0 minutes 44.2 seconds.
 File lengths (MBytes):  RWF=     28 Int=      0 D2E=      0 Chk=     10 Scr=      1
 Normal termination of Gaussian 03 at Fri Jun 12 17:49:02 2015.
