 Entering Gaussian System, Link 0=/home/timn/tmp/g03.e01/g03
 Input=mol_16.4.32.pdb_plusQc.out.z51582.zip.xyz.gjf
 Output=mol_16.4.32.pdb_plusQc.out.z51582.zip.xyz.out
 Initial command:
 /home/timn/tmp/g03.e01/l1.exe /home/timn/tmp/g03.e01/Gau-14302.inp -scrdir=/home/timn/tmp/g03.e01/
 Default is to use a total of   2 processors:
                                2 via shared-memory
                                1 via Linda
 Entering Link 1 = /home/timn/tmp/g03.e01/l1.exe PID=     14305.
  
 Copyright (c) 1988,1990,1992,1993,1995,1998,2003,2004,2007, Gaussian, Inc.
                  All Rights Reserved.
  
 This is the Gaussian(R) 03 program.  It is based on the
 the Gaussian(R) 98 system (copyright 1998, Gaussian, Inc.),
 the Gaussian(R) 94 system (copyright 1995, Gaussian, Inc.),
 the Gaussian 92(TM) system (copyright 1992, Gaussian, Inc.),
 the Gaussian 90(TM) system (copyright 1990, Gaussian, Inc.),
 the Gaussian 88(TM) system (copyright 1988, Gaussian, Inc.),
 the Gaussian 86(TM) system (copyright 1986, Carnegie Mellon
 University), and the Gaussian 82(TM) system (copyright 1983,
 Carnegie Mellon University). Gaussian is a federally registered
 trademark of Gaussian, Inc.
  
 This software contains proprietary and confidential information,
 including trade secrets, belonging to Gaussian, Inc.
  
 This software is provided under written license and may be
 used, copied, transmitted, or stored only in accord with that
 written license.
  
 The following legend is applicable only to US Government
 contracts under FAR:
  
                    RESTRICTED RIGHTS LEGEND
  
 Use, reproduction and disclosure by the US Government is
 subject to restrictions as set forth in subparagraphs (a)
 and (c) of the Commercial Computer Software - Restricted
 Rights clause in FAR 52.227-19.
  
 Gaussian, Inc.
 340 Quinnipiac St., Bldg. 40, Wallingford CT 06492
  
  
 ---------------------------------------------------------------
 Warning -- This program may not be used in any manner that
 competes with the business of Gaussian, Inc. or will provide
 assistance to any competitor of Gaussian, Inc.  The licensee
 of this program is prohibited from giving any competitor of
 Gaussian, Inc. access to this program.  By using this program,
 the user acknowledges that Gaussian, Inc. is engaged in the
 business of creating and licensing software in the field of
 computational chemistry and represents and warrants to the
 licensee that it is not a competitor of Gaussian, Inc. and that
 it will not use this program in any manner prohibited above.
 ---------------------------------------------------------------
  

 Cite this work as:
 Gaussian 03, Revision E.01,
 M. J. Frisch, G. W. Trucks, H. B. Schlegel, G. E. Scuseria, 
 M. A. Robb, J. R. Cheeseman, J. A. Montgomery, Jr., T. Vreven, 
 K. N. Kudin, J. C. Burant, J. M. Millam, S. S. Iyengar, J. Tomasi, 
 V. Barone, B. Mennucci, M. Cossi, G. Scalmani, N. Rega, 
 G. A. Petersson, H. Nakatsuji, M. Hada, M. Ehara, K. Toyota, 
 R. Fukuda, J. Hasegawa, M. Ishida, T. Nakajima, Y. Honda, O. Kitao, 
 H. Nakai, M. Klene, X. Li, J. E. Knox, H. P. Hratchian, J. B. Cross, 
 V. Bakken, C. Adamo, J. Jaramillo, R. Gomperts, R. E. Stratmann, 
 O. Yazyev, A. J. Austin, R. Cammi, C. Pomelli, J. W. Ochterski, 
 P. Y. Ayala, K. Morokuma, G. A. Voth, P. Salvador, J. J. Dannenberg, 
 V. G. Zakrzewski, S. Dapprich, A. D. Daniels, M. C. Strain, 
 O. Farkas, D. K. Malick, A. D. Rabuck, K. Raghavachari, 
 J. B. Foresman, J. V. Ortiz, Q. Cui, A. G. Baboul, S. Clifford, 
 J. Cioslowski, B. B. Stefanov, G. Liu, A. Liashenko, P. Piskorz, 
 I. Komaromi, R. L. Martin, D. J. Fox, T. Keith, M. A. Al-Laham, 
 C. Y. Peng, A. Nanayakkara, M. Challacombe, P. M. W. Gill, 
 B. Johnson, W. Chen, M. W. Wong, C. Gonzalez, and J. A. Pople, 
 Gaussian, Inc., Wallingford CT, 2004.
 
 ******************************************
 Gaussian 03:  EM64T-G03RevE.01 11-Sep-2007
                12-Jun-2015 
 ******************************************
 %nproc=2
 Will use up to    2 processors via shared memory.
 Default route:  MP2=Direct MaxDisk=2000MB
 ----------------------------------------------------
 # b3lyp/6-31+G(d,p) int=ultrafine pop=(ReadRadii,MK)
 ----------------------------------------------------

 Warning!  SCF SP cutoffs with diffuse functions may be unreliable.
 Consider SCF=Tight

 1/38=1/1;
 2/17=6,18=5,40=1/2;
 3/5=1,6=6,7=111,11=2,16=1,25=1,30=1,74=-5,75=5/1,2,3;
 4//1;
 5/5=2,32=1,38=5/2;
 6/7=2,8=2,9=2,10=2,15=8,20=101,28=1/1,2;
 99/5=1,9=1/99;
 -----------------------------------------
 mol_16.4.32.pdb_plusQc.out.z51582.zip.xyz
 -----------------------------------------
 Symbolic Z-matrix:
 Charge =  1 Multiplicity = 1
 O                     0.25335  -0.98088  -0.00172 
 Ca                   -2.24986  -0.68701   0.00015 
 O                    -0.98024   0.81534  -1.24992 
 P                    -0.06684   0.67843  -0.00008 
 O                     1.34921   1.31651   0.00074 
 O                    -0.98013   0.81328   1.25043 
 Ca                    2.44312  -0.60751   0.0001 
 
                          Input orientation:                          
 ---------------------------------------------------------------------
 Center     Atomic     Atomic              Coordinates (Angstroms)
 Number     Number      Type              X           Y           Z
 ---------------------------------------------------------------------
    1          8             0        0.253350   -0.980880   -0.001720
    2         20             0       -2.249860   -0.687010    0.000150
    3          8             0       -0.980240    0.815340   -1.249920
    4         15             0       -0.066840    0.678430   -0.000080
    5          8             0        1.349210    1.316510    0.000740
    6          8             0       -0.980130    0.813280    1.250430
    7         20             0        2.443120   -0.607510    0.000100
 ---------------------------------------------------------------------
                    Distance matrix (angstroms):
                    1          2          3          4          5
     1  O    0.000000
     2  Ca   2.520401   0.000000
     3  O    2.511206   2.330593   0.000000
     4  P    1.689921   2.574879   1.554073   0.000000
     5  O    2.545371   4.119150   2.691033   1.553172   0.000000
     6  O    2.511645   2.329439   2.500351   1.554368   2.690872
     7  Ca   2.221374   4.693653   3.912345   2.820202   2.213254
                    6          7
     6  O    0.000000
     7  Ca   3.911599   0.000000
 Stoichiometry    Ca2O4P(1+)
 Framework group  C1[X(Ca2O4P)]
 Deg. of freedom    15
 Full point group                 C1
 Largest Abelian subgroup         C1      NOp   1
 Largest concise Abelian subgroup C1      NOp   1
                         Standard orientation:                         
 ---------------------------------------------------------------------
 Center     Atomic     Atomic              Coordinates (Angstroms)
 Number     Number      Type              X           Y           Z
 ---------------------------------------------------------------------
    1          8             0        0.253348   -0.980881   -0.001720
    2         20             0       -2.249862   -0.687010    0.000150
    3          8             0       -0.980241    0.815340   -1.249920
    4         15             0       -0.066841    0.678429   -0.000080
    5          8             0        1.349209    1.316509    0.000740
    6          8             0       -0.980131    0.813280    1.250430
    7         20             0        2.443118   -0.607512    0.000100
 ---------------------------------------------------------------------
 Rotational constants (GHZ):      3.1160429      0.9158237      0.8230663
 Standard basis: 6-31+G(d,p) (6D, 7F)
 There are   153 symmetry adapted basis functions of A   symmetry.
 Integral buffers will be    131072 words long.
 Raffenetti 2 integral format.
 Two-electron integral symmetry is turned on.
   153 basis functions,   344 primitive gaussians,   153 cartesian basis functions
    43 alpha electrons       43 beta electrons
       nuclear repulsion energy       648.6930730426 Hartrees.
 NAtoms=    7 NActive=    7 NUniq=    7 SFac= 7.50D-01 NAtFMM=   80 NAOKFM=F Big=F
 One-electron integrals computed using PRISM.
 NBasis=   153 RedAO= T  NBF=   153
 NBsUse=   153 1.00D-06 NBFU=   153
 Harris functional with IExCor=  402 diagonalized for initial guess.
 ExpMin= 7.10D-03 ExpMax= 3.53D+04 ExpMxC= 5.30D+03 IAcc=3 IRadAn=         5 AccDes= 0.00D+00
 HarFok:  IExCor= 402 AccDes= 0.00D+00 IRadAn=         5 IDoV=1
 ScaDFX=  1.000000  1.000000  1.000000  1.000000
 Initial guess orbital symmetries:
       Occupied  (A) (A) (A) (A) (A) (A) (A) (A) (A) (A) (A) (A)
                 (A) (A) (A) (A) (A) (A) (A) (A) (A) (A) (A) (A)
                 (A) (A) (A) (A) (A) (A) (A) (A) (A) (A) (A) (A)
                 (A) (A) (A) (A) (A) (A) (A)
       Virtual   (A) (A) (A) (A) (A) (A) (A) (A) (A) (A) (A) (A)
                 (A) (A) (A) (A) (A) (A) (A) (A) (A) (A) (A) (A)
                 (A) (A) (A) (A) (A) (A) (A) (A) (A) (A) (A) (A)
                 (A) (A) (A) (A) (A) (A) (A) (A) (A) (A) (A) (A)
                 (A) (A) (A) (A) (A) (A) (A) (A) (A) (A) (A) (A)
                 (A) (A) (A) (A) (A) (A) (A) (A) (A) (A) (A) (A)
                 (A) (A) (A) (A) (A) (A) (A) (A) (A) (A) (A) (A)
                 (A) (A) (A) (A) (A) (A) (A) (A) (A) (A) (A) (A)
                 (A) (A) (A) (A) (A) (A) (A) (A) (A) (A) (A) (A)
                 (A) (A)
 The electronic state of the initial guess is 1-A.
 Requested convergence on RMS density matrix=1.00D-04 within 128 cycles.
 Requested convergence on MAX density matrix=1.00D-02.
 Requested convergence on             energy=1.00D-02.
 No special actions if energy rises.
 SCF Done:  E(RB+HF-LYP) =  -1997.39686887     A.U. after    8 cycles
             Convg  =    0.4894D-04             -V/T =  2.0032
             S**2   =   0.0000

 **********************************************************************

            Population analysis using the SCF density.

 **********************************************************************

 Orbital symmetries:
       Occupied  (A) (A) (A) (A) (A) (A) (A) (A) (A) (A) (A) (A)
                 (A) (A) (A) (A) (A) (A) (A) (A) (A) (A) (A) (A)
                 (A) (A) (A) (A) (A) (A) (A) (A) (A) (A) (A) (A)
                 (A) (A) (A) (A) (A) (A) (A)
       Virtual   (A) (A) (A) (A) (A) (A) (A) (A) (A) (A) (A) (A)
                 (A) (A) (A) (A) (A) (A) (A) (A) (A) (A) (A) (A)
                 (A) (A) (A) (A) (A) (A) (A) (A) (A) (A) (A) (A)
                 (A) (A) (A) (A) (A) (A) (A) (A) (A) (A) (A) (A)
                 (A) (A) (A) (A) (A) (A) (A) (A) (A) (A) (A) (A)
                 (A) (A) (A) (A) (A) (A) (A) (A) (A) (A) (A) (A)
                 (A) (A) (A) (A) (A) (A) (A) (A) (A) (A) (A) (A)
                 (A) (A) (A) (A) (A) (A) (A) (A) (A) (A) (A) (A)
                 (A) (A) (A) (A) (A) (A) (A) (A) (A) (A) (A) (A)
                 (A) (A)
 The electronic state is 1-A.
 Alpha  occ. eigenvalues -- -145.57533-145.56082 -77.29913 -19.22722 -19.22254
 Alpha  occ. eigenvalues --  -19.19554 -19.19552 -15.64319 -15.62762 -12.77562
 Alpha  occ. eigenvalues --  -12.77467 -12.77460 -12.75973 -12.75945 -12.75943
 Alpha  occ. eigenvalues --   -6.74484  -4.90938  -4.90798  -4.90703  -2.01272
 Alpha  occ. eigenvalues --   -1.99582  -1.28871  -1.28822  -1.28362  -1.27403
 Alpha  occ. eigenvalues --   -1.26815  -1.26716  -1.11438  -1.04115  -1.01263
 Alpha  occ. eigenvalues --   -1.01108  -0.61208  -0.53187  -0.51398  -0.50523
 Alpha  occ. eigenvalues --   -0.45793  -0.42783  -0.42563  -0.41444  -0.40248
 Alpha  occ. eigenvalues --   -0.37999  -0.36314  -0.34168
 Alpha virt. eigenvalues --   -0.23646  -0.21662  -0.14043  -0.13673  -0.12206
 Alpha virt. eigenvalues --   -0.12006  -0.11173  -0.08339  -0.07556  -0.06422
 Alpha virt. eigenvalues --   -0.05281  -0.05143  -0.04532  -0.04382  -0.04181
 Alpha virt. eigenvalues --   -0.03515  -0.02298  -0.01624  -0.01539  -0.00582
 Alpha virt. eigenvalues --    0.00853   0.01092   0.01685   0.02264   0.02801
 Alpha virt. eigenvalues --    0.02973   0.03220   0.03284   0.04206   0.04370
 Alpha virt. eigenvalues --    0.04479   0.05564   0.05969   0.08293   0.09546
 Alpha virt. eigenvalues --    0.10361   0.10410   0.13379   0.14050   0.14958
 Alpha virt. eigenvalues --    0.16418   0.16686   0.16846   0.18971   0.19224
 Alpha virt. eigenvalues --    0.20366   0.23226   0.23928   0.24621   0.27406
 Alpha virt. eigenvalues --    0.27504   0.28878   0.29810   0.32364   0.33472
 Alpha virt. eigenvalues --    0.35646   0.40688   0.43821   0.49843   0.53081
 Alpha virt. eigenvalues --    0.55955   0.57981   0.62375   0.64014   0.75015
 Alpha virt. eigenvalues --    0.89005   0.92569   0.99114   1.00859   1.07715
 Alpha virt. eigenvalues --    1.15257   1.15736   1.17452   1.18160   1.19508
 Alpha virt. eigenvalues --    1.21359   1.23741   1.24709   1.26296   1.27748
 Alpha virt. eigenvalues --    1.30621   1.46760   1.47112   1.54244   1.69695
 Alpha virt. eigenvalues --    1.70381   1.71751   1.72555   1.76466   1.77139
 Alpha virt. eigenvalues --    1.78368   1.80395   1.82991   1.84052   1.86176
 Alpha virt. eigenvalues --    1.92978   1.97189   2.02992   2.13327   2.14868
 Alpha virt. eigenvalues --    2.24040   2.48305   2.67299   2.77536   2.78508
 Alpha virt. eigenvalues --    3.48681   4.01203   4.02134   4.04594   4.29651
          Condensed to atoms (all electrons):
              1          2          3          4          5          6
     1  O    8.996532   0.053407   0.022231   0.041089  -0.109170   0.022298
     2  Ca   0.053407  18.236316   0.095015   0.036556   0.030704   0.095215
     3  O    0.022231   0.095015   8.830585   0.096373  -0.094486  -0.054202
     4  P    0.041089   0.036556   0.096373  12.758616   0.167705   0.096490
     5  O   -0.109170   0.030704  -0.094486   0.167705   8.817229  -0.094428
     6  O    0.022298   0.095215  -0.054202   0.096490  -0.094428   8.830428
     7  Ca   0.101230   0.003880  -0.011621   0.016987   0.147044  -0.011657
              7
     1  O    0.101230
     2  Ca   0.003880
     3  O   -0.011621
     4  P    0.016987
     5  O    0.147044
     6  O   -0.011657
     7  Ca  18.228974
 Mulliken atomic charges:
              1
     1  O   -1.127618
     2  Ca   1.448907
     3  O   -0.883895
     4  P    1.786185
     5  O   -0.864598
     6  O   -0.884143
     7  Ca   1.525162
 Sum of Mulliken charges=   1.00000
 Atomic charges with hydrogens summed into heavy atoms:
              1
     1  O   -1.127618
     2  Ca   1.448907
     3  O   -0.883895
     4  P    1.786185
     5  O   -0.864598
     6  O   -0.884143
     7  Ca   1.525162
 Sum of Mulliken charges=   1.00000
 Electronic spatial extent (au):  <R**2>=  1262.7665
 Charge=     1.0000 electrons
 Dipole moment (field-independent basis, Debye):
    X=     2.7639    Y=   -12.3580    Z=     0.0026  Tot=    12.6633
 Quadrupole moment (field-independent basis, Debye-Ang):
   XX=    21.9855   YY=   -59.4588   ZZ=   -66.1636
   XY=     1.3219   XZ=     0.0005   YZ=    -0.0056
 Traceless Quadrupole moment (field-independent basis, Debye-Ang):
   XX=    56.5312   YY=   -24.9132   ZZ=   -31.6180
   XY=     1.3219   XZ=     0.0005   YZ=    -0.0056
 Octapole moment (field-independent basis, Debye-Ang**2):
  XXX=    29.2948  YYY=   -30.7277  ZZZ=    -0.0074  XYY=    -5.2990
  XXY=   -85.0685  XXZ=     0.0052  XZZ=    14.3093  YZZ=   -16.8897
  YYZ=     0.0198  XYZ=    -0.0142
 Hexadecapole moment (field-independent basis, Debye-Ang**3):
 XXXX=  -241.7311 YYYY=  -294.8469 ZZZZ=  -200.8110 XXXY=   -11.6101
 XXXZ=    -0.0101 YYYX=    -0.7544 YYYZ=    -0.0032 ZZZX=     0.0141
 ZZZY=    -0.0049 XXYY=  -151.6726 XXZZ=  -164.9954 YYZZ=   -85.4769
 XXYZ=    -0.0129 YYXZ=    -0.0180 ZZXY=     9.6438
 N-N= 6.486930730426D+02 E-N=-6.016973189447D+03  KE= 1.991101090087D+03
 Merz-Kollman atomic radii used.
 Read replacement radii for each type of atom:
 Rad(20) =   1.188000000000D+00
 Atom Element Radius
    1     8    1.40
    2    20    1.19
    3     8    1.40
    4    15    1.80
    5     8    1.40
    6     8    1.40
    7    20    1.19

 **********************************************************************

            Electrostatic Properties Using The SCF Density

 **********************************************************************

       Atomic Center    1 is at   0.253348 -0.980881 -0.001720
       Atomic Center    2 is at  -2.249862 -0.687010  0.000150
       Atomic Center    3 is at  -0.980241  0.815340 -1.249920
       Atomic Center    4 is at  -0.066841  0.678429 -0.000080
       Atomic Center    5 is at   1.349209  1.316509  0.000740
       Atomic Center    6 is at  -0.980131  0.813280  1.250430
       Atomic Center    7 is at   2.443118 -0.607512  0.000100
     609 points will be used for fitting atomic charges
 Fitting point charges to eletrostatic potential
 Charges from ESP fit, RMS=   0.00379 RRMS=   0.02212:
 Charge=   1.00000 Dipole=     2.7574   -12.4685     0.0037 Tot=    12.7697
              1
     1  O   -1.282372
     2  Ca   1.719669
     3  O   -0.966170
     4  P    1.678544
     5  O   -0.904806
     6  O   -0.966621
     7  Ca   1.721755
 -----------------------------------------------------------------

              Electrostatic Properties (Atomic Units)

 -----------------------------------------------------------------
    Center     Electric         -------- Electric Field --------
               Potential          X             Y             Z
 -----------------------------------------------------------------
    1 Atom    -22.237918
    2 Atom    -79.979566
    3 Atom    -22.269931
    4 Atom    -53.905382
    5 Atom    -22.235976
    6 Atom    -22.269879
    7 Atom    -79.965266
 -----------------------------------------------------------------
 1\1\GINC-N030\SP\RB3LYP\6-31+G(d,p)\Ca2O4P1(1+)\TIMN\12-Jun-2015\0\\# 
 b3lyp/6-31+G(d,p) int=ultrafine pop=(ReadRadii,MK)\\mol_16.4.32.pdb_pl
 usQc.out.z51582.zip.xyz\\1,1\O,0,0.25335,-0.98088,-0.00172\Ca,0,-2.249
 86,-0.68701,0.00015\O,0,-0.98024,0.81534,-1.24992\P,0,-0.06684,0.67843
 ,-0.00008\O,0,1.34921,1.31651,0.00074\O,0,-0.98013,0.81328,1.25043\Ca,
 0,2.44312,-0.60751,0.0001\\Version=EM64T-G03RevE.01\State=1-A\HF=-1997
 .3968689\RMSD=4.894e-05\Thermal=0.\Dipole=1.0873876,-4.8619983,0.00103
 29\PG=C01 [X(Ca2O4P1)]\\@


 AS FAR AS THE LAWS OF MATHEMATICS REFER TO REALITY,
 THEY ARE NOT CERTAIN; AND AS FAR AS THEY ARE CERTAIN,
 THEY DO NOT REFER TO REALITY.

                                         -- ALBERT EINSTEIN
 Job cpu time:  0 days  0 hours  1 minutes  0.6 seconds.
 File lengths (MBytes):  RWF=     28 Int=      0 D2E=      0 Chk=     10 Scr=      1
 Normal termination of Gaussian 03 at Fri Jun 12 17:48:22 2015.
