 Entering Gaussian System, Link 0=/home/timn/tmp/g03.e01/g03
 Input=mol_17.25.9.pdbcccc_plusQ.z58367.zip.xyz.gjf
 Output=mol_17.25.9.pdbcccc_plusQ.z58367.zip.xyz.out
 Initial command:
 /home/timn/tmp/g03.e01/l1.exe /home/timn/tmp/g03.e01/Gau-20320.inp -scrdir=/home/timn/tmp/g03.e01/
 Default is to use a total of   2 processors:
                                2 via shared-memory
                                1 via Linda
 Entering Link 1 = /home/timn/tmp/g03.e01/l1.exe PID=     20321.
  
 Copyright (c) 1988,1990,1992,1993,1995,1998,2003,2004,2007, Gaussian, Inc.
                  All Rights Reserved.
  
 This is the Gaussian(R) 03 program.  It is based on the
 the Gaussian(R) 98 system (copyright 1998, Gaussian, Inc.),
 the Gaussian(R) 94 system (copyright 1995, Gaussian, Inc.),
 the Gaussian 92(TM) system (copyright 1992, Gaussian, Inc.),
 the Gaussian 90(TM) system (copyright 1990, Gaussian, Inc.),
 the Gaussian 88(TM) system (copyright 1988, Gaussian, Inc.),
 the Gaussian 86(TM) system (copyright 1986, Carnegie Mellon
 University), and the Gaussian 82(TM) system (copyright 1983,
 Carnegie Mellon University). Gaussian is a federally registered
 trademark of Gaussian, Inc.
  
 This software contains proprietary and confidential information,
 including trade secrets, belonging to Gaussian, Inc.
  
 This software is provided under written license and may be
 used, copied, transmitted, or stored only in accord with that
 written license.
  
 The following legend is applicable only to US Government
 contracts under FAR:
  
                    RESTRICTED RIGHTS LEGEND
  
 Use, reproduction and disclosure by the US Government is
 subject to restrictions as set forth in subparagraphs (a)
 and (c) of the Commercial Computer Software - Restricted
 Rights clause in FAR 52.227-19.
  
 Gaussian, Inc.
 340 Quinnipiac St., Bldg. 40, Wallingford CT 06492
  
  
 ---------------------------------------------------------------
 Warning -- This program may not be used in any manner that
 competes with the business of Gaussian, Inc. or will provide
 assistance to any competitor of Gaussian, Inc.  The licensee
 of this program is prohibited from giving any competitor of
 Gaussian, Inc. access to this program.  By using this program,
 the user acknowledges that Gaussian, Inc. is engaged in the
 business of creating and licensing software in the field of
 computational chemistry and represents and warrants to the
 licensee that it is not a competitor of Gaussian, Inc. and that
 it will not use this program in any manner prohibited above.
 ---------------------------------------------------------------
  

 Cite this work as:
 Gaussian 03, Revision E.01,
 M. J. Frisch, G. W. Trucks, H. B. Schlegel, G. E. Scuseria, 
 M. A. Robb, J. R. Cheeseman, J. A. Montgomery, Jr., T. Vreven, 
 K. N. Kudin, J. C. Burant, J. M. Millam, S. S. Iyengar, J. Tomasi, 
 V. Barone, B. Mennucci, M. Cossi, G. Scalmani, N. Rega, 
 G. A. Petersson, H. Nakatsuji, M. Hada, M. Ehara, K. Toyota, 
 R. Fukuda, J. Hasegawa, M. Ishida, T. Nakajima, Y. Honda, O. Kitao, 
 H. Nakai, M. Klene, X. Li, J. E. Knox, H. P. Hratchian, J. B. Cross, 
 V. Bakken, C. Adamo, J. Jaramillo, R. Gomperts, R. E. Stratmann, 
 O. Yazyev, A. J. Austin, R. Cammi, C. Pomelli, J. W. Ochterski, 
 P. Y. Ayala, K. Morokuma, G. A. Voth, P. Salvador, J. J. Dannenberg, 
 V. G. Zakrzewski, S. Dapprich, A. D. Daniels, M. C. Strain, 
 O. Farkas, D. K. Malick, A. D. Rabuck, K. Raghavachari, 
 J. B. Foresman, J. V. Ortiz, Q. Cui, A. G. Baboul, S. Clifford, 
 J. Cioslowski, B. B. Stefanov, G. Liu, A. Liashenko, P. Piskorz, 
 I. Komaromi, R. L. Martin, D. J. Fox, T. Keith, M. A. Al-Laham, 
 C. Y. Peng, A. Nanayakkara, M. Challacombe, P. M. W. Gill, 
 B. Johnson, W. Chen, M. W. Wong, C. Gonzalez, and J. A. Pople, 
 Gaussian, Inc., Wallingford CT, 2004.
 
 ******************************************
 Gaussian 03:  EM64T-G03RevE.01 11-Sep-2007
                12-Jun-2015 
 ******************************************
 %nproc=2
 Will use up to    2 processors via shared memory.
 Default route:  MP2=Direct MaxDisk=2000MB
 ----------------------------------------------------
 # b3lyp/6-31+G(d,p) int=ultrafine pop=(ReadRadii,MK)
 ----------------------------------------------------

 Warning!  SCF SP cutoffs with diffuse functions may be unreliable.
 Consider SCF=Tight

 1/38=1/1;
 2/17=6,18=5,40=1/2;
 3/5=1,6=6,7=111,11=2,16=1,25=1,30=1,74=-5,75=5/1,2,3;
 4//1;
 5/5=2,32=1,38=5/2;
 6/7=2,8=2,9=2,10=2,15=8,20=101,28=1/1,2;
 99/5=1,9=1/99;
 ----------------------------------------
 mol_17.25.9.pdbcccc_plusQ.z58367.zip.xyz
 ----------------------------------------
 Symbolic Z-matrix:
 Charge =  1 Multiplicity = 1
 O                     0.68044  -1.56073   0.33823 
 O                     0.65898   0.70698   1.42218 
 P                     0.02175  -0.80306   1.65752 
 Ca                    2.1644    0.11859  -0.25524 
 O                    -1.62611  -0.61804   1.21783 
 O                    -2.06175   0.06316  -0.0797 
 O                     0.50914   0.75687  -1.58326 
 Ca                   -0.71311   1.89711  -0.04106 
 Ca                   -0.73188  -1.15271  -1.47295 
 
                          Input orientation:                          
 ---------------------------------------------------------------------
 Center     Atomic     Atomic              Coordinates (Angstroms)
 Number     Number      Type              X           Y           Z
 ---------------------------------------------------------------------
    1          8             0        0.680440   -1.560730    0.338230
    2          8             0        0.658980    0.706980    1.422180
    3         15             0        0.021750   -0.803060    1.657520
    4         20             0        2.164400    0.118590   -0.255240
    5          8             0       -1.626110   -0.618040    1.217830
    6          8             0       -2.061750    0.063160   -0.079700
    7          8             0        0.509140    0.756870   -1.583260
    8         20             0       -0.713110    1.897110   -0.041060
    9         20             0       -0.731880   -1.152710   -1.472950
 ---------------------------------------------------------------------
                    Distance matrix (angstroms):
                    1          2          3          4          5
     1  O    0.000000
     2  O    2.513547   0.000000
     3  P    1.657849   1.655798   0.000000
     4  Ca   2.318288   2.329427   3.016461   0.000000
     5  O    2.642448   2.649353   1.715518   4.132859   0.000000
     6  O    3.214232   3.173723   2.847673   4.230157   1.528856
     7  O    3.015417   3.009586   3.629543   2.216061   3.780975
     8  Ca   3.747332   2.332405   3.273547   3.389553   2.957085
     9  Ca   2.332703   3.711430   3.238836   3.389315   2.885449
                    6          7          8          9
     6  O    0.000000
     7  O    3.058006   0.000000
     8  Ca   2.276773   2.274296   0.000000
     9  Ca   2.277727   2.280087   3.369282   0.000000
 Stoichiometry    Ca3O5P(1+)
 Framework group  C1[X(Ca3O5P)]
 Deg. of freedom    21
 Full point group                 C1
 Largest Abelian subgroup         C1      NOp   1
 Largest concise Abelian subgroup C1      NOp   1
                         Standard orientation:                         
 ---------------------------------------------------------------------
 Center     Atomic     Atomic              Coordinates (Angstroms)
 Number     Number      Type              X           Y           Z
 ---------------------------------------------------------------------
    1          8             0        0.680449   -1.560724    0.338230
    2          8             0        0.658975    0.706986    1.422180
    3         15             0        0.021754   -0.803058    1.657520
    4         20             0        2.164399    0.118605   -0.255240
    5          8             0       -1.626107   -0.618048    1.217830
    6          8             0       -2.061751    0.063149   -0.079700
    7          8             0        0.509135    0.756875   -1.583260
    8         20             0       -0.713122    1.897107   -0.041060
    9         20             0       -0.731873   -1.152713   -1.472950
 ---------------------------------------------------------------------
 Rotational constants (GHZ):      0.9150281      0.8021243      0.7924645
 Standard basis: 6-31+G(d,p) (6D, 7F)
 There are   199 symmetry adapted basis functions of A   symmetry.
 Integral buffers will be    131072 words long.
 Raffenetti 2 integral format.
 Two-electron integral symmetry is turned on.
   199 basis functions,   456 primitive gaussians,   199 cartesian basis functions
    57 alpha electrons       57 beta electrons
       nuclear repulsion energy      1092.5602463695 Hartrees.
 NAtoms=    9 NActive=    9 NUniq=    9 SFac= 7.50D-01 NAtFMM=   80 NAOKFM=F Big=F
 One-electron integrals computed using PRISM.
 NBasis=   199 RedAO= T  NBF=   199
 NBsUse=   199 1.00D-06 NBFU=   199
 Harris functional with IExCor=  402 diagonalized for initial guess.
 ExpMin= 7.10D-03 ExpMax= 3.53D+04 ExpMxC= 5.30D+03 IAcc=3 IRadAn=         5 AccDes= 0.00D+00
 HarFok:  IExCor= 402 AccDes= 0.00D+00 IRadAn=         5 IDoV=1
 ScaDFX=  1.000000  1.000000  1.000000  1.000000
 Initial guess orbital symmetries:
       Occupied  (A) (A) (A) (A) (A) (A) (A) (A) (A) (A) (A) (A)
                 (A) (A) (A) (A) (A) (A) (A) (A) (A) (A) (A) (A)
                 (A) (A) (A) (A) (A) (A) (A) (A) (A) (A) (A) (A)
                 (A) (A) (A) (A) (A) (A) (A) (A) (A) (A) (A) (A)
                 (A) (A) (A) (A) (A) (A) (A) (A) (A)
       Virtual   (A) (A) (A) (A) (A) (A) (A) (A) (A) (A) (A) (A)
                 (A) (A) (A) (A) (A) (A) (A) (A) (A) (A) (A) (A)
                 (A) (A) (A) (A) (A) (A) (A) (A) (A) (A) (A) (A)
                 (A) (A) (A) (A) (A) (A) (A) (A) (A) (A) (A) (A)
                 (A) (A) (A) (A) (A) (A) (A) (A) (A) (A) (A) (A)
                 (A) (A) (A) (A) (A) (A) (A) (A) (A) (A) (A) (A)
                 (A) (A) (A) (A) (A) (A) (A) (A) (A) (A) (A) (A)
                 (A) (A) (A) (A) (A) (A) (A) (A) (A) (A) (A) (A)
                 (A) (A) (A) (A) (A) (A) (A) (A) (A) (A) (A) (A)
                 (A) (A) (A) (A) (A) (A) (A) (A) (A) (A) (A) (A)
                 (A) (A) (A) (A) (A) (A) (A) (A) (A) (A) (A) (A)
                 (A) (A) (A) (A) (A) (A) (A) (A) (A) (A)
 The electronic state of the initial guess is 1-A.
 Requested convergence on RMS density matrix=1.00D-04 within 128 cycles.
 Requested convergence on MAX density matrix=1.00D-02.
 Requested convergence on             energy=1.00D-02.
 No special actions if energy rises.
 SCF Done:  E(RB+HF-LYP) =  -2750.21031238     A.U. after    9 cycles
             Convg  =    0.5264D-04             -V/T =  2.0029
             S**2   =   0.0000

 **********************************************************************

            Population analysis using the SCF density.

 **********************************************************************

 Orbital symmetries:
       Occupied  (A) (A) (A) (A) (A) (A) (A) (A) (A) (A) (A) (A)
                 (A) (A) (A) (A) (A) (A) (A) (A) (A) (A) (A) (A)
                 (A) (A) (A) (A) (A) (A) (A) (A) (A) (A) (A) (A)
                 (A) (A) (A) (A) (A) (A) (A) (A) (A) (A) (A) (A)
                 (A) (A) (A) (A) (A) (A) (A) (A) (A)
       Virtual   (A) (A) (A) (A) (A) (A) (A) (A) (A) (A) (A) (A)
                 (A) (A) (A) (A) (A) (A) (A) (A) (A) (A) (A) (A)
                 (A) (A) (A) (A) (A) (A) (A) (A) (A) (A) (A) (A)
                 (A) (A) (A) (A) (A) (A) (A) (A) (A) (A) (A) (A)
                 (A) (A) (A) (A) (A) (A) (A) (A) (A) (A) (A) (A)
                 (A) (A) (A) (A) (A) (A) (A) (A) (A) (A) (A) (A)
                 (A) (A) (A) (A) (A) (A) (A) (A) (A) (A) (A) (A)
                 (A) (A) (A) (A) (A) (A) (A) (A) (A) (A) (A) (A)
                 (A) (A) (A) (A) (A) (A) (A) (A) (A) (A) (A) (A)
                 (A) (A) (A) (A) (A) (A) (A) (A) (A) (A) (A) (A)
                 (A) (A) (A) (A) (A) (A) (A) (A) (A) (A) (A) (A)
                 (A) (A) (A) (A) (A) (A) (A) (A) (A) (A)
 The electronic state is 1-A.
 Alpha  occ. eigenvalues -- -145.50869-145.50011-145.49985 -77.26407 -19.28789
 Alpha  occ. eigenvalues --  -19.25450 -19.22793 -19.22690 -19.16532 -15.57703
 Alpha  occ. eigenvalues --  -15.56827 -15.56796 -12.70909 -12.70875 -12.70828
 Alpha  occ. eigenvalues --  -12.70025 -12.70001 -12.69999 -12.69972 -12.69967
 Alpha  occ. eigenvalues --  -12.69944  -6.71540  -4.87957  -4.87832  -4.87310
 Alpha  occ. eigenvalues --   -1.95005  -1.94101  -1.94033  -1.23098  -1.22756
 Alpha  occ. eigenvalues --   -1.22394  -1.22257  -1.21620  -1.21581  -1.21365
 Alpha  occ. eigenvalues --   -1.21285  -1.20981  -1.13461  -1.06782  -1.02145
 Alpha  occ. eigenvalues --   -0.93478  -0.91494  -0.64963  -0.55628  -0.52514
 Alpha  occ. eigenvalues --   -0.51436  -0.48129  -0.46905  -0.43999  -0.42054
 Alpha  occ. eigenvalues --   -0.39350  -0.38430  -0.36829  -0.35958  -0.35730
 Alpha  occ. eigenvalues --   -0.35286  -0.32565
 Alpha virt. eigenvalues --   -0.20680  -0.18348  -0.17791  -0.13822  -0.12896
 Alpha virt. eigenvalues --   -0.11289  -0.10837  -0.09448  -0.09243  -0.08194
 Alpha virt. eigenvalues --   -0.07382  -0.06429  -0.06174  -0.05876  -0.04921
 Alpha virt. eigenvalues --   -0.04846  -0.04833  -0.04715  -0.04367  -0.04012
 Alpha virt. eigenvalues --   -0.03932  -0.03677  -0.03233  -0.03044  -0.02628
 Alpha virt. eigenvalues --   -0.01971  -0.01904  -0.00626   0.01050   0.01744
 Alpha virt. eigenvalues --    0.01822   0.02583   0.03710   0.04010   0.04426
 Alpha virt. eigenvalues --    0.05341   0.05886   0.06011   0.06126   0.06246
 Alpha virt. eigenvalues --    0.06923   0.07127   0.07198   0.07476   0.08019
 Alpha virt. eigenvalues --    0.09603   0.09858   0.10573   0.10720   0.11507
 Alpha virt. eigenvalues --    0.12598   0.14099   0.15002   0.15621   0.16958
 Alpha virt. eigenvalues --    0.19386   0.20506   0.20823   0.21252   0.22533
 Alpha virt. eigenvalues --    0.23396   0.23838   0.24478   0.25329   0.26134
 Alpha virt. eigenvalues --    0.27628   0.30189   0.32457   0.32800   0.34329
 Alpha virt. eigenvalues --    0.34581   0.35414   0.36554   0.38407   0.38817
 Alpha virt. eigenvalues --    0.38939   0.42844   0.43688   0.46670   0.51170
 Alpha virt. eigenvalues --    0.53802   0.60042   0.61974   0.62305   0.65620
 Alpha virt. eigenvalues --    0.79185   0.86419   0.87172   0.92106   0.95231
 Alpha virt. eigenvalues --    1.10573   1.12084   1.13818   1.15032   1.16242
 Alpha virt. eigenvalues --    1.18857   1.19006   1.20710   1.21363   1.23013
 Alpha virt. eigenvalues --    1.23641   1.25021   1.26549   1.32058   1.32273
 Alpha virt. eigenvalues --    1.38131   1.49562   1.51843   1.55763   1.57915
 Alpha virt. eigenvalues --    1.61572   1.67752   1.69622   1.70127   1.71730
 Alpha virt. eigenvalues --    1.76409   1.78236   1.79780   1.84639   1.85889
 Alpha virt. eigenvalues --    1.87803   1.88860   1.90893   1.92830   1.93553
 Alpha virt. eigenvalues --    1.95966   1.96680   1.99289   2.01937   2.09607
 Alpha virt. eigenvalues --    2.17070   2.20281   2.36270   2.52218   2.57312
 Alpha virt. eigenvalues --    3.06207   3.51604   4.01787   4.10399   4.14243
 Alpha virt. eigenvalues --    4.21420   4.38365
          Condensed to atoms (all electrons):
              1          2          3          4          5          6
     1  O    8.963426   0.031323  -0.141789   0.093164   0.024410   0.010878
     2  O    0.031323   8.964031  -0.135888   0.092798   0.026395   0.007661
     3  P   -0.141789  -0.135888  14.385828  -0.065249  -0.153245   0.040506
     4  Ca   0.093164   0.092798  -0.065249  18.399863   0.062756  -0.023386
     5  O    0.024410   0.026395  -0.153245   0.062756   8.637012  -0.087333
     6  O    0.010878   0.007661   0.040506  -0.023386  -0.087333   8.473254
     7  O    0.021291   0.019538  -0.024363   0.143547  -0.011990   0.023653
     8  Ca   0.005475   0.036532   0.016879  -0.059299  -0.027523   0.104810
     9  Ca   0.039603   0.005210   0.022745  -0.061347  -0.024132   0.103225
              7          8          9
     1  O    0.021291   0.005475   0.039603
     2  O    0.019538   0.036532   0.005210
     3  P   -0.024363   0.016879   0.022745
     4  Ca   0.143547  -0.059299  -0.061347
     5  O   -0.011990  -0.027523  -0.024132
     6  O    0.023653   0.104810   0.103225
     7  O    8.843807   0.118971   0.116805
     8  Ca   0.118971  18.353121  -0.038890
     9  Ca   0.116805  -0.038890  18.352177
 Mulliken atomic charges:
              1
     1  O   -1.047781
     2  O   -1.047601
     3  P    1.054574
     4  Ca   1.417153
     5  O   -0.446350
     6  O   -0.653267
     7  O   -1.251258
     8  Ca   1.489925
     9  Ca   1.484605
 Sum of Mulliken charges=   1.00000
 Atomic charges with hydrogens summed into heavy atoms:
              1
     1  O   -1.047781
     2  O   -1.047601
     3  P    1.054574
     4  Ca   1.417153
     5  O   -0.446350
     6  O   -0.653267
     7  O   -1.251258
     8  Ca   1.489925
     9  Ca   1.484605
 Sum of Mulliken charges=   1.00000
 Electronic spatial extent (au):  <R**2>=  1758.1215
 Charge=     1.0000 electrons
 Dipole moment (field-independent basis, Debye):
    X=     5.1509    Y=     3.6910    Z=    -7.3972  Tot=     9.7404
 Quadrupole moment (field-independent basis, Debye-Ang):
   XX=   -52.7387   YY=   -51.1602   ZZ=   -81.7849
   XY=    -3.5375   XZ=     8.0683   YZ=    18.5840
 Traceless Quadrupole moment (field-independent basis, Debye-Ang):
   XX=     9.1559   YY=    10.7344   ZZ=   -19.8903
   XY=    -3.5375   XZ=     8.0683   YZ=    18.5840
 Octapole moment (field-independent basis, Debye-Ang**2):
  XXX=   118.7788  YYY=    67.5474  ZZZ=   -36.7850  XYY=   -38.3543
  XXY=    12.8420  XXZ=   -27.5553  XZZ=   -21.8937  YZZ=   -34.5411
  YYZ=   -26.1497  XYZ=   -10.0339
 Hexadecapole moment (field-independent basis, Debye-Ang**3):
 XXXX=  -581.7373 YYYY=  -455.3013 ZZZZ=  -719.5808 XXXY=    -0.1234
 XXXZ=     2.8656 YYYX=   -30.3539 YYYZ=    70.7244 ZZZX=    48.4507
 ZZZY=    99.9346 XXYY=  -195.6577 XXZZ=  -231.5452 YYZZ=  -200.9007
 XXYZ=    24.9837 YYXZ=    18.9207 ZZXY=    -1.4634
 N-N= 1.092560246369D+03 E-N=-8.686008652602D+03  KE= 2.742213766941D+03
 Merz-Kollman atomic radii used.
 Read replacement radii for each type of atom:
 Rad(20) =   1.188000000000D+00
 Atom Element Radius
    1     8    1.40
    2     8    1.40
    3    15    1.80
    4    20    1.19
    5     8    1.40
    6     8    1.40
    7     8    1.40
    8    20    1.19
    9    20    1.19

 **********************************************************************

            Electrostatic Properties Using The SCF Density

 **********************************************************************

       Atomic Center    1 is at   0.680449 -1.560724  0.338230
       Atomic Center    2 is at   0.658975  0.706986  1.422180
       Atomic Center    3 is at   0.021754 -0.803058  1.657520
       Atomic Center    4 is at   2.164399  0.118605 -0.255240
       Atomic Center    5 is at  -1.626107 -0.618048  1.217830
       Atomic Center    6 is at  -2.061751  0.063149 -0.079700
       Atomic Center    7 is at   0.509135  0.756875 -1.583260
       Atomic Center    8 is at  -0.713122  1.897107 -0.041060
       Atomic Center    9 is at  -0.731873 -1.152713 -1.472950
     725 points will be used for fitting atomic charges
 Fitting point charges to eletrostatic potential
 Charges from ESP fit, RMS=   0.00497 RRMS=   0.03098:
 Charge=   1.00000 Dipole=     5.1820     3.7342    -7.5013 Tot=     9.8522
              1
     1  O   -0.920580
     2  O   -0.910503
     3  P    0.411306
     4  Ca   1.668152
     5  O   -0.237879
     6  O   -0.764530
     7  O   -1.631974
     8  Ca   1.690719
     9  Ca   1.695289
 -----------------------------------------------------------------

              Electrostatic Properties (Atomic Units)

 -----------------------------------------------------------------
    Center     Electric         -------- Electric Field --------
               Potential          X             Y             Z
 -----------------------------------------------------------------
    1 Atom    -22.235613
    2 Atom    -22.234781
    3 Atom    -53.950251
    4 Atom    -80.032275
    5 Atom    -22.185484
    6 Atom    -22.215204
    7 Atom    -22.298181
    8 Atom    -80.040783
    9 Atom    -80.040957
 -----------------------------------------------------------------
 1\1\GINC-N022\SP\RB3LYP\6-31+G(d,p)\Ca3O5P1(1+)\TIMN\12-Jun-2015\0\\# 
 b3lyp/6-31+G(d,p) int=ultrafine pop=(ReadRadii,MK)\\mol_17.25.9.pdbccc
 c_plusQ.z58367.zip.xyz\\1,1\O,0,0.68044,-1.56073,0.33823\O,0,0.65898,0
 .70698,1.42218\P,0,0.02175,-0.80306,1.65752\Ca,0,2.1644,0.11859,-0.255
 24\O,0,-1.62611,-0.61804,1.21783\O,0,-2.06175,0.06316,-0.0797\O,0,0.50
 914,0.75687,-1.58326\Ca,0,-0.71311,1.89711,-0.04106\Ca,0,-0.73188,-1.1
 5271,-1.47295\\Version=EM64T-G03RevE.01\State=1-A\HF=-2750.2103124\RMS
 D=5.264e-05\Thermal=0.\Dipole=2.0265363,1.4521492,-2.9102905\PG=C01 [X
 (Ca3O5P1)]\\@


 I KNOW YOU BELIEVE YOU UNDERSTAND WHAT YOU THINK I SAID,
 BUT I AM NOT SURE YOU REALIZE THAT WHAT YOU HEARD IS NOT WHAT I MEANT.
 Job cpu time:  0 days  0 hours  2 minutes 28.4 seconds.
 File lengths (MBytes):  RWF=     36 Int=      0 D2E=      0 Chk=     11 Scr=      1
 Normal termination of Gaussian 03 at Fri Jun 12 17:59:49 2015.
