 Entering Gaussian System, Link 0=/home/timn/tmp/g03.e01/g03
 Input=mol_17.23.5.pdbcc_plusQ.z58260.zip.xyz.gjf
 Output=mol_17.23.5.pdbcc_plusQ.z58260.zip.xyz.out
 Initial command:
 /home/timn/tmp/g03.e01/l1.exe /home/timn/tmp/g03.e01/Gau-19941.inp -scrdir=/home/timn/tmp/g03.e01/
 Default is to use a total of   2 processors:
                                2 via shared-memory
                                1 via Linda
 Entering Link 1 = /home/timn/tmp/g03.e01/l1.exe PID=     19942.
  
 Copyright (c) 1988,1990,1992,1993,1995,1998,2003,2004,2007, Gaussian, Inc.
                  All Rights Reserved.
  
 This is the Gaussian(R) 03 program.  It is based on the
 the Gaussian(R) 98 system (copyright 1998, Gaussian, Inc.),
 the Gaussian(R) 94 system (copyright 1995, Gaussian, Inc.),
 the Gaussian 92(TM) system (copyright 1992, Gaussian, Inc.),
 the Gaussian 90(TM) system (copyright 1990, Gaussian, Inc.),
 the Gaussian 88(TM) system (copyright 1988, Gaussian, Inc.),
 the Gaussian 86(TM) system (copyright 1986, Carnegie Mellon
 University), and the Gaussian 82(TM) system (copyright 1983,
 Carnegie Mellon University). Gaussian is a federally registered
 trademark of Gaussian, Inc.
  
 This software contains proprietary and confidential information,
 including trade secrets, belonging to Gaussian, Inc.
  
 This software is provided under written license and may be
 used, copied, transmitted, or stored only in accord with that
 written license.
  
 The following legend is applicable only to US Government
 contracts under FAR:
  
                    RESTRICTED RIGHTS LEGEND
  
 Use, reproduction and disclosure by the US Government is
 subject to restrictions as set forth in subparagraphs (a)
 and (c) of the Commercial Computer Software - Restricted
 Rights clause in FAR 52.227-19.
  
 Gaussian, Inc.
 340 Quinnipiac St., Bldg. 40, Wallingford CT 06492
  
  
 ---------------------------------------------------------------
 Warning -- This program may not be used in any manner that
 competes with the business of Gaussian, Inc. or will provide
 assistance to any competitor of Gaussian, Inc.  The licensee
 of this program is prohibited from giving any competitor of
 Gaussian, Inc. access to this program.  By using this program,
 the user acknowledges that Gaussian, Inc. is engaged in the
 business of creating and licensing software in the field of
 computational chemistry and represents and warrants to the
 licensee that it is not a competitor of Gaussian, Inc. and that
 it will not use this program in any manner prohibited above.
 ---------------------------------------------------------------
  

 Cite this work as:
 Gaussian 03, Revision E.01,
 M. J. Frisch, G. W. Trucks, H. B. Schlegel, G. E. Scuseria, 
 M. A. Robb, J. R. Cheeseman, J. A. Montgomery, Jr., T. Vreven, 
 K. N. Kudin, J. C. Burant, J. M. Millam, S. S. Iyengar, J. Tomasi, 
 V. Barone, B. Mennucci, M. Cossi, G. Scalmani, N. Rega, 
 G. A. Petersson, H. Nakatsuji, M. Hada, M. Ehara, K. Toyota, 
 R. Fukuda, J. Hasegawa, M. Ishida, T. Nakajima, Y. Honda, O. Kitao, 
 H. Nakai, M. Klene, X. Li, J. E. Knox, H. P. Hratchian, J. B. Cross, 
 V. Bakken, C. Adamo, J. Jaramillo, R. Gomperts, R. E. Stratmann, 
 O. Yazyev, A. J. Austin, R. Cammi, C. Pomelli, J. W. Ochterski, 
 P. Y. Ayala, K. Morokuma, G. A. Voth, P. Salvador, J. J. Dannenberg, 
 V. G. Zakrzewski, S. Dapprich, A. D. Daniels, M. C. Strain, 
 O. Farkas, D. K. Malick, A. D. Rabuck, K. Raghavachari, 
 J. B. Foresman, J. V. Ortiz, Q. Cui, A. G. Baboul, S. Clifford, 
 J. Cioslowski, B. B. Stefanov, G. Liu, A. Liashenko, P. Piskorz, 
 I. Komaromi, R. L. Martin, D. J. Fox, T. Keith, M. A. Al-Laham, 
 C. Y. Peng, A. Nanayakkara, M. Challacombe, P. M. W. Gill, 
 B. Johnson, W. Chen, M. W. Wong, C. Gonzalez, and J. A. Pople, 
 Gaussian, Inc., Wallingford CT, 2004.
 
 ******************************************
 Gaussian 03:  EM64T-G03RevE.01 11-Sep-2007
                12-Jun-2015 
 ******************************************
 %nproc=2
 Will use up to    2 processors via shared memory.
 Default route:  MP2=Direct MaxDisk=2000MB
 ----------------------------------------------------
 # b3lyp/6-31+G(d,p) int=ultrafine pop=(ReadRadii,MK)
 ----------------------------------------------------

 Warning!  SCF SP cutoffs with diffuse functions may be unreliable.
 Consider SCF=Tight

 1/38=1/1;
 2/17=6,18=5,40=1/2;
 3/5=1,6=6,7=111,11=2,16=1,25=1,30=1,74=-5,75=5/1,2,3;
 4//1;
 5/5=2,32=1,38=5/2;
 6/7=2,8=2,9=2,10=2,15=8,20=101,28=1/1,2;
 99/5=1,9=1/99;
 --------------------------------------
 mol_17.23.5.pdbcc_plusQ.z58260.zip.xyz
 --------------------------------------
 Symbolic Z-matrix:
 Charge =  1 Multiplicity = 1
 O                    -2.44694   1.551     0. 
 O                    -1.69209  -1.06537   0. 
 Ca                   -0.2023   -2.89083   0. 
 O                     1.98742  -3.05723   0. 
 O                     1.57679  -1.59096   0. 
 P                    -1.43814   0.42639   0. 
 O                     0.        1.03444   0. 
 Ca                    2.26844   0.45145   0. 
 Ca                   -0.7576    3.37084   0. 
 
                          Input orientation:                          
 ---------------------------------------------------------------------
 Center     Atomic     Atomic              Coordinates (Angstroms)
 Number     Number      Type              X           Y           Z
 ---------------------------------------------------------------------
    1          8             0       -2.446940    1.551000    0.000000
    2          8             0       -1.692090   -1.065370    0.000000
    3         20             0       -0.202300   -2.890830    0.000000
    4          8             0        1.987420   -3.057230    0.000000
    5          8             0        1.576790   -1.590960    0.000000
    6         15             0       -1.438140    0.426390    0.000000
    7          8             0        0.000000    1.034440    0.000000
    8         20             0        2.268440    0.451450    0.000000
    9         20             0       -0.757600    3.370840    0.000000
 ---------------------------------------------------------------------
                    Distance matrix (angstroms):
                    1          2          3          4          5
     1  O    0.000000
     2  O    2.723085   0.000000
     3  Ca   4.976772   2.356221   0.000000
     4  O    6.395259   4.184053   2.196033   0.000000
     5  O    5.105126   3.310864   2.203366   1.522683   0.000000
     6  P    1.510770   1.513221   3.539950   4.885701   3.627603
     7  O    2.500870   2.696733   3.930480   4.548802   3.062514
     8  Ca   4.841882   4.241054   4.156368   3.519916   2.156344
     9  Ca   2.483080   4.533567   6.286244   6.989651   5.483506
                    6          7          8          9
     6  P    0.000000
     7  O    1.561400   0.000000
     8  Ca   3.706665   2.342157   0.000000
     9  Ca   3.022072   2.456160   4.204730   0.000000
 Stoichiometry    Ca3O5P(1+)
 Framework group  CS[SG(Ca3O5P)]
 Deg. of freedom    15
 Full point group                 CS
 Largest Abelian subgroup         CS      NOp   2
 Largest concise Abelian subgroup C1      NOp   1
                         Standard orientation:                         
 ---------------------------------------------------------------------
 Center     Atomic     Atomic              Coordinates (Angstroms)
 Number     Number      Type              X           Y           Z
 ---------------------------------------------------------------------
    1          8             0       -2.446939    1.551002    0.000000
    2          8             0       -1.692092   -1.065369    0.000000
    3         20             0       -0.202305   -2.890831    0.000000
    4          8             0        1.987415   -3.057233    0.000000
    5          8             0        1.576787   -1.590963    0.000000
    6         15             0       -1.438141    0.426391    0.000000
    7          8             0        0.000000    1.034439    0.000000
    8         20             0        2.268439    0.451447    0.000000
    9         20             0       -0.757597    3.370840    0.000000
 ---------------------------------------------------------------------
 Rotational constants (GHZ):      1.1103537      0.4397765      0.3150106
 Standard basis: 6-31+G(d,p) (6D, 7F)
 There are   147 symmetry adapted basis functions of A'  symmetry.
 There are    52 symmetry adapted basis functions of A"  symmetry.
 Integral buffers will be    131072 words long.
 Raffenetti 2 integral format.
 Two-electron integral symmetry is turned on.
   199 basis functions,   456 primitive gaussians,   199 cartesian basis functions
    57 alpha electrons       57 beta electrons
       nuclear repulsion energy       943.0413249579 Hartrees.
 NAtoms=    9 NActive=    9 NUniq=    9 SFac= 7.50D-01 NAtFMM=   80 NAOKFM=F Big=F
 One-electron integrals computed using PRISM.
 NBasis=   199 RedAO= T  NBF=   147    52
 NBsUse=   199 1.00D-06 NBFU=   147    52
 Harris functional with IExCor=  402 diagonalized for initial guess.
 ExpMin= 7.10D-03 ExpMax= 3.53D+04 ExpMxC= 5.30D+03 IAcc=3 IRadAn=         5 AccDes= 0.00D+00
 HarFok:  IExCor= 402 AccDes= 0.00D+00 IRadAn=         5 IDoV=1
 ScaDFX=  1.000000  1.000000  1.000000  1.000000
 Initial guess orbital symmetries:
       Occupied  (A') (A') (A') (A') (A') (A') (A') (A') (A') (A')
                 (A') (A') (A') (A') (A") (A') (A') (A') (A") (A')
                 (A") (A') (A') (A') (A") (A') (A') (A') (A') (A')
                 (A') (A') (A') (A') (A") (A") (A") (A') (A') (A')
                 (A') (A') (A') (A') (A') (A') (A") (A') (A') (A")
                 (A') (A") (A") (A') (A') (A") (A')
       Virtual   (A') (A') (A") (A') (A') (A") (A') (A") (A') (A")
                 (A') (A') (A') (A') (A') (A') (A") (A') (A') (A")
                 (A") (A') (A') (A') (A') (A') (A') (A") (A') (A')
                 (A") (A') (A") (A') (A") (A') (A') (A') (A') (A")
                 (A") (A') (A") (A') (A') (A') (A') (A') (A") (A')
                 (A") (A') (A") (A') (A') (A") (A') (A') (A") (A')
                 (A') (A') (A') (A") (A') (A') (A") (A') (A') (A')
                 (A") (A') (A') (A') (A") (A') (A') (A') (A') (A")
                 (A') (A") (A') (A') (A') (A') (A') (A') (A') (A')
                 (A") (A') (A") (A") (A') (A") (A') (A') (A") (A')
                 (A') (A') (A') (A') (A') (A') (A') (A") (A') (A')
                 (A') (A') (A') (A") (A") (A") (A") (A') (A') (A')
                 (A") (A') (A") (A') (A') (A') (A") (A") (A') (A')
                 (A") (A') (A') (A') (A') (A') (A') (A') (A') (A')
                 (A') (A')
 The electronic state of the initial guess is 1-A'.
 Requested convergence on RMS density matrix=1.00D-04 within 128 cycles.
 Requested convergence on MAX density matrix=1.00D-02.
 Requested convergence on             energy=1.00D-02.
 No special actions if energy rises.
 Rare condition: small coef for last iteration:  0.000D+00
 EnCoef did   100 forward-backward iterations
 EnCoef did   100 forward-backward iterations
 EnCoef did   100 forward-backward iterations
 SCF Done:  E(RB+HF-LYP) =  -2750.09678941     A.U. after   15 cycles
             Convg  =    0.6965D-04             -V/T =  2.0029
             S**2   =   0.0000

 **********************************************************************

            Population analysis using the SCF density.

 **********************************************************************

 Orbital symmetries:
       Occupied  (A') (A') (A') (A') (A') (A') (A') (A') (A') (A')
                 (A') (A') (A") (A') (A') (A") (A') (A') (A") (A')
                 (A') (A') (A") (A') (A') (A') (A') (A') (A') (A")
                 (A') (A') (A") (A') (A") (A') (A') (A') (A') (A')
                 (A') (A') (A') (A') (A') (A") (A') (A') (A") (A")
                 (A') (A') (A') (A") (A') (A") (A')
       Virtual   (A') (A') (A') (A") (A") (A') (A") (A") (A') (A')
                 (A') (A') (A') (A') (A') (A") (A') (A") (A') (A')
                 (A") (A') (A") (A') (A') (A') (A') (A') (A') (A')
                 (A") (A') (A') (A") (A') (A') (A") (A") (A') (A")
                 (A') (A') (A") (A') (A') (A') (A") (A") (A') (A')
                 (A") (A') (A') (A') (A') (A") (A') (A') (A") (A')
                 (A") (A') (A') (A') (A') (A") (A') (A') (A') (A")
                 (A') (A') (A") (A') (A') (A') (A') (A') (A') (A")
                 (A") (A') (A') (A') (A') (A') (A') (A') (A') (A')
                 (A') (A") (A") (A") (A') (A") (A') (A') (A') (A")
                 (A') (A') (A') (A') (A') (A') (A') (A') (A') (A')
                 (A") (A') (A") (A') (A") (A") (A') (A") (A') (A')
                 (A") (A') (A') (A") (A") (A') (A') (A") (A') (A')
                 (A") (A') (A') (A') (A') (A') (A') (A') (A') (A')
                 (A') (A')
 The electronic state is 1-A'.
 Alpha  occ. eigenvalues -- -145.53519-145.52387-145.51076 -77.37441 -19.31338
 Alpha  occ. eigenvalues --  -19.31174 -19.29883 -19.22195 -19.19833 -15.60430
 Alpha  occ. eigenvalues --  -15.59228 -15.57931 -12.73629 -12.73587 -12.73554
 Alpha  occ. eigenvalues --  -12.72466 -12.72411 -12.72321 -12.71200 -12.71111
 Alpha  occ. eigenvalues --  -12.71006  -6.82303  -4.98799  -4.98530  -4.98436
 Alpha  occ. eigenvalues --   -1.97399  -1.96299  -1.95105  -1.25193  -1.24821
 Alpha  occ. eigenvalues --   -1.24588  -1.23987  -1.23957  -1.23555  -1.22933
 Alpha  occ. eigenvalues --   -1.22818  -1.22529  -1.18908  -1.12994  -1.11499
 Alpha  occ. eigenvalues --   -1.04987  -0.84110  -0.69616  -0.61293  -0.58642
 Alpha  occ. eigenvalues --   -0.57554  -0.53066  -0.50230  -0.49309  -0.47489
 Alpha  occ. eigenvalues --   -0.46362  -0.45543  -0.43255  -0.42187  -0.30529
 Alpha  occ. eigenvalues --   -0.28339  -0.26725
 Alpha virt. eigenvalues --   -0.20403  -0.19989  -0.17518  -0.17207  -0.14772
 Alpha virt. eigenvalues --   -0.13609  -0.11814  -0.11051  -0.10526  -0.09669
 Alpha virt. eigenvalues --   -0.08711  -0.08032  -0.07822  -0.07052  -0.06047
 Alpha virt. eigenvalues --   -0.05494  -0.05466  -0.05131  -0.04868  -0.04486
 Alpha virt. eigenvalues --   -0.04291  -0.04074  -0.03873  -0.03837  -0.03528
 Alpha virt. eigenvalues --   -0.03114  -0.02944  -0.02083  -0.01736   0.00015
 Alpha virt. eigenvalues --    0.01245   0.01324   0.01849   0.02413   0.02769
 Alpha virt. eigenvalues --    0.03017   0.03459   0.04152   0.04261   0.04962
 Alpha virt. eigenvalues --    0.05086   0.05711   0.06030   0.06429   0.06824
 Alpha virt. eigenvalues --    0.07969   0.07986   0.08211   0.08426   0.08946
 Alpha virt. eigenvalues --    0.09835   0.10697   0.11664   0.12832   0.13718
 Alpha virt. eigenvalues --    0.13992   0.15014   0.16277   0.17177   0.18905
 Alpha virt. eigenvalues --    0.19453   0.19551   0.20052   0.21409   0.23377
 Alpha virt. eigenvalues --    0.24000   0.25002   0.27247   0.28149   0.28260
 Alpha virt. eigenvalues --    0.29170   0.31767   0.35858   0.35942   0.36600
 Alpha virt. eigenvalues --    0.37854   0.39254   0.42588   0.48633   0.52211
 Alpha virt. eigenvalues --    0.52279   0.54564   0.55525   0.57479   0.69177
 Alpha virt. eigenvalues --    0.70452   0.80130   0.86644   0.89854   0.92358
 Alpha virt. eigenvalues --    0.96552   1.03022   1.05422   1.07247   1.08758
 Alpha virt. eigenvalues --    1.09580   1.11423   1.15482   1.15806   1.15877
 Alpha virt. eigenvalues --    1.16923   1.22277   1.22780   1.23966   1.27306
 Alpha virt. eigenvalues --    1.35789   1.38759   1.48134   1.49718   1.51863
 Alpha virt. eigenvalues --    1.52576   1.58752   1.63097   1.63188   1.63295
 Alpha virt. eigenvalues --    1.64748   1.66265   1.73261   1.74612   1.75076
 Alpha virt. eigenvalues --    1.77214   1.78441   1.85105   1.85105   1.86260
 Alpha virt. eigenvalues --    1.88646   1.93883   1.95362   2.07401   2.13799
 Alpha virt. eigenvalues --    2.25804   2.27290   2.52312   2.67117   2.71599
 Alpha virt. eigenvalues --    3.10732   3.36838   3.84968   3.88109   3.92657
 Alpha virt. eigenvalues --    4.03752   4.16234
          Condensed to atoms (all electrons):
              1          2          3          4          5          6
     1  O    8.883450  -0.021753  -0.006963   0.000085   0.002356  -0.239740
     2  O   -0.021753   9.139598   0.018948   0.000631   0.016141  -0.278363
     3  Ca  -0.006963   0.018948  18.283012   0.175741   0.069107   0.113732
     4  O    0.000085   0.000631   0.175741   8.493437  -0.032355  -0.010186
     5  O    0.002356   0.016141   0.069107  -0.032355   8.507811  -0.042299
     6  P   -0.239740  -0.278363   0.113732  -0.010186  -0.042299  15.198766
     7  O    0.089133  -0.062112  -0.067781  -0.000950   0.038251  -1.272254
     8  Ca  -0.019135  -0.023773   0.000132  -0.018817   0.128778   0.158175
     9  Ca  -0.114411  -0.030930   0.037052   0.001653  -0.005080   0.529173
              7          8          9
     1  O    0.089133  -0.019135  -0.114411
     2  O   -0.062112  -0.023773  -0.030930
     3  Ca  -0.067781   0.000132   0.037052
     4  O   -0.000950  -0.018817   0.001653
     5  O    0.038251   0.128778  -0.005080
     6  P   -1.272254   0.158175   0.529173
     7  O   10.198055  -0.054563  -0.293144
     8  Ca  -0.054563  18.459946   0.129930
     9  Ca  -0.293144   0.129930  19.007111
 Mulliken atomic charges:
              1
     1  O   -0.573022
     2  O   -0.758387
     3  Ca   1.377020
     4  O   -0.609238
     5  O   -0.682710
     6  P    0.842997
     7  O   -0.574634
     8  Ca   1.239327
     9  Ca   0.738647
 Sum of Mulliken charges=   1.00000
 Atomic charges with hydrogens summed into heavy atoms:
              1
     1  O   -0.573022
     2  O   -0.758387
     3  Ca   1.377020
     4  O   -0.609238
     5  O   -0.682710
     6  P    0.842997
     7  O   -0.574634
     8  Ca   1.239327
     9  Ca   0.738647
 Sum of Mulliken charges=   1.00000
 Electronic spatial extent (au):  <R**2>=  3011.1464
 Charge=     1.0000 electrons
 Dipole moment (field-independent basis, Debye):
    X=    -0.2520    Y=     2.4911    Z=     0.0000  Tot=     2.5038
 Quadrupole moment (field-independent basis, Debye-Ang):
   XX=   -80.6765   YY=   -35.8423   ZZ=   -83.1716
   XY=    20.6260   XZ=     0.0000   YZ=     0.0000
 Traceless Quadrupole moment (field-independent basis, Debye-Ang):
   XX=   -14.1130   YY=    30.7212   ZZ=   -16.6081
   XY=    20.6260   XZ=     0.0000   YZ=     0.0000
 Octapole moment (field-independent basis, Debye-Ang**2):
  XXX=    74.7351  YYY=   -40.3629  ZZZ=     0.0000  XYY=  -128.8387
  XXY=    34.0836  XXZ=     0.0000  XZZ=    -2.2854  YZZ=   -24.4139
  YYZ=     0.0000  XYZ=     0.0000
 Hexadecapole moment (field-independent basis, Debye-Ang**3):
 XXXX= -1227.1297 YYYY= -1808.3423 ZZZZ=  -153.1378 XXXY=   388.2233
 XXXZ=     0.0000 YYYX=   327.1828 YYYZ=     0.0000 ZZZX=     0.0000
 ZZZY=     0.0000 XXYY=  -768.3324 XXZZ=  -235.2403 YYZZ=  -443.9608
 XXYZ=     0.0000 YYXZ=     0.0000 ZZXY=    88.2711
 N-N= 9.430413249579D+02 E-N=-8.382648880325D+03  KE= 2.742092280805D+03
 Symmetry A'   KE= 2.475003308041D+03
 Symmetry A"   KE= 2.670889727639D+02
 Merz-Kollman atomic radii used.
 Read replacement radii for each type of atom:
 Rad(20) =   1.188000000000D+00
 Atom Element Radius
    1     8    1.40
    2     8    1.40
    3    20    1.19
    4     8    1.40
    5     8    1.40
    6    15    1.80
    7     8    1.40
    8    20    1.19
    9    20    1.19

 **********************************************************************

            Electrostatic Properties Using The SCF Density

 **********************************************************************

       Atomic Center    1 is at  -2.446939  1.551002  0.000000
       Atomic Center    2 is at  -1.692092 -1.065369  0.000000
       Atomic Center    3 is at  -0.202305 -2.890831  0.000000
       Atomic Center    4 is at   1.987415 -3.057233  0.000000
       Atomic Center    5 is at   1.576787 -1.590963  0.000000
       Atomic Center    6 is at  -1.438141  0.426391  0.000000
       Atomic Center    7 is at   0.000000  1.034439  0.000000
       Atomic Center    8 is at   2.268439  0.451447  0.000000
       Atomic Center    9 is at  -0.757597  3.370840  0.000000
     813 points will be used for fitting atomic charges
 Fitting point charges to eletrostatic potential
 Charges from ESP fit, RMS=   0.01949 RRMS=   0.12398:
 Charge=   1.00000 Dipole=     1.1510     6.5917     0.0000 Tot=     6.6915
              1
     1  O   -0.580994
     2  O   -0.843094
     3  Ca   1.641845
     4  O   -0.912251
     5  O   -0.393837
     6  P    1.327699
     7  O   -1.324201
     8  Ca   1.205017
     9  Ca   0.879816
 -----------------------------------------------------------------

              Electrostatic Properties (Atomic Units)

 -----------------------------------------------------------------
    Center     Electric         -------- Electric Field --------
               Potential          X             Y             Z
 -----------------------------------------------------------------
    1 Atom    -22.170534
    2 Atom    -22.154224
    3 Atom    -80.029546
    4 Atom    -22.273391
    5 Atom    -22.241502
    6 Atom    -53.833264
    7 Atom    -22.155377
    8 Atom    -80.016583
    9 Atom    -80.009221
 -----------------------------------------------------------------
 1\1\GINC-N022\SP\RB3LYP\6-31+G(d,p)\Ca3O5P1(1+)\TIMN\12-Jun-2015\0\\# 
 b3lyp/6-31+G(d,p) int=ultrafine pop=(ReadRadii,MK)\\mol_17.23.5.pdbcc_
 plusQ.z58260.zip.xyz\\1,1\O,0,-2.44694,1.551,0.\O,0,-1.69209,-1.06537,
 0.\Ca,0,-0.2023,-2.89083,0.\O,0,1.98742,-3.05723,0.\O,0,1.57679,-1.590
 96,0.\P,0,-1.43814,0.42639,0.\O,0,0.,1.03444,0.\Ca,0,2.26844,0.45145,0
 .\Ca,0,-0.7576,3.37084,0.\\Version=EM64T-G03RevE.01\State=1-A'\HF=-275
 0.0967894\RMSD=6.965e-05\Thermal=0.\Dipole=-0.0991279,0.9800767,0.\PG=
 CS [SG(Ca3O5P1)]\\@


 AS FAR AS THE LAWS OF MATHEMATICS REFER TO REALITY,
 THEY ARE NOT CERTAIN; AND AS FAR AS THEY ARE CERTAIN,
 THEY DO NOT REFER TO REALITY.

                                         -- ALBERT EINSTEIN
 Job cpu time:  0 days  0 hours  2 minutes 43.1 seconds.
 File lengths (MBytes):  RWF=     36 Int=      0 D2E=      0 Chk=     11 Scr=      1
 Normal termination of Gaussian 03 at Fri Jun 12 17:54:49 2015.
