 Entering Gaussian System, Link 0=/home/timn/tmp/g03.e01/g03
 Input=mol_17.28.39.pdbcc_plusQ.z58562.zip.xyz.gjf
 Output=mol_17.28.39.pdbcc_plusQ.z58562.zip.xyz.out
 Initial command:
 /home/timn/tmp/g03.e01/l1.exe /home/timn/tmp/g03.e01/Gau-13616.inp -scrdir=/home/timn/tmp/g03.e01/
 Default is to use a total of   2 processors:
                                2 via shared-memory
                                1 via Linda
 Entering Link 1 = /home/timn/tmp/g03.e01/l1.exe PID=     13617.
  
 Copyright (c) 1988,1990,1992,1993,1995,1998,2003,2004,2007, Gaussian, Inc.
                  All Rights Reserved.
  
 This is the Gaussian(R) 03 program.  It is based on the
 the Gaussian(R) 98 system (copyright 1998, Gaussian, Inc.),
 the Gaussian(R) 94 system (copyright 1995, Gaussian, Inc.),
 the Gaussian 92(TM) system (copyright 1992, Gaussian, Inc.),
 the Gaussian 90(TM) system (copyright 1990, Gaussian, Inc.),
 the Gaussian 88(TM) system (copyright 1988, Gaussian, Inc.),
 the Gaussian 86(TM) system (copyright 1986, Carnegie Mellon
 University), and the Gaussian 82(TM) system (copyright 1983,
 Carnegie Mellon University). Gaussian is a federally registered
 trademark of Gaussian, Inc.
  
 This software contains proprietary and confidential information,
 including trade secrets, belonging to Gaussian, Inc.
  
 This software is provided under written license and may be
 used, copied, transmitted, or stored only in accord with that
 written license.
  
 The following legend is applicable only to US Government
 contracts under FAR:
  
                    RESTRICTED RIGHTS LEGEND
  
 Use, reproduction and disclosure by the US Government is
 subject to restrictions as set forth in subparagraphs (a)
 and (c) of the Commercial Computer Software - Restricted
 Rights clause in FAR 52.227-19.
  
 Gaussian, Inc.
 340 Quinnipiac St., Bldg. 40, Wallingford CT 06492
  
  
 ---------------------------------------------------------------
 Warning -- This program may not be used in any manner that
 competes with the business of Gaussian, Inc. or will provide
 assistance to any competitor of Gaussian, Inc.  The licensee
 of this program is prohibited from giving any competitor of
 Gaussian, Inc. access to this program.  By using this program,
 the user acknowledges that Gaussian, Inc. is engaged in the
 business of creating and licensing software in the field of
 computational chemistry and represents and warrants to the
 licensee that it is not a competitor of Gaussian, Inc. and that
 it will not use this program in any manner prohibited above.
 ---------------------------------------------------------------
  

 Cite this work as:
 Gaussian 03, Revision E.01,
 M. J. Frisch, G. W. Trucks, H. B. Schlegel, G. E. Scuseria, 
 M. A. Robb, J. R. Cheeseman, J. A. Montgomery, Jr., T. Vreven, 
 K. N. Kudin, J. C. Burant, J. M. Millam, S. S. Iyengar, J. Tomasi, 
 V. Barone, B. Mennucci, M. Cossi, G. Scalmani, N. Rega, 
 G. A. Petersson, H. Nakatsuji, M. Hada, M. Ehara, K. Toyota, 
 R. Fukuda, J. Hasegawa, M. Ishida, T. Nakajima, Y. Honda, O. Kitao, 
 H. Nakai, M. Klene, X. Li, J. E. Knox, H. P. Hratchian, J. B. Cross, 
 V. Bakken, C. Adamo, J. Jaramillo, R. Gomperts, R. E. Stratmann, 
 O. Yazyev, A. J. Austin, R. Cammi, C. Pomelli, J. W. Ochterski, 
 P. Y. Ayala, K. Morokuma, G. A. Voth, P. Salvador, J. J. Dannenberg, 
 V. G. Zakrzewski, S. Dapprich, A. D. Daniels, M. C. Strain, 
 O. Farkas, D. K. Malick, A. D. Rabuck, K. Raghavachari, 
 J. B. Foresman, J. V. Ortiz, Q. Cui, A. G. Baboul, S. Clifford, 
 J. Cioslowski, B. B. Stefanov, G. Liu, A. Liashenko, P. Piskorz, 
 I. Komaromi, R. L. Martin, D. J. Fox, T. Keith, M. A. Al-Laham, 
 C. Y. Peng, A. Nanayakkara, M. Challacombe, P. M. W. Gill, 
 B. Johnson, W. Chen, M. W. Wong, C. Gonzalez, and J. A. Pople, 
 Gaussian, Inc., Wallingford CT, 2004.
 
 ******************************************
 Gaussian 03:  EM64T-G03RevE.01 11-Sep-2007
                12-Jun-2015 
 ******************************************
 %nproc=2
 Will use up to    2 processors via shared memory.
 Default route:  MP2=Direct MaxDisk=2000MB
 ----------------------------------------------------
 # b3lyp/6-31+G(d,p) int=ultrafine pop=(ReadRadii,MK)
 ----------------------------------------------------

 Warning!  SCF SP cutoffs with diffuse functions may be unreliable.
 Consider SCF=Tight

 1/38=1/1;
 2/17=6,18=5,40=1/2;
 3/5=1,6=6,7=111,11=2,16=1,25=1,30=1,74=-5,75=5/1,2,3;
 4//1;
 5/5=2,32=1,38=5/2;
 6/7=2,8=2,9=2,10=2,15=8,20=101,28=1/1,2;
 99/5=1,9=1/99;
 ---------------------------------------
 mol_17.28.39.pdbcc_plusQ.z58562.zip.xyz
 ---------------------------------------
 Symbolic Z-matrix:
 Charge =  1 Multiplicity = 1
 O                    -2.60236   0.37796   0.00004 
 O                    -1.50954  -1.92355   0.00014 
 P                    -2.84163  -1.14468  -0.00063 
 Ca                   -1.44336   2.34997   0.00041 
 Ca                    0.73137  -2.31823   0.0004 
 Ca                    2.41534   1.20575  -0.0004 
 O                     2.26277  -0.92556   0.78657 
 O                     2.26256  -0.92577  -0.78655 
 O                     0.65627   2.44947  -0.00005 
 
                          Input orientation:                          
 ---------------------------------------------------------------------
 Center     Atomic     Atomic              Coordinates (Angstroms)
 Number     Number      Type              X           Y           Z
 ---------------------------------------------------------------------
    1          8             0       -2.602360    0.377960    0.000040
    2          8             0       -1.509540   -1.923550    0.000140
    3         15             0       -2.841630   -1.144680   -0.000630
    4         20             0       -1.443360    2.349970    0.000410
    5         20             0        0.731370   -2.318230    0.000400
    6         20             0        2.415340    1.205750   -0.000400
    7          8             0        2.262770   -0.925560    0.786570
    8          8             0        2.262560   -0.925770   -0.786550
    9          8             0        0.656270    2.449470   -0.000050
 ---------------------------------------------------------------------
                    Distance matrix (angstroms):
                    1          2          3          4          5
     1  O    0.000000
     2  O    2.547784   0.000000
     3  P    1.541325   1.543082   0.000000
     4  Ca   2.287379   4.274032   3.764006   0.000000
     5  Ca   4.287563   2.275401   3.760791   5.149907   0.000000
     6  Ca   5.085524   5.019681   5.758494   4.024774   3.905661
     7  O    5.097772   3.980550   5.169390   5.008248   2.214222
     8  O    5.097635   3.980350   5.168979   5.008355   2.214222
     9  O    3.861324   4.879963   5.015298   2.101986   4.768291
                    6          7          8          9
     6  Ca   0.000000
     7  O    2.277077   0.000000
     8  O    2.277005   1.573120   0.000000
     9  O    2.154337   3.819744   3.819816   0.000000
 Stoichiometry    Ca3O5P(1+)
 Framework group  C1[X(Ca3O5P)]
 Deg. of freedom    21
 Full point group                 C1
 Largest Abelian subgroup         C1      NOp   1
 Largest concise Abelian subgroup C1      NOp   1
                         Standard orientation:                         
 ---------------------------------------------------------------------
 Center     Atomic     Atomic              Coordinates (Angstroms)
 Number     Number      Type              X           Y           Z
 ---------------------------------------------------------------------
    1          8             0       -2.602362    0.377955    0.000040
    2          8             0       -1.509538   -1.923553    0.000140
    3         15             0       -2.841629   -1.144685   -0.000630
    4         20             0       -1.443365    2.349967    0.000410
    5         20             0        0.731373   -2.318229    0.000400
    6         20             0        2.415337    1.205754   -0.000400
    7          8             0        2.262770   -0.925556    0.786570
    8          8             0        2.262560   -0.925766   -0.786550
    9          8             0        0.656264    2.449471   -0.000050
 ---------------------------------------------------------------------
 Rotational constants (GHZ):      0.6841352      0.5474661      0.3115291
 Standard basis: 6-31+G(d,p) (6D, 7F)
 There are   199 symmetry adapted basis functions of A   symmetry.
 Integral buffers will be    131072 words long.
 Raffenetti 2 integral format.
 Two-electron integral symmetry is turned on.
   199 basis functions,   456 primitive gaussians,   199 cartesian basis functions
    57 alpha electrons       57 beta electrons
       nuclear repulsion energy       907.2914695087 Hartrees.
 NAtoms=    9 NActive=    9 NUniq=    9 SFac= 7.50D-01 NAtFMM=   80 NAOKFM=F Big=F
 One-electron integrals computed using PRISM.
 NBasis=   199 RedAO= T  NBF=   199
 NBsUse=   199 1.00D-06 NBFU=   199
 Harris functional with IExCor=  402 diagonalized for initial guess.
 ExpMin= 7.10D-03 ExpMax= 3.53D+04 ExpMxC= 5.30D+03 IAcc=3 IRadAn=         5 AccDes= 0.00D+00
 HarFok:  IExCor= 402 AccDes= 0.00D+00 IRadAn=         5 IDoV=1
 ScaDFX=  1.000000  1.000000  1.000000  1.000000
 Initial guess orbital symmetries:
       Occupied  (A) (A) (A) (A) (A) (A) (A) (A) (A) (A) (A) (A)
                 (A) (A) (A) (A) (A) (A) (A) (A) (A) (A) (A) (A)
                 (A) (A) (A) (A) (A) (A) (A) (A) (A) (A) (A) (A)
                 (A) (A) (A) (A) (A) (A) (A) (A) (A) (A) (A) (A)
                 (A) (A) (A) (A) (A) (A) (A) (A) (A)
       Virtual   (A) (A) (A) (A) (A) (A) (A) (A) (A) (A) (A) (A)
                 (A) (A) (A) (A) (A) (A) (A) (A) (A) (A) (A) (A)
                 (A) (A) (A) (A) (A) (A) (A) (A) (A) (A) (A) (A)
                 (A) (A) (A) (A) (A) (A) (A) (A) (A) (A) (A) (A)
                 (A) (A) (A) (A) (A) (A) (A) (A) (A) (A) (A) (A)
                 (A) (A) (A) (A) (A) (A) (A) (A) (A) (A) (A) (A)
                 (A) (A) (A) (A) (A) (A) (A) (A) (A) (A) (A) (A)
                 (A) (A) (A) (A) (A) (A) (A) (A) (A) (A) (A) (A)
                 (A) (A) (A) (A) (A) (A) (A) (A) (A) (A) (A) (A)
                 (A) (A) (A) (A) (A) (A) (A) (A) (A) (A) (A) (A)
                 (A) (A) (A) (A) (A) (A) (A) (A) (A) (A) (A) (A)
                 (A) (A) (A) (A) (A) (A) (A) (A) (A) (A)
 The electronic state of the initial guess is 1-A.
 Requested convergence on RMS density matrix=1.00D-04 within 128 cycles.
 Requested convergence on MAX density matrix=1.00D-02.
 Requested convergence on             energy=1.00D-02.
 No special actions if energy rises.
 EnCoef did     3 forward-backward iterations
 SCF Done:  E(RB+HF-LYP) =  -2750.19710071     A.U. after    8 cycles
             Convg  =    0.5287D-04             -V/T =  2.0029
             S**2   =   0.0000

 **********************************************************************

            Population analysis using the SCF density.

 **********************************************************************

 Orbital symmetries:
       Occupied  (A) (A) (A) (A) (A) (A) (A) (A) (A) (A) (A) (A)
                 (A) (A) (A) (A) (A) (A) (A) (A) (A) (A) (A) (A)
                 (A) (A) (A) (A) (A) (A) (A) (A) (A) (A) (A) (A)
                 (A) (A) (A) (A) (A) (A) (A) (A) (A) (A) (A) (A)
                 (A) (A) (A) (A) (A) (A) (A) (A) (A)
       Virtual   (A) (A) (A) (A) (A) (A) (A) (A) (A) (A) (A) (A)
                 (A) (A) (A) (A) (A) (A) (A) (A) (A) (A) (A) (A)
                 (A) (A) (A) (A) (A) (A) (A) (A) (A) (A) (A) (A)
                 (A) (A) (A) (A) (A) (A) (A) (A) (A) (A) (A) (A)
                 (A) (A) (A) (A) (A) (A) (A) (A) (A) (A) (A) (A)
                 (A) (A) (A) (A) (A) (A) (A) (A) (A) (A) (A) (A)
                 (A) (A) (A) (A) (A) (A) (A) (A) (A) (A) (A) (A)
                 (A) (A) (A) (A) (A) (A) (A) (A) (A) (A) (A) (A)
                 (A) (A) (A) (A) (A) (A) (A) (A) (A) (A) (A) (A)
                 (A) (A) (A) (A) (A) (A) (A) (A) (A) (A) (A) (A)
                 (A) (A) (A) (A) (A) (A) (A) (A) (A) (A) (A) (A)
                 (A) (A) (A) (A) (A) (A) (A) (A) (A) (A)
 The electronic state is 1-A.
 Alpha  occ. eigenvalues -- -145.50252-145.49520-145.43945 -77.30077 -19.27868
 Alpha  occ. eigenvalues --  -19.27705 -19.22483 -19.22478 -19.12211 -15.57115
 Alpha  occ. eigenvalues --  -15.56422 -15.50919 -12.70352 -12.70332 -12.70185
 Alpha  occ. eigenvalues --  -12.69675 -12.69629 -12.69458 -12.64144 -12.64140
 Alpha  occ. eigenvalues --  -12.63954  -6.75553  -4.92000  -4.91778  -4.91332
 Alpha  occ. eigenvalues --   -1.94321  -1.93663  -1.88348  -1.22292  -1.22018
 Alpha  occ. eigenvalues --   -1.21919  -1.21519  -1.21390  -1.20570  -1.16520
 Alpha  occ. eigenvalues --   -1.16135  -1.15616  -1.13712  -1.08483  -1.04679
 Alpha  occ. eigenvalues --   -0.86290  -0.86243  -0.67764  -0.57326  -0.52570
 Alpha  occ. eigenvalues --   -0.52499  -0.45799  -0.45761  -0.44706  -0.43917
 Alpha  occ. eigenvalues --   -0.42963  -0.40394  -0.34042  -0.32609  -0.30971
 Alpha  occ. eigenvalues --   -0.30560  -0.30362
 Alpha virt. eigenvalues --   -0.19725  -0.18398  -0.17453  -0.14057  -0.12040
 Alpha virt. eigenvalues --   -0.10577  -0.10165  -0.08900  -0.08322  -0.08286
 Alpha virt. eigenvalues --   -0.07015  -0.06735  -0.06063  -0.06001  -0.05477
 Alpha virt. eigenvalues --   -0.04803  -0.04662  -0.04652  -0.04463  -0.04386
 Alpha virt. eigenvalues --   -0.04059  -0.03940  -0.03807  -0.03370  -0.02989
 Alpha virt. eigenvalues --   -0.02860  -0.02426  -0.02382  -0.02093  -0.01505
 Alpha virt. eigenvalues --    0.01134   0.02450   0.03484   0.03966   0.04623
 Alpha virt. eigenvalues --    0.04966   0.05178   0.05425   0.06684   0.06897
 Alpha virt. eigenvalues --    0.07570   0.08284   0.08560   0.08978   0.09592
 Alpha virt. eigenvalues --    0.09661   0.10225   0.11127   0.11869   0.12154
 Alpha virt. eigenvalues --    0.12189   0.13349   0.14894   0.15201   0.15805
 Alpha virt. eigenvalues --    0.15806   0.17028   0.17571   0.18837   0.20316
 Alpha virt. eigenvalues --    0.21129   0.21591   0.22342   0.24908   0.26081
 Alpha virt. eigenvalues --    0.27491   0.29237   0.29374   0.31957   0.32613
 Alpha virt. eigenvalues --    0.34069   0.35221   0.36792   0.38314   0.38630
 Alpha virt. eigenvalues --    0.39873   0.41012   0.42726   0.48102   0.48684
 Alpha virt. eigenvalues --    0.55386   0.57398   0.58843   0.63689   0.71253
 Alpha virt. eigenvalues --    0.76037   0.83523   0.88513   0.90230   0.92404
 Alpha virt. eigenvalues --    1.01082   1.06425   1.08360   1.09632   1.11132
 Alpha virt. eigenvalues --    1.13687   1.13871   1.16701   1.16980   1.18900
 Alpha virt. eigenvalues --    1.20344   1.23521   1.24871   1.27418   1.28191
 Alpha virt. eigenvalues --    1.33665   1.40201   1.41819   1.46658   1.50142
 Alpha virt. eigenvalues --    1.53279   1.57222   1.61916   1.65478   1.65630
 Alpha virt. eigenvalues --    1.68015   1.70912   1.74548   1.78131   1.82710
 Alpha virt. eigenvalues --    1.83847   1.85280   1.85480   1.86532   1.87565
 Alpha virt. eigenvalues --    1.88930   1.89275   1.92527   2.01653   2.04835
 Alpha virt. eigenvalues --    2.09659   2.19750   2.19998   2.53831   2.68526
 Alpha virt. eigenvalues --    3.03363   3.39982   3.82438   3.90604   3.95371
 Alpha virt. eigenvalues --    4.00186   4.07313
          Condensed to atoms (all electrons):
              1          2          3          4          5          6
     1  O    8.896582  -0.072083  -0.177737   0.059920   0.004137  -0.007326
     2  O   -0.072083   8.912565  -0.206047   0.006354   0.066524  -0.006342
     3  P   -0.177737  -0.206047  14.789359  -0.047237  -0.052499   0.045739
     4  Ca   0.059920   0.006354  -0.047237  18.281515   0.007284  -0.016428
     5  Ca   0.004137   0.066524  -0.052499   0.007284  18.254710  -0.022738
     6  Ca  -0.007326  -0.006342   0.045739  -0.016428  -0.022738  18.280177
     7  O    0.000112  -0.000194  -0.001298   0.002490   0.117623   0.080087
     8  O    0.000110  -0.000188  -0.001268   0.002463   0.117563   0.080133
     9  O    0.000078   0.001188  -0.003165   0.244883   0.009467   0.172592
              7          8          9
     1  O    0.000112   0.000110   0.000078
     2  O   -0.000194  -0.000188   0.001188
     3  P   -0.001298  -0.001268  -0.003165
     4  Ca   0.002490   0.002463   0.244883
     5  Ca   0.117623   0.117563   0.009467
     6  Ca   0.080087   0.080133   0.172592
     7  O    8.562928  -0.085151  -0.000328
     8  O   -0.085151   8.562945  -0.000332
     9  O   -0.000328  -0.000332   8.822451
 Mulliken atomic charges:
              1
     1  O   -0.703792
     2  O   -0.701776
     3  P    0.654153
     4  Ca   1.458756
     5  Ca   1.497931
     6  Ca   1.394107
     7  O   -0.676269
     8  O   -0.676275
     9  O   -1.246834
 Sum of Mulliken charges=   1.00000
 Atomic charges with hydrogens summed into heavy atoms:
              1
     1  O   -0.703792
     2  O   -0.701776
     3  P    0.654153
     4  Ca   1.458756
     5  Ca   1.497931
     6  Ca   1.394107
     7  O   -0.676269
     8  O   -0.676275
     9  O   -1.246834
 Sum of Mulliken charges=   1.00000
 Electronic spatial extent (au):  <R**2>=  3042.4834
 Charge=     1.0000 electrons
 Dipole moment (field-independent basis, Debye):
    X=    -1.9842    Y=     0.5191    Z=     0.0019  Tot=     2.0510
 Quadrupole moment (field-independent basis, Debye-Ang):
   XX=   -55.9315   YY=   -34.8340   ZZ=   -77.5253
   XY=   -11.2877   XZ=    -0.0086   YZ=    -0.0024
 Traceless Quadrupole moment (field-independent basis, Debye-Ang):
   XX=     0.1654   YY=    21.2629   ZZ=   -21.4283
   XY=   -11.2877   XZ=    -0.0086   YZ=    -0.0024
 Octapole moment (field-independent basis, Debye-Ang**2):
  XXX=    51.7365  YYY=   -60.2372  ZZZ=     0.0080  XYY=   -25.9061
  XXY=   103.7886  XXZ=    -0.0104  XZZ=    -7.2513  YZZ=     3.9445
  YYZ=     0.0366  XYZ=    -0.0271
 Hexadecapole moment (field-independent basis, Debye-Ang**3):
 XXXX= -1813.2272 YYYY= -1166.0534 ZZZZ=  -131.2196 XXXY=   153.7528
 XXXZ=    -0.1147 YYYX=  -339.1030 YYYZ=    -0.0099 ZZZX=    -0.0286
 ZZZY=    -0.0090 XXYY=  -417.1015 XXZZ=  -348.6903 YYZZ=  -253.3312
 XXYZ=    -0.0267 YYXZ=    -0.0341 ZZXY=    -4.8931
 N-N= 9.072914695087D+02 E-N=-8.316666648145D+03  KE= 2.742187835626D+03
 Merz-Kollman atomic radii used.
 Read replacement radii for each type of atom:
 Rad(20) =   1.188000000000D+00
 Atom Element Radius
    1     8    1.40
    2     8    1.40
    3    15    1.80
    4    20    1.19
    5    20    1.19
    6    20    1.19
    7     8    1.40
    8     8    1.40
    9     8    1.40

 **********************************************************************

            Electrostatic Properties Using The SCF Density

 **********************************************************************

       Atomic Center    1 is at  -2.602362  0.377955  0.000040
       Atomic Center    2 is at  -1.509538 -1.923553  0.000140
       Atomic Center    3 is at  -2.841629 -1.144685 -0.000630
       Atomic Center    4 is at  -1.443365  2.349967  0.000410
       Atomic Center    5 is at   0.731373 -2.318229  0.000400
       Atomic Center    6 is at   2.415337  1.205754 -0.000400
       Atomic Center    7 is at   2.262770 -0.925556  0.786570
       Atomic Center    8 is at   2.262560 -0.925766 -0.786550
       Atomic Center    9 is at   0.656264  2.449471 -0.000050
     918 points will be used for fitting atomic charges
 Fitting point charges to eletrostatic potential
 Charges from ESP fit, RMS=   0.00595 RRMS=   0.04188:
 Charge=   1.00000 Dipole=    -2.3207     0.6244     0.0011 Tot=     2.4032
              1
     1  O   -0.798935
     2  O   -0.805997
     3  P    0.680010
     4  Ca   1.743027
     5  Ca   1.753002
     6  Ca   1.775864
     7  O   -0.842148
     8  O   -0.842179
     9  O   -1.662643
 -----------------------------------------------------------------

              Electrostatic Properties (Atomic Units)

 -----------------------------------------------------------------
    Center     Electric         -------- Electric Field --------
               Potential          X             Y             Z
 -----------------------------------------------------------------
    1 Atom    -22.183771
    2 Atom    -22.185499
    3 Atom    -53.918387
    4 Atom    -80.045672
    5 Atom    -80.037998
    6 Atom    -80.100687
    7 Atom    -22.247293
    8 Atom    -22.247293
    9 Atom    -22.338733
 -----------------------------------------------------------------
 1\1\GINC-N031\SP\RB3LYP\6-31+G(d,p)\Ca3O5P1(1+)\TIMN\12-Jun-2015\0\\# 
 b3lyp/6-31+G(d,p) int=ultrafine pop=(ReadRadii,MK)\\mol_17.28.39.pdbcc
 _plusQ.z58562.zip.xyz\\1,1\O,0,-2.60236,0.37796,0.00004\O,0,-1.50954,-
 1.92355,0.00014\P,0,-2.84163,-1.14468,-0.00063\Ca,0,-1.44336,2.34997,0
 .00041\Ca,0,0.73137,-2.31823,0.0004\Ca,0,2.41534,1.20575,-0.0004\O,0,2
 .26277,-0.92556,0.78657\O,0,2.26256,-0.92577,-0.78655\O,0,0.65627,2.44
 947,-0.00005\\Version=EM64T-G03RevE.01\State=1-A\HF=-2750.1971007\RMSD
 =5.287e-05\Thermal=0.\Dipole=-0.7806539,0.204223,0.0007325\PG=C01 [X(C
 a3O5P1)]\\@


 IN SO FAR AS QUANTUM MECHANICS IS CORRECT, CHEMICAL 
 QUESTIONS ARE PROBLEMS IN APPLIED MATHEMATICS.

                    -- EYRING, WALTER, & KIMBALL, 1944
 Job cpu time:  0 days  0 hours  1 minutes 49.0 seconds.
 File lengths (MBytes):  RWF=     36 Int=      0 D2E=      0 Chk=     11 Scr=      1
 Normal termination of Gaussian 03 at Fri Jun 12 18:09:55 2015.
