 Entering Gaussian System, Link 0=/home/timn/tmp/g03.e01/g03
 Input=mol_16.4.49.pdbc_plusQ.out.z51599.zip.xyz.gjf
 Output=mol_16.4.49.pdbc_plusQ.out.z51599.zip.xyz.out
 Initial command:
 /home/timn/tmp/g03.e01/l1.exe /home/timn/tmp/g03.e01/Gau-12517.inp -scrdir=/home/timn/tmp/g03.e01/
 Default is to use a total of   2 processors:
                                2 via shared-memory
                                1 via Linda
 Entering Link 1 = /home/timn/tmp/g03.e01/l1.exe PID=     12518.
  
 Copyright (c) 1988,1990,1992,1993,1995,1998,2003,2004,2007, Gaussian, Inc.
                  All Rights Reserved.
  
 This is the Gaussian(R) 03 program.  It is based on the
 the Gaussian(R) 98 system (copyright 1998, Gaussian, Inc.),
 the Gaussian(R) 94 system (copyright 1995, Gaussian, Inc.),
 the Gaussian 92(TM) system (copyright 1992, Gaussian, Inc.),
 the Gaussian 90(TM) system (copyright 1990, Gaussian, Inc.),
 the Gaussian 88(TM) system (copyright 1988, Gaussian, Inc.),
 the Gaussian 86(TM) system (copyright 1986, Carnegie Mellon
 University), and the Gaussian 82(TM) system (copyright 1983,
 Carnegie Mellon University). Gaussian is a federally registered
 trademark of Gaussian, Inc.
  
 This software contains proprietary and confidential information,
 including trade secrets, belonging to Gaussian, Inc.
  
 This software is provided under written license and may be
 used, copied, transmitted, or stored only in accord with that
 written license.
  
 The following legend is applicable only to US Government
 contracts under FAR:
  
                    RESTRICTED RIGHTS LEGEND
  
 Use, reproduction and disclosure by the US Government is
 subject to restrictions as set forth in subparagraphs (a)
 and (c) of the Commercial Computer Software - Restricted
 Rights clause in FAR 52.227-19.
  
 Gaussian, Inc.
 340 Quinnipiac St., Bldg. 40, Wallingford CT 06492
  
  
 ---------------------------------------------------------------
 Warning -- This program may not be used in any manner that
 competes with the business of Gaussian, Inc. or will provide
 assistance to any competitor of Gaussian, Inc.  The licensee
 of this program is prohibited from giving any competitor of
 Gaussian, Inc. access to this program.  By using this program,
 the user acknowledges that Gaussian, Inc. is engaged in the
 business of creating and licensing software in the field of
 computational chemistry and represents and warrants to the
 licensee that it is not a competitor of Gaussian, Inc. and that
 it will not use this program in any manner prohibited above.
 ---------------------------------------------------------------
  

 Cite this work as:
 Gaussian 03, Revision E.01,
 M. J. Frisch, G. W. Trucks, H. B. Schlegel, G. E. Scuseria, 
 M. A. Robb, J. R. Cheeseman, J. A. Montgomery, Jr., T. Vreven, 
 K. N. Kudin, J. C. Burant, J. M. Millam, S. S. Iyengar, J. Tomasi, 
 V. Barone, B. Mennucci, M. Cossi, G. Scalmani, N. Rega, 
 G. A. Petersson, H. Nakatsuji, M. Hada, M. Ehara, K. Toyota, 
 R. Fukuda, J. Hasegawa, M. Ishida, T. Nakajima, Y. Honda, O. Kitao, 
 H. Nakai, M. Klene, X. Li, J. E. Knox, H. P. Hratchian, J. B. Cross, 
 V. Bakken, C. Adamo, J. Jaramillo, R. Gomperts, R. E. Stratmann, 
 O. Yazyev, A. J. Austin, R. Cammi, C. Pomelli, J. W. Ochterski, 
 P. Y. Ayala, K. Morokuma, G. A. Voth, P. Salvador, J. J. Dannenberg, 
 V. G. Zakrzewski, S. Dapprich, A. D. Daniels, M. C. Strain, 
 O. Farkas, D. K. Malick, A. D. Rabuck, K. Raghavachari, 
 J. B. Foresman, J. V. Ortiz, Q. Cui, A. G. Baboul, S. Clifford, 
 J. Cioslowski, B. B. Stefanov, G. Liu, A. Liashenko, P. Piskorz, 
 I. Komaromi, R. L. Martin, D. J. Fox, T. Keith, M. A. Al-Laham, 
 C. Y. Peng, A. Nanayakkara, M. Challacombe, P. M. W. Gill, 
 B. Johnson, W. Chen, M. W. Wong, C. Gonzalez, and J. A. Pople, 
 Gaussian, Inc., Wallingford CT, 2004.
 
 ******************************************
 Gaussian 03:  EM64T-G03RevE.01 11-Sep-2007
                12-Jun-2015 
 ******************************************
 %nproc=2
 Will use up to    2 processors via shared memory.
 Default route:  MP2=Direct MaxDisk=2000MB
 ----------------------------------------------------
 # b3lyp/6-31+G(d,p) int=ultrafine pop=(ReadRadii,MK)
 ----------------------------------------------------

 Warning!  SCF SP cutoffs with diffuse functions may be unreliable.
 Consider SCF=Tight

 1/38=1/1;
 2/17=6,18=5,40=1/2;
 3/5=1,6=6,7=111,11=2,16=1,25=1,30=1,74=-5,75=5/1,2,3;
 4//1;
 5/5=2,32=1,38=5/2;
 6/7=2,8=2,9=2,10=2,15=8,20=101,28=1/1,2;
 99/5=1,9=1/99;
 -----------------------------------------
 mol_16.4.49.pdbc_plusQ.out.z51599.zip.xyz
 -----------------------------------------
 Symbolic Z-matrix:
 Charge =  1 Multiplicity = 1
 Ca                    2.06933  -0.7534   -0.0001 
 O                     1.38172   1.4643    0.00046 
 O                     0.00042  -0.33019  -1.19705 
 P                     0.        0.7997    0.00009 
 O                    -0.00036  -0.33085   1.19716 
 Ca                   -2.06935  -0.75339  -0.0001 
 O                    -1.38172   1.46429  -0.00025 
 
                          Input orientation:                          
 ---------------------------------------------------------------------
 Center     Atomic     Atomic              Coordinates (Angstroms)
 Number     Number      Type              X           Y           Z
 ---------------------------------------------------------------------
    1         20             0        2.069330   -0.753400   -0.000100
    2          8             0        1.381720    1.464300    0.000460
    3          8             0        0.000420   -0.330190   -1.197050
    4         15             0        0.000000    0.799700    0.000090
    5          8             0       -0.000360   -0.330850    1.197160
    6         20             0       -2.069350   -0.753390   -0.000100
    7          8             0       -1.381720    1.464290   -0.000250
 ---------------------------------------------------------------------
                    Distance matrix (angstroms):
                    1          2          3          4          5
     1  Ca   0.000000
     2  O    2.321853   0.000000
     3  O    2.427382   2.561682   0.000000
     4  P    2.587324   1.533246   1.646146   0.000000
     5  O    2.428085   2.562186   2.394210   1.646548   0.000000
     6  Ca   4.138680   4.102199   2.428114   2.587334   2.427487
     7  O    4.102182   2.763440   2.561796   1.533242   2.562123
                    6          7
     6  Ca   0.000000
     7  O    2.321840   0.000000
 Stoichiometry    Ca2O4P(1+)
 Framework group  C1[X(Ca2O4P)]
 Deg. of freedom    15
 Full point group                 C1
 Largest Abelian subgroup         C1      NOp   1
 Largest concise Abelian subgroup C1      NOp   1
                         Standard orientation:                         
 ---------------------------------------------------------------------
 Center     Atomic     Atomic              Coordinates (Angstroms)
 Number     Number      Type              X           Y           Z
 ---------------------------------------------------------------------
    1         20             0        2.069330   -0.753399   -0.000099
    2          8             0        1.381717    1.464300    0.000461
    3          8             0        0.000419   -0.330191   -1.197049
    4         15             0       -0.000002    0.799699    0.000091
    5          8             0       -0.000361   -0.330851    1.197161
    6         20             0       -2.069350   -0.753394   -0.000099
    7          8             0       -1.381723    1.464287   -0.000249
 ---------------------------------------------------------------------
 Rotational constants (GHZ):      2.7601306      1.1251402      0.9348781
 Standard basis: 6-31+G(d,p) (6D, 7F)
 There are   153 symmetry adapted basis functions of A   symmetry.
 Integral buffers will be    131072 words long.
 Raffenetti 2 integral format.
 Two-electron integral symmetry is turned on.
   153 basis functions,   344 primitive gaussians,   153 cartesian basis functions
    43 alpha electrons       43 beta electrons
       nuclear repulsion energy       666.8250033388 Hartrees.
 NAtoms=    7 NActive=    7 NUniq=    7 SFac= 7.50D-01 NAtFMM=   80 NAOKFM=F Big=F
 One-electron integrals computed using PRISM.
 NBasis=   153 RedAO= T  NBF=   153
 NBsUse=   153 1.00D-06 NBFU=   153
 Harris functional with IExCor=  402 diagonalized for initial guess.
 ExpMin= 7.10D-03 ExpMax= 3.53D+04 ExpMxC= 5.30D+03 IAcc=3 IRadAn=         5 AccDes= 0.00D+00
 HarFok:  IExCor= 402 AccDes= 0.00D+00 IRadAn=         5 IDoV=1
 ScaDFX=  1.000000  1.000000  1.000000  1.000000
 Initial guess orbital symmetries:
       Occupied  (A) (A) (A) (A) (A) (A) (A) (A) (A) (A) (A) (A)
                 (A) (A) (A) (A) (A) (A) (A) (A) (A) (A) (A) (A)
                 (A) (A) (A) (A) (A) (A) (A) (A) (A) (A) (A) (A)
                 (A) (A) (A) (A) (A) (A) (A)
       Virtual   (A) (A) (A) (A) (A) (A) (A) (A) (A) (A) (A) (A)
                 (A) (A) (A) (A) (A) (A) (A) (A) (A) (A) (A) (A)
                 (A) (A) (A) (A) (A) (A) (A) (A) (A) (A) (A) (A)
                 (A) (A) (A) (A) (A) (A) (A) (A) (A) (A) (A) (A)
                 (A) (A) (A) (A) (A) (A) (A) (A) (A) (A) (A) (A)
                 (A) (A) (A) (A) (A) (A) (A) (A) (A) (A) (A) (A)
                 (A) (A) (A) (A) (A) (A) (A) (A) (A) (A) (A) (A)
                 (A) (A) (A) (A) (A) (A) (A) (A) (A) (A) (A) (A)
                 (A) (A) (A) (A) (A) (A) (A) (A) (A) (A) (A) (A)
                 (A) (A)
 The electronic state of the initial guess is 1-A.
 Requested convergence on RMS density matrix=1.00D-04 within 128 cycles.
 Requested convergence on MAX density matrix=1.00D-02.
 Requested convergence on             energy=1.00D-02.
 No special actions if energy rises.
 SCF Done:  E(RB+HF-LYP) =  -1997.39007831     A.U. after    8 cycles
             Convg  =    0.1117D-04             -V/T =  2.0031
             S**2   =   0.0000

 **********************************************************************

            Population analysis using the SCF density.

 **********************************************************************

 Orbital symmetries:
       Occupied  (A) (A) (A) (A) (A) (A) (A) (A) (A) (A) (A) (A)
                 (A) (A) (A) (A) (A) (A) (A) (A) (A) (A) (A) (A)
                 (A) (A) (A) (A) (A) (A) (A) (A) (A) (A) (A) (A)
                 (A) (A) (A) (A) (A) (A) (A)
       Virtual   (A) (A) (A) (A) (A) (A) (A) (A) (A) (A) (A) (A)
                 (A) (A) (A) (A) (A) (A) (A) (A) (A) (A) (A) (A)
                 (A) (A) (A) (A) (A) (A) (A) (A) (A) (A) (A) (A)
                 (A) (A) (A) (A) (A) (A) (A) (A) (A) (A) (A) (A)
                 (A) (A) (A) (A) (A) (A) (A) (A) (A) (A) (A) (A)
                 (A) (A) (A) (A) (A) (A) (A) (A) (A) (A) (A) (A)
                 (A) (A) (A) (A) (A) (A) (A) (A) (A) (A) (A) (A)
                 (A) (A) (A) (A) (A) (A) (A) (A) (A) (A) (A) (A)
                 (A) (A) (A) (A) (A) (A) (A) (A) (A) (A) (A) (A)
                 (A) (A)
 The electronic state is 1-A.
 Alpha  occ. eigenvalues -- -145.57694-145.57693 -77.31330 -19.22616 -19.22613
 Alpha  occ. eigenvalues --  -19.22305 -19.22280 -15.64396 -15.64394 -12.77595
 Alpha  occ. eigenvalues --  -12.77594 -12.77582 -12.77581 -12.77581 -12.77579
 Alpha  occ. eigenvalues --   -6.76051  -4.92399  -4.92392  -4.92316  -2.01225
 Alpha  occ. eigenvalues --   -2.01218  -1.29332  -1.28819  -1.28440  -1.28440
 Alpha  occ. eigenvalues --   -1.28384  -1.28336  -1.12989  -1.05501  -1.03664
 Alpha  occ. eigenvalues --   -1.01675  -0.62397  -0.53175  -0.53140  -0.52458
 Alpha  occ. eigenvalues --   -0.45693  -0.45585  -0.45184  -0.42428  -0.40459
 Alpha  occ. eigenvalues --   -0.39280  -0.37996  -0.35883
 Alpha virt. eigenvalues --   -0.23655  -0.22443  -0.14871  -0.13487  -0.12800
 Alpha virt. eigenvalues --   -0.12506  -0.10779  -0.08514  -0.07911  -0.06634
 Alpha virt. eigenvalues --   -0.05355  -0.05333  -0.04645  -0.04456  -0.04312
 Alpha virt. eigenvalues --   -0.03597  -0.02863  -0.01984  -0.01523  -0.00808
 Alpha virt. eigenvalues --    0.00093   0.00398   0.01147   0.02144   0.02468
 Alpha virt. eigenvalues --    0.02605   0.02880   0.03017   0.03634   0.04696
 Alpha virt. eigenvalues --    0.05031   0.05155   0.06599   0.07256   0.08279
 Alpha virt. eigenvalues --    0.08743   0.11363   0.12088   0.14129   0.14904
 Alpha virt. eigenvalues --    0.15692   0.15782   0.17408   0.17725   0.17931
 Alpha virt. eigenvalues --    0.19643   0.21596   0.22266   0.24351   0.27088
 Alpha virt. eigenvalues --    0.27895   0.29848   0.31741   0.32167   0.32426
 Alpha virt. eigenvalues --    0.35785   0.40322   0.42905   0.44628   0.50834
 Alpha virt. eigenvalues --    0.53417   0.56526   0.57004   0.64774   0.70064
 Alpha virt. eigenvalues --    0.79493   0.90009   0.98080   0.98328   1.10010
 Alpha virt. eigenvalues --    1.12192   1.12843   1.14692   1.15996   1.18960
 Alpha virt. eigenvalues --    1.20097   1.24883   1.24926   1.25831   1.26346
 Alpha virt. eigenvalues --    1.29041   1.44350   1.48587   1.54107   1.68276
 Alpha virt. eigenvalues --    1.70721   1.72877   1.73107   1.76255   1.78202
 Alpha virt. eigenvalues --    1.78668   1.80772   1.81655   1.82245   1.82896
 Alpha virt. eigenvalues --    1.91073   1.95753   1.98526   2.14277   2.15020
 Alpha virt. eigenvalues --    2.25184   2.53168   2.59776   2.74534   2.81936
 Alpha virt. eigenvalues --    3.47282   4.00161   4.02596   4.11992   4.32634
          Condensed to atoms (all electrons):
              1          2          3          4          5          6
     1  Ca  18.228329   0.050950   0.090664   0.053314   0.090533  -0.018844
     2  O    0.050950   8.823827  -0.040435   0.178754  -0.040487   0.021974
     3  O    0.090664  -0.040435   8.922501  -0.045756   0.040959   0.090576
     4  P    0.053314   0.178754  -0.045756  12.905202  -0.045585   0.053320
     5  O    0.090533  -0.040487   0.040959  -0.045585   8.922723   0.090616
     6  Ca  -0.018844   0.021974   0.090576   0.053320   0.090616  18.228320
     7  O    0.021976  -0.168667  -0.040480   0.178749  -0.040460   0.050949
              7
     1  Ca   0.021976
     2  O   -0.168667
     3  O   -0.040480
     4  P    0.178749
     5  O   -0.040460
     6  Ca   0.050949
     7  O    8.823858
 Mulliken atomic charges:
              1
     1  Ca   1.483077
     2  O   -0.825916
     3  O   -1.018029
     4  P    1.722003
     5  O   -1.018300
     6  Ca   1.483089
     7  O   -0.825924
 Sum of Mulliken charges=   1.00000
 Atomic charges with hydrogens summed into heavy atoms:
              1
     1  Ca   1.483077
     2  O   -0.825916
     3  O   -1.018029
     4  P    1.722003
     5  O   -1.018300
     6  Ca   1.483089
     7  O   -0.825924
 Sum of Mulliken charges=   1.00000
 Electronic spatial extent (au):  <R**2>=  1135.0749
 Charge=     1.0000 electrons
 Dipole moment (field-independent basis, Debye):
    X=    -0.0003    Y=   -13.9802    Z=    -0.0046  Tot=    13.9802
 Quadrupole moment (field-independent basis, Debye-Ang):
   XX=     3.5211   YY=   -55.5513   ZZ=   -66.8003
   XY=     0.0002   XZ=     0.0006   YZ=     0.0045
 Traceless Quadrupole moment (field-independent basis, Debye-Ang):
   XX=    43.1313   YY=   -15.9412   ZZ=   -27.1901
   XY=     0.0002   XZ=     0.0006   YZ=     0.0045
 Octapole moment (field-independent basis, Debye-Ang**2):
  XXX=    -0.0031  YYY=   -48.5433  ZZZ=    -0.0093  XYY=    -0.0002
  XXY=   -85.8122  XXZ=    -0.0112  XZZ=    -0.0006  YZZ=    -4.0770
  YYZ=    -0.0070  XYZ=    -0.0066
 Hexadecapole moment (field-independent basis, Debye-Ang**3):
 XXXX=  -325.1922 YYYY=  -337.3103 ZZZZ=  -197.0136 XXXY=     0.0018
 XXXZ=    -0.0086 YYYX=    -0.0007 YYYZ=     0.0039 ZZZX=     0.0070
 ZZZY=     0.0116 XXYY=  -143.3935 XXZZ=  -133.2070 YYZZ=   -84.0021
 XXYZ=     0.0039 YYXZ=    -0.0064 ZZXY=    -0.0002
 N-N= 6.668250033388D+02 E-N=-6.052260805702D+03  KE= 1.991124624985D+03
 Merz-Kollman atomic radii used.
 Read replacement radii for each type of atom:
 Rad(20) =   1.188000000000D+00
 Atom Element Radius
    1    20    1.19
    2     8    1.40
    3     8    1.40
    4    15    1.80
    5     8    1.40
    6    20    1.19
    7     8    1.40

 **********************************************************************

            Electrostatic Properties Using The SCF Density

 **********************************************************************

       Atomic Center    1 is at   2.069330 -0.753399 -0.000099
       Atomic Center    2 is at   1.381717  1.464300  0.000461
       Atomic Center    3 is at   0.000419 -0.330191 -1.197049
       Atomic Center    4 is at  -0.000002  0.799699  0.000091
       Atomic Center    5 is at  -0.000361 -0.330851  1.197161
       Atomic Center    6 is at  -2.069350 -0.753394 -0.000099
       Atomic Center    7 is at  -1.381723  1.464287 -0.000249
     594 points will be used for fitting atomic charges
 Fitting point charges to eletrostatic potential
 Charges from ESP fit, RMS=   0.00408 RRMS=   0.02332:
 Charge=   1.00000 Dipole=     0.0001   -14.0463    -0.0045 Tot=    14.0463
              1
     1  Ca   1.706047
     2  O   -0.869737
     3  O   -1.209876
     4  P    1.748355
     5  O   -1.210240
     6  Ca   1.707584
     7  O   -0.872132
 -----------------------------------------------------------------

              Electrostatic Properties (Atomic Units)

 -----------------------------------------------------------------
    Center     Electric         -------- Electric Field --------
               Potential          X             Y             Z
 -----------------------------------------------------------------
    1 Atom    -79.963718
    2 Atom    -22.238833
    3 Atom    -22.240601
    4 Atom    -53.892401
    5 Atom    -22.241213
    6 Atom    -79.963710
    7 Atom    -22.238877
 -----------------------------------------------------------------
 1\1\GINC-N031\SP\RB3LYP\6-31+G(d,p)\Ca2O4P1(1+)\TIMN\12-Jun-2015\0\\# 
 b3lyp/6-31+G(d,p) int=ultrafine pop=(ReadRadii,MK)\\mol_16.4.49.pdbc_p
 lusQ.out.z51599.zip.xyz\\1,1\Ca,0,2.06933,-0.7534,-0.0001\O,0,1.38172,
 1.4643,0.00046\O,0,0.00042,-0.33019,-1.19705\P,0,0.,0.7997,0.00009\O,0
 ,-0.00036,-0.33085,1.19716\Ca,0,-2.06935,-0.75339,-0.0001\O,0,-1.38172
 ,1.46429,-0.00025\\Version=EM64T-G03RevE.01\State=1-A\HF=-1997.3900783
 \RMSD=1.117e-05\Thermal=0.\Dipole=-0.0001273,-5.5002275,-0.0017954\PG=
 C01 [X(Ca2O4P1)]\\@


 WHAT, THEN, IS TIME?  IF NO ONE ASKS ME, I KNOW WHAT IT IS.
 IF I WISH TO EXPLAIN WHAT IT IS TO HIM WHO ASKS ME, I DO NOT KNOW.
                                   -- ST. AUGUSTINE (FIFTH CENTURY)
 Job cpu time:  0 days  0 hours  1 minutes  0.9 seconds.
 File lengths (MBytes):  RWF=     28 Int=      0 D2E=      0 Chk=     10 Scr=      1
 Normal termination of Gaussian 03 at Fri Jun 12 17:48:59 2015.
