 Entering Gaussian System, Link 0=/home/timn/tmp/g03.e01/g03
 Input=mol_17.27.15.pdbccc_plusQ.z58482.zip.xyz.gjf
 Output=mol_17.27.15.pdbccc_plusQ.z58482.zip.xyz.out
 Initial command:
 /home/timn/tmp/g03.e01/l1.exe /home/timn/tmp/g03.e01/Gau-18687.inp -scrdir=/home/timn/tmp/g03.e01/
 Default is to use a total of   2 processors:
                                2 via shared-memory
                                1 via Linda
 Entering Link 1 = /home/timn/tmp/g03.e01/l1.exe PID=     18688.
  
 Copyright (c) 1988,1990,1992,1993,1995,1998,2003,2004,2007, Gaussian, Inc.
                  All Rights Reserved.
  
 This is the Gaussian(R) 03 program.  It is based on the
 the Gaussian(R) 98 system (copyright 1998, Gaussian, Inc.),
 the Gaussian(R) 94 system (copyright 1995, Gaussian, Inc.),
 the Gaussian 92(TM) system (copyright 1992, Gaussian, Inc.),
 the Gaussian 90(TM) system (copyright 1990, Gaussian, Inc.),
 the Gaussian 88(TM) system (copyright 1988, Gaussian, Inc.),
 the Gaussian 86(TM) system (copyright 1986, Carnegie Mellon
 University), and the Gaussian 82(TM) system (copyright 1983,
 Carnegie Mellon University). Gaussian is a federally registered
 trademark of Gaussian, Inc.
  
 This software contains proprietary and confidential information,
 including trade secrets, belonging to Gaussian, Inc.
  
 This software is provided under written license and may be
 used, copied, transmitted, or stored only in accord with that
 written license.
  
 The following legend is applicable only to US Government
 contracts under FAR:
  
                    RESTRICTED RIGHTS LEGEND
  
 Use, reproduction and disclosure by the US Government is
 subject to restrictions as set forth in subparagraphs (a)
 and (c) of the Commercial Computer Software - Restricted
 Rights clause in FAR 52.227-19.
  
 Gaussian, Inc.
 340 Quinnipiac St., Bldg. 40, Wallingford CT 06492
  
  
 ---------------------------------------------------------------
 Warning -- This program may not be used in any manner that
 competes with the business of Gaussian, Inc. or will provide
 assistance to any competitor of Gaussian, Inc.  The licensee
 of this program is prohibited from giving any competitor of
 Gaussian, Inc. access to this program.  By using this program,
 the user acknowledges that Gaussian, Inc. is engaged in the
 business of creating and licensing software in the field of
 computational chemistry and represents and warrants to the
 licensee that it is not a competitor of Gaussian, Inc. and that
 it will not use this program in any manner prohibited above.
 ---------------------------------------------------------------
  

 Cite this work as:
 Gaussian 03, Revision E.01,
 M. J. Frisch, G. W. Trucks, H. B. Schlegel, G. E. Scuseria, 
 M. A. Robb, J. R. Cheeseman, J. A. Montgomery, Jr., T. Vreven, 
 K. N. Kudin, J. C. Burant, J. M. Millam, S. S. Iyengar, J. Tomasi, 
 V. Barone, B. Mennucci, M. Cossi, G. Scalmani, N. Rega, 
 G. A. Petersson, H. Nakatsuji, M. Hada, M. Ehara, K. Toyota, 
 R. Fukuda, J. Hasegawa, M. Ishida, T. Nakajima, Y. Honda, O. Kitao, 
 H. Nakai, M. Klene, X. Li, J. E. Knox, H. P. Hratchian, J. B. Cross, 
 V. Bakken, C. Adamo, J. Jaramillo, R. Gomperts, R. E. Stratmann, 
 O. Yazyev, A. J. Austin, R. Cammi, C. Pomelli, J. W. Ochterski, 
 P. Y. Ayala, K. Morokuma, G. A. Voth, P. Salvador, J. J. Dannenberg, 
 V. G. Zakrzewski, S. Dapprich, A. D. Daniels, M. C. Strain, 
 O. Farkas, D. K. Malick, A. D. Rabuck, K. Raghavachari, 
 J. B. Foresman, J. V. Ortiz, Q. Cui, A. G. Baboul, S. Clifford, 
 J. Cioslowski, B. B. Stefanov, G. Liu, A. Liashenko, P. Piskorz, 
 I. Komaromi, R. L. Martin, D. J. Fox, T. Keith, M. A. Al-Laham, 
 C. Y. Peng, A. Nanayakkara, M. Challacombe, P. M. W. Gill, 
 B. Johnson, W. Chen, M. W. Wong, C. Gonzalez, and J. A. Pople, 
 Gaussian, Inc., Wallingford CT, 2004.
 
 ******************************************
 Gaussian 03:  EM64T-G03RevE.01 11-Sep-2007
                12-Jun-2015 
 ******************************************
 %nproc=2
 Will use up to    2 processors via shared memory.
 Default route:  MP2=Direct MaxDisk=2000MB
 ----------------------------------------------------
 # b3lyp/6-31+G(d,p) int=ultrafine pop=(ReadRadii,MK)
 ----------------------------------------------------

 Warning!  SCF SP cutoffs with diffuse functions may be unreliable.
 Consider SCF=Tight

 1/38=1/1;
 2/17=6,18=5,40=1/2;
 3/5=1,6=6,7=111,11=2,16=1,25=1,30=1,74=-5,75=5/1,2,3;
 4//1;
 5/5=2,32=1,38=5/2;
 6/7=2,8=2,9=2,10=2,15=8,20=101,28=1/1,2;
 99/5=1,9=1/99;
 ----------------------------------------
 mol_17.27.15.pdbccc_plusQ.z58482.zip.xyz
 ----------------------------------------
 Symbolic Z-matrix:
 Charge =  1 Multiplicity = 1
 O                    -1.6131    1.04065   0.00877 
 O                     2.87458   1.41639  -0.00257 
 Ca                    0.72575   1.51854   0.0036 
 O                     0.82382  -0.88138   0.77897 
 O                     0.81966  -0.87931  -0.77666 
 Ca                   -1.22191  -1.49277   0.0057 
 P                    -3.17043   0.86717  -0.00542 
 O                    -3.41092  -0.65297  -0.00948 
 Ca                    3.07636  -0.6935   -0.00485 
 
                          Input orientation:                          
 ---------------------------------------------------------------------
 Center     Atomic     Atomic              Coordinates (Angstroms)
 Number     Number      Type              X           Y           Z
 ---------------------------------------------------------------------
    1          8             0       -1.613100    1.040650    0.008770
    2          8             0        2.874580    1.416390   -0.002570
    3         20             0        0.725750    1.518540    0.003600
    4          8             0        0.823820   -0.881380    0.778970
    5          8             0        0.819660   -0.879310   -0.776660
    6         20             0       -1.221910   -1.492770    0.005700
    7         15             0       -3.170430    0.867170   -0.005420
    8          8             0       -3.410920   -0.652970   -0.009480
    9         20             0        3.076360   -0.693500   -0.004850
 ---------------------------------------------------------------------
                    Distance matrix (angstroms):
                    1          2          3          4          5
     1  O    0.000000
     2  O    4.503397   0.000000
     3  Ca   2.387179   2.151265   0.000000
     4  O    3.197810   3.177447   2.523972   0.000000
     5  O    3.197103   3.176814   2.523353   1.555637   0.000000
     6  Ca   2.563446   5.024392   3.586275   2.270849   2.270777
     7  P    1.567027   6.069909   3.950264   4.430206   4.423327
     8  O    2.469988   6.617387   4.672009   4.313566   4.305532
     9  Ca   4.999850   2.119518   3.227779   2.392407   2.392261
                    6          7          8          9
     6  Ca   0.000000
     7  P    3.060420   0.000000
     8  O    2.344623   1.539051   0.000000
     9  Ca   4.371964   6.438795   6.487408   0.000000
 Stoichiometry    Ca3O5P(1+)
 Framework group  C1[X(Ca3O5P)]
 Deg. of freedom    21
 Full point group                 C1
 Largest Abelian subgroup         C1      NOp   1
 Largest concise Abelian subgroup C1      NOp   1
                         Standard orientation:                         
 ---------------------------------------------------------------------
 Center     Atomic     Atomic              Coordinates (Angstroms)
 Number     Number      Type              X           Y           Z
 ---------------------------------------------------------------------
    1          8             0       -1.613100    1.040648    0.008771
    2          8             0        2.874580    1.416393   -0.002569
    3         20             0        0.725750    1.518541    0.003601
    4          8             0        0.823822   -0.881379    0.778971
    5          8             0        0.819662   -0.879309   -0.776659
    6         20             0       -1.221907   -1.492771    0.005701
    7         15             0       -3.170430    0.867167   -0.005419
    8          8             0       -3.410918   -0.652973   -0.009479
    9         20             0        3.076362   -0.693497   -0.004849
 ---------------------------------------------------------------------
 Rotational constants (GHZ):      1.5594009      0.4315551      0.3469986
 Standard basis: 6-31+G(d,p) (6D, 7F)
 There are   199 symmetry adapted basis functions of A   symmetry.
 Integral buffers will be    131072 words long.
 Raffenetti 2 integral format.
 Two-electron integral symmetry is turned on.
   199 basis functions,   456 primitive gaussians,   199 cartesian basis functions
    57 alpha electrons       57 beta electrons
       nuclear repulsion energy       978.3348324344 Hartrees.
 NAtoms=    9 NActive=    9 NUniq=    9 SFac= 7.50D-01 NAtFMM=   80 NAOKFM=F Big=F
 One-electron integrals computed using PRISM.
 NBasis=   199 RedAO= T  NBF=   199
 NBsUse=   199 1.00D-06 NBFU=   199
 Harris functional with IExCor=  402 diagonalized for initial guess.
 ExpMin= 7.10D-03 ExpMax= 3.53D+04 ExpMxC= 5.30D+03 IAcc=3 IRadAn=         5 AccDes= 0.00D+00
 HarFok:  IExCor= 402 AccDes= 0.00D+00 IRadAn=         5 IDoV=1
 ScaDFX=  1.000000  1.000000  1.000000  1.000000
 Initial guess orbital symmetries:
       Occupied  (A) (A) (A) (A) (A) (A) (A) (A) (A) (A) (A) (A)
                 (A) (A) (A) (A) (A) (A) (A) (A) (A) (A) (A) (A)
                 (A) (A) (A) (A) (A) (A) (A) (A) (A) (A) (A) (A)
                 (A) (A) (A) (A) (A) (A) (A) (A) (A) (A) (A) (A)
                 (A) (A) (A) (A) (A) (A) (A) (A) (A)
       Virtual   (A) (A) (A) (A) (A) (A) (A) (A) (A) (A) (A) (A)
                 (A) (A) (A) (A) (A) (A) (A) (A) (A) (A) (A) (A)
                 (A) (A) (A) (A) (A) (A) (A) (A) (A) (A) (A) (A)
                 (A) (A) (A) (A) (A) (A) (A) (A) (A) (A) (A) (A)
                 (A) (A) (A) (A) (A) (A) (A) (A) (A) (A) (A) (A)
                 (A) (A) (A) (A) (A) (A) (A) (A) (A) (A) (A) (A)
                 (A) (A) (A) (A) (A) (A) (A) (A) (A) (A) (A) (A)
                 (A) (A) (A) (A) (A) (A) (A) (A) (A) (A) (A) (A)
                 (A) (A) (A) (A) (A) (A) (A) (A) (A) (A) (A) (A)
                 (A) (A) (A) (A) (A) (A) (A) (A) (A) (A) (A) (A)
                 (A) (A) (A) (A) (A) (A) (A) (A) (A) (A) (A) (A)
                 (A) (A) (A) (A) (A) (A) (A) (A) (A) (A)
 The electronic state of the initial guess is 1-A.
 Requested convergence on RMS density matrix=1.00D-04 within 128 cycles.
 Requested convergence on MAX density matrix=1.00D-02.
 Requested convergence on             energy=1.00D-02.
 No special actions if energy rises.
 EnCoef did     3 forward-backward iterations
 SCF Done:  E(RB+HF-LYP) =  -2750.19922655     A.U. after    8 cycles
             Convg  =    0.8778D-04             -V/T =  2.0029
             S**2   =   0.0000

 **********************************************************************

            Population analysis using the SCF density.

 **********************************************************************

 Orbital symmetries:
       Occupied  (A) (A) (A) (A) (A) (A) (A) (A) (A) (A) (A) (A)
                 (A) (A) (A) (A) (A) (A) (A) (A) (A) (A) (A) (A)
                 (A) (A) (A) (A) (A) (A) (A) (A) (A) (A) (A) (A)
                 (A) (A) (A) (A) (A) (A) (A) (A) (A) (A) (A) (A)
                 (A) (A) (A) (A) (A) (A) (A) (A) (A)
       Virtual   (A) (A) (A) (A) (A) (A) (A) (A) (A) (A) (A) (A)
                 (A) (A) (A) (A) (A) (A) (A) (A) (A) (A) (A) (A)
                 (A) (A) (A) (A) (A) (A) (A) (A) (A) (A) (A) (A)
                 (A) (A) (A) (A) (A) (A) (A) (A) (A) (A) (A) (A)
                 (A) (A) (A) (A) (A) (A) (A) (A) (A) (A) (A) (A)
                 (A) (A) (A) (A) (A) (A) (A) (A) (A) (A) (A) (A)
                 (A) (A) (A) (A) (A) (A) (A) (A) (A) (A) (A) (A)
                 (A) (A) (A) (A) (A) (A) (A) (A) (A) (A) (A) (A)
                 (A) (A) (A) (A) (A) (A) (A) (A) (A) (A) (A) (A)
                 (A) (A) (A) (A) (A) (A) (A) (A) (A) (A) (A) (A)
                 (A) (A) (A) (A) (A) (A) (A) (A) (A) (A) (A) (A)
                 (A) (A) (A) (A) (A) (A) (A) (A) (A) (A)
 The electronic state is 1-A.
 Alpha  occ. eigenvalues -- -145.53305-145.48106-145.46497 -77.31647 -19.29958
 Alpha  occ. eigenvalues --  -19.29139 -19.27655 -19.27650 -19.10312 -15.60150
 Alpha  occ. eigenvalues --  -15.54942 -15.53356 -12.73386 -12.73382 -12.73217
 Alpha  occ. eigenvalues --  -12.68161 -12.68125 -12.68046 -12.66610 -12.66574
 Alpha  occ. eigenvalues --  -12.66405  -6.77271  -4.93703  -4.93471  -4.93053
 Alpha  occ. eigenvalues --   -1.97335  -1.92139  -1.90667  -1.25317  -1.25145
 Alpha  occ. eigenvalues --   -1.25007  -1.20357  -1.19794  -1.19242  -1.18527
 Alpha  occ. eigenvalues --   -1.18451  -1.17871  -1.15552  -1.10910  -1.09765
 Alpha  occ. eigenvalues --   -0.91288  -0.84521  -0.68931  -0.57899  -0.55272
 Alpha  occ. eigenvalues --   -0.54483  -0.51220  -0.50445  -0.49460  -0.46903
 Alpha  occ. eigenvalues --   -0.45456  -0.42699  -0.38844  -0.36712  -0.30148
 Alpha  occ. eigenvalues --   -0.28564  -0.28511
 Alpha virt. eigenvalues --   -0.21596  -0.19566  -0.17912  -0.15026  -0.15010
 Alpha virt. eigenvalues --   -0.11255  -0.10532  -0.09852  -0.09288  -0.08793
 Alpha virt. eigenvalues --   -0.08673  -0.08136  -0.07317  -0.06844  -0.06404
 Alpha virt. eigenvalues --   -0.05271  -0.05161  -0.04773  -0.04393  -0.04325
 Alpha virt. eigenvalues --   -0.04067  -0.03928  -0.03832  -0.03754  -0.03164
 Alpha virt. eigenvalues --   -0.02886  -0.02820  -0.02755  -0.02035  -0.00676
 Alpha virt. eigenvalues --    0.01191   0.02367   0.03019   0.03129   0.03556
 Alpha virt. eigenvalues --    0.04613   0.04769   0.05245   0.05720   0.05973
 Alpha virt. eigenvalues --    0.06044   0.07068   0.07150   0.08138   0.08649
 Alpha virt. eigenvalues --    0.09105   0.09286   0.10065   0.10526   0.11194
 Alpha virt. eigenvalues --    0.12828   0.12889   0.14777   0.14996   0.16231
 Alpha virt. eigenvalues --    0.16451   0.16526   0.17567   0.18105   0.20918
 Alpha virt. eigenvalues --    0.21382   0.22314   0.22844   0.23444   0.24455
 Alpha virt. eigenvalues --    0.26186   0.28127   0.28791   0.29850   0.31215
 Alpha virt. eigenvalues --    0.31309   0.33453   0.35768   0.37586   0.39301
 Alpha virt. eigenvalues --    0.42538   0.43243   0.45403   0.47295   0.47387
 Alpha virt. eigenvalues --    0.51482   0.53833   0.56499   0.60317   0.61237
 Alpha virt. eigenvalues --    0.63757   0.84709   0.89738   0.94115   0.99227
 Alpha virt. eigenvalues --    1.04396   1.06950   1.08626   1.10109   1.11255
 Alpha virt. eigenvalues --    1.11296   1.14312   1.15321   1.17561   1.19314
 Alpha virt. eigenvalues --    1.19828   1.21098   1.24057   1.29929   1.34428
 Alpha virt. eigenvalues --    1.35822   1.41128   1.46722   1.47082   1.53229
 Alpha virt. eigenvalues --    1.54271   1.60393   1.65370   1.66151   1.66535
 Alpha virt. eigenvalues --    1.69476   1.73045   1.74286   1.76449   1.78974
 Alpha virt. eigenvalues --    1.82228   1.83836   1.84147   1.86188   1.87442
 Alpha virt. eigenvalues --    1.89436   1.92627   1.95939   2.01016   2.04349
 Alpha virt. eigenvalues --    2.16469   2.17827   2.17895   2.50724   2.67352
 Alpha virt. eigenvalues --    3.00523   3.38855   3.87250   3.89009   4.00825
 Alpha virt. eigenvalues --    4.08739   4.08992
          Condensed to atoms (all electrons):
              1          2          3          4          5          6
     1  O    8.920887  -0.005211   0.034102  -0.000385  -0.000451   0.022365
     2  O   -0.005211   8.679295   0.224553   0.000558   0.000547   0.001290
     3  Ca   0.034102   0.224553  18.364870   0.027502   0.027751  -0.004177
     4  O   -0.000385   0.000558   0.027502   8.576734  -0.050471   0.094765
     5  O   -0.000451   0.000547   0.027751  -0.050471   8.577165   0.094569
     6  Ca   0.022365   0.001290  -0.004177   0.094765   0.094569  18.244129
     7  P   -0.159691  -0.001397  -0.006682  -0.004094  -0.004198  -0.018402
     8  O   -0.074546   0.000000   0.003483  -0.001306  -0.001200   0.079154
     9  Ca   0.005516   0.224171  -0.027484   0.050891   0.050803  -0.016934
              7          8          9
     1  O   -0.159691  -0.074546   0.005516
     2  O   -0.001397   0.000000   0.224171
     3  Ca  -0.006682   0.003483  -0.027484
     4  O   -0.004094  -0.001306   0.050891
     5  O   -0.004198  -0.001200   0.050803
     6  Ca  -0.018402   0.079154  -0.016934
     7  P   14.415608   0.111164  -0.012419
     8  O    0.111164   8.529545   0.001062
     9  Ca  -0.012419   0.001062  18.361371
 Mulliken atomic charges:
              1
     1  O   -0.742586
     2  O   -1.123807
     3  Ca   1.356083
     4  O   -0.694193
     5  O   -0.694515
     6  Ca   1.503242
     7  P    0.680110
     8  O   -0.647357
     9  Ca   1.363024
 Sum of Mulliken charges=   1.00000
 Atomic charges with hydrogens summed into heavy atoms:
              1
     1  O   -0.742586
     2  O   -1.123807
     3  Ca   1.356083
     4  O   -0.694193
     5  O   -0.694515
     6  Ca   1.503242
     7  P    0.680110
     8  O   -0.647357
     9  Ca   1.363024
 Sum of Mulliken charges=   1.00000
 Electronic spatial extent (au):  <R**2>=  2764.7478
 Charge=     1.0000 electrons
 Dipole moment (field-independent basis, Debye):
    X=    -0.3516    Y=    -7.6432    Z=     0.0303  Tot=     7.6514
 Quadrupole moment (field-independent basis, Debye-Ang):
   XX=   -63.3875   YY=   -57.0772   ZZ=   -77.2572
   XY=   -23.1551   XZ=    -0.1437   YZ=    -0.0240
 Traceless Quadrupole moment (field-independent basis, Debye-Ang):
   XX=     2.5198   YY=     8.8301   ZZ=   -11.3499
   XY=   -23.1551   XZ=    -0.1437   YZ=    -0.0240
 Octapole moment (field-independent basis, Debye-Ang**2):
  XXX=   107.9075  YYY=   -38.0609  ZZZ=     0.0843  XYY=   -27.8114
  XXY=  -109.5392  XXZ=     0.0750  XZZ=    -2.9044  YZZ=    -3.4967
  YYZ=     0.1998  XYZ=     0.4177
 Hexadecapole moment (field-independent basis, Debye-Ang**3):
 XXXX= -2334.5953 YYYY=  -569.8240 ZZZZ=  -129.5986 XXXY=  -483.6533
 XXXZ=    -2.0812 YYYX=    -2.8673 YYYZ=     0.0083 ZZZX=    -0.3063
 ZZZY=     0.0188 XXYY=  -576.0849 XXZZ=  -421.9474 YYZZ=  -130.0831
 XXYZ=     0.0809 YYXZ=    -0.2137 ZZXY=    -6.1328
 N-N= 9.783348324344D+02 E-N=-8.456667280551D+03  KE= 2.742194496428D+03
 Merz-Kollman atomic radii used.
 Read replacement radii for each type of atom:
 Rad(20) =   1.188000000000D+00
 Atom Element Radius
    1     8    1.40
    2     8    1.40
    3    20    1.19
    4     8    1.40
    5     8    1.40
    6    20    1.19
    7    15    1.80
    8     8    1.40
    9    20    1.19

 **********************************************************************

            Electrostatic Properties Using The SCF Density

 **********************************************************************

       Atomic Center    1 is at  -1.613100  1.040648  0.008771
       Atomic Center    2 is at   2.874580  1.416393 -0.002569
       Atomic Center    3 is at   0.725750  1.518541  0.003601
       Atomic Center    4 is at   0.823822 -0.881379  0.778971
       Atomic Center    5 is at   0.819662 -0.879309 -0.776659
       Atomic Center    6 is at  -1.221907 -1.492771  0.005701
       Atomic Center    7 is at  -3.170430  0.867167 -0.005419
       Atomic Center    8 is at  -3.410918 -0.652973 -0.009479
       Atomic Center    9 is at   3.076362 -0.693497 -0.004849
     873 points will be used for fitting atomic charges
 Fitting point charges to eletrostatic potential
 Charges from ESP fit, RMS=   0.00489 RRMS=   0.03301:
 Charge=   1.00000 Dipole=    -0.1039    -7.7129     0.0288 Tot=     7.7136
              1
     1  O   -0.761116
     2  O   -1.476027
     3  Ca   1.662066
     4  O   -0.865832
     5  O   -0.865859
     6  Ca   1.730502
     7  P    0.596630
     8  O   -0.647838
     9  Ca   1.627474
 -----------------------------------------------------------------

              Electrostatic Properties (Atomic Units)

 -----------------------------------------------------------------
    Center     Electric         -------- Electric Field --------
               Potential          X             Y             Z
 -----------------------------------------------------------------
    1 Atom    -22.165610
    2 Atom    -22.360298
    3 Atom    -80.075602
    4 Atom    -22.188366
    5 Atom    -22.188390
    6 Atom    -80.007401
    7 Atom    -53.900351
    8 Atom    -22.175266
    9 Atom    -80.060439
 -----------------------------------------------------------------
 1\1\GINC-N021\SP\RB3LYP\6-31+G(d,p)\Ca3O5P1(1+)\TIMN\12-Jun-2015\0\\# 
 b3lyp/6-31+G(d,p) int=ultrafine pop=(ReadRadii,MK)\\mol_17.27.15.pdbcc
 c_plusQ.z58482.zip.xyz\\1,1\O,0,-1.6131,1.04065,0.00877\O,0,2.87458,1.
 41639,-0.00257\Ca,0,0.72575,1.51854,0.0036\O,0,0.82382,-0.88138,0.7789
 7\O,0,0.81966,-0.87931,-0.77666\Ca,0,-1.22191,-1.49277,0.0057\P,0,-3.1
 7043,0.86717,-0.00542\O,0,-3.41092,-0.65297,-0.00948\Ca,0,3.07636,-0.6
 935,-0.00485\\Version=EM64T-G03RevE.01\State=1-A\HF=-2750.1992266\RMSD
 =8.778e-05\Thermal=0.\Dipole=-0.1383223,-3.0070839,0.0119315\PG=C01 [X
 (Ca3O5P1)]\\@


 I WOULD TAKE COUNSEL OF MYSELF.
 I WOULD STOP AND LOOK WITHIN
 AND LOOKING WITHIN, LOOK BACK, ALSO
 THAT I MAY LOOK AHEAD WITH CLEARER UNDERSTANDING
 OF THE WAY I HAVE BEEN MOVING, AND IN WHAT DIRECTION.
 I NEED TO KNOW IF I AM GOING FORWARD OR RETREATING,
 WHETHER I HAVE BEEN WASTING, OR ENJOYING
 THE PRECIOUS MOMENTS OF LIFE.  THERE HAVE BEEN FRICTIONS,
 ANNOYANCES AND SOMETIMES WRATH,
 BUT WERE THEY BECAUSE I WAS RIGHT AND OTHERS WRONG.....
 HAVE I HAD MY THOUGHTS TOO SHARPLY FOCUSED
 ON THAT WHICH PLEASED ME, SERVED MY SELF-ESTEEM,
 UNDERGIRDED MY SECURITY,
 OF WHICH I DID NOT INQUIRE WHETHER IT SERVED OR HAMPERED OTHERS.....
 HAVE I BEEN TRYING TO STOP THE CLOCK
 TO HOLD THE WORLD
 IN PERPETUATION OF WHAT WAS AN IS ALREADY SLIPPING AWAY.....
 HAVE I BEEN CRITICAL OF OTHERS FOR WHAT REALLY NEEDED CHANGING IN ME...
 LET ME INDEED TAKE COUNSEL OF MYSELF
 AND SET MY DIRECTIONS STRAIGHT.

                          R.T. WESTON AS ADAPTED BY D. OSBORN 1967
 Job cpu time:  0 days  0 hours  1 minutes 56.8 seconds.
 File lengths (MBytes):  RWF=     36 Int=      0 D2E=      0 Chk=     11 Scr=      1
 Normal termination of Gaussian 03 at Fri Jun 12 18:02:50 2015.
