 Entering Gaussian System, Link 0=/home/timn/tmp/g03.e01/g03
 Input=mol_17.24.16.pdbcc_plusQ.z58271.zip.xyz.gjf
 Output=mol_17.24.16.pdbcc_plusQ.z58271.zip.xyz.out
 Initial command:
 /home/timn/tmp/g03.e01/l1.exe /home/timn/tmp/g03.e01/Gau-14719.inp -scrdir=/home/timn/tmp/g03.e01/
 Default is to use a total of   2 processors:
                                2 via shared-memory
                                1 via Linda
 Entering Link 1 = /home/timn/tmp/g03.e01/l1.exe PID=     14720.
  
 Copyright (c) 1988,1990,1992,1993,1995,1998,2003,2004,2007, Gaussian, Inc.
                  All Rights Reserved.
  
 This is the Gaussian(R) 03 program.  It is based on the
 the Gaussian(R) 98 system (copyright 1998, Gaussian, Inc.),
 the Gaussian(R) 94 system (copyright 1995, Gaussian, Inc.),
 the Gaussian 92(TM) system (copyright 1992, Gaussian, Inc.),
 the Gaussian 90(TM) system (copyright 1990, Gaussian, Inc.),
 the Gaussian 88(TM) system (copyright 1988, Gaussian, Inc.),
 the Gaussian 86(TM) system (copyright 1986, Carnegie Mellon
 University), and the Gaussian 82(TM) system (copyright 1983,
 Carnegie Mellon University). Gaussian is a federally registered
 trademark of Gaussian, Inc.
  
 This software contains proprietary and confidential information,
 including trade secrets, belonging to Gaussian, Inc.
  
 This software is provided under written license and may be
 used, copied, transmitted, or stored only in accord with that
 written license.
  
 The following legend is applicable only to US Government
 contracts under FAR:
  
                    RESTRICTED RIGHTS LEGEND
  
 Use, reproduction and disclosure by the US Government is
 subject to restrictions as set forth in subparagraphs (a)
 and (c) of the Commercial Computer Software - Restricted
 Rights clause in FAR 52.227-19.
  
 Gaussian, Inc.
 340 Quinnipiac St., Bldg. 40, Wallingford CT 06492
  
  
 ---------------------------------------------------------------
 Warning -- This program may not be used in any manner that
 competes with the business of Gaussian, Inc. or will provide
 assistance to any competitor of Gaussian, Inc.  The licensee
 of this program is prohibited from giving any competitor of
 Gaussian, Inc. access to this program.  By using this program,
 the user acknowledges that Gaussian, Inc. is engaged in the
 business of creating and licensing software in the field of
 computational chemistry and represents and warrants to the
 licensee that it is not a competitor of Gaussian, Inc. and that
 it will not use this program in any manner prohibited above.
 ---------------------------------------------------------------
  

 Cite this work as:
 Gaussian 03, Revision E.01,
 M. J. Frisch, G. W. Trucks, H. B. Schlegel, G. E. Scuseria, 
 M. A. Robb, J. R. Cheeseman, J. A. Montgomery, Jr., T. Vreven, 
 K. N. Kudin, J. C. Burant, J. M. Millam, S. S. Iyengar, J. Tomasi, 
 V. Barone, B. Mennucci, M. Cossi, G. Scalmani, N. Rega, 
 G. A. Petersson, H. Nakatsuji, M. Hada, M. Ehara, K. Toyota, 
 R. Fukuda, J. Hasegawa, M. Ishida, T. Nakajima, Y. Honda, O. Kitao, 
 H. Nakai, M. Klene, X. Li, J. E. Knox, H. P. Hratchian, J. B. Cross, 
 V. Bakken, C. Adamo, J. Jaramillo, R. Gomperts, R. E. Stratmann, 
 O. Yazyev, A. J. Austin, R. Cammi, C. Pomelli, J. W. Ochterski, 
 P. Y. Ayala, K. Morokuma, G. A. Voth, P. Salvador, J. J. Dannenberg, 
 V. G. Zakrzewski, S. Dapprich, A. D. Daniels, M. C. Strain, 
 O. Farkas, D. K. Malick, A. D. Rabuck, K. Raghavachari, 
 J. B. Foresman, J. V. Ortiz, Q. Cui, A. G. Baboul, S. Clifford, 
 J. Cioslowski, B. B. Stefanov, G. Liu, A. Liashenko, P. Piskorz, 
 I. Komaromi, R. L. Martin, D. J. Fox, T. Keith, M. A. Al-Laham, 
 C. Y. Peng, A. Nanayakkara, M. Challacombe, P. M. W. Gill, 
 B. Johnson, W. Chen, M. W. Wong, C. Gonzalez, and J. A. Pople, 
 Gaussian, Inc., Wallingford CT, 2004.
 
 ******************************************
 Gaussian 03:  EM64T-G03RevE.01 11-Sep-2007
                12-Jun-2015 
 ******************************************
 %nproc=2
 Will use up to    2 processors via shared memory.
 Default route:  MP2=Direct MaxDisk=2000MB
 ----------------------------------------------------
 # b3lyp/6-31+G(d,p) int=ultrafine pop=(ReadRadii,MK)
 ----------------------------------------------------

 Warning!  SCF SP cutoffs with diffuse functions may be unreliable.
 Consider SCF=Tight

 1/38=1/1;
 2/17=6,18=5,40=1/2;
 3/5=1,6=6,7=111,11=2,16=1,25=1,30=1,74=-5,75=5/1,2,3;
 4//1;
 5/5=2,32=1,38=5/2;
 6/7=2,8=2,9=2,10=2,15=8,20=101,28=1/1,2;
 99/5=1,9=1/99;
 ---------------------------------------
 mol_17.24.16.pdbcc_plusQ.z58271.zip.xyz
 ---------------------------------------
 Symbolic Z-matrix:
 Charge =  1 Multiplicity = 1
 O                    -0.64876   0.84508  -0.28562 
 O                     2.96627   0.76249  -0.08077 
 Ca                    2.68685  -1.3246   -0.35522 
 Ca                    1.27755   1.98772   0.30147 
 Ca                   -2.78359   0.36219  -0.91971 
 P                    -0.41614  -0.53021   0.71739 
 O                     0.46847  -1.51785  -0.13489 
 O                    -1.94462  -1.2587    0.45904 
 O                    -3.01311  -0.40015   1.13076 
 
                          Input orientation:                          
 ---------------------------------------------------------------------
 Center     Atomic     Atomic              Coordinates (Angstroms)
 Number     Number      Type              X           Y           Z
 ---------------------------------------------------------------------
    1          8             0       -0.648760    0.845080   -0.285620
    2          8             0        2.966270    0.762490   -0.080770
    3         20             0        2.686850   -1.324600   -0.355220
    4         20             0        1.277550    1.987720    0.301470
    5         20             0       -2.783590    0.362190   -0.919710
    6         15             0       -0.416140   -0.530210    0.717390
    7          8             0        0.468470   -1.517850   -0.134890
    8          8             0       -1.944620   -1.258700    0.459040
    9          8             0       -3.013110   -0.400150    1.130760
 ---------------------------------------------------------------------
                    Distance matrix (angstroms):
                    1          2          3          4          5
     1  O    0.000000
     2  O    3.621771   0.000000
     3  Ca   3.979780   2.123521   0.000000
     4  Ca   2.315377   2.121101   3.659075   0.000000
     5  Ca   2.278761   5.824513   5.752358   4.541639   0.000000
     6  P    1.718012   3.707941   3.377883   3.062931   3.013518
     7  O    2.618083   3.382585   2.237655   3.624092   3.837498
     8  O    2.580632   5.337925   4.702965   4.576729   2.287380
     9  O    3.024381   6.210678   5.962574   4.979900   2.199607
                    6          7          8          9
     6  P    0.000000
     7  O    1.576182   0.000000
     8  O    1.712803   2.498583   0.000000
     9  O    2.632877   3.869434   1.526429   0.000000
 Stoichiometry    Ca3O5P(1+)
 Framework group  C1[X(Ca3O5P)]
 Deg. of freedom    21
 Full point group                 C1
 Largest Abelian subgroup         C1      NOp   1
 Largest concise Abelian subgroup C1      NOp   1
                         Standard orientation:                         
 ---------------------------------------------------------------------
 Center     Atomic     Atomic              Coordinates (Angstroms)
 Number     Number      Type              X           Y           Z
 ---------------------------------------------------------------------
    1          8             0       -0.648759    0.845081   -0.285618
    2          8             0        2.966270    0.762485   -0.080768
    3         20             0        2.686847   -1.324605   -0.355218
    4         20             0        1.277553    1.987718    0.301472
    5         20             0       -2.783590    0.362195   -0.919708
    6         15             0       -0.416142   -0.530209    0.717392
    7          8             0        0.468466   -1.517851   -0.134888
    8          8             0       -1.944623   -1.258697    0.459042
    9          8             0       -3.013112   -0.400145    1.130762
 ---------------------------------------------------------------------
 Rotational constants (GHZ):      1.2285232      0.4555654      0.3735685
 Standard basis: 6-31+G(d,p) (6D, 7F)
 There are   199 symmetry adapted basis functions of A   symmetry.
 Integral buffers will be    131072 words long.
 Raffenetti 2 integral format.
 Two-electron integral symmetry is turned on.
   199 basis functions,   456 primitive gaussians,   199 cartesian basis functions
    57 alpha electrons       57 beta electrons
       nuclear repulsion energy       977.0430897033 Hartrees.
 NAtoms=    9 NActive=    9 NUniq=    9 SFac= 7.50D-01 NAtFMM=   80 NAOKFM=F Big=F
 One-electron integrals computed using PRISM.
 NBasis=   199 RedAO= T  NBF=   199
 NBsUse=   199 1.00D-06 NBFU=   199
 Harris functional with IExCor=  402 diagonalized for initial guess.
 ExpMin= 7.10D-03 ExpMax= 3.53D+04 ExpMxC= 5.30D+03 IAcc=3 IRadAn=         5 AccDes= 0.00D+00
 HarFok:  IExCor= 402 AccDes= 0.00D+00 IRadAn=         5 IDoV=1
 ScaDFX=  1.000000  1.000000  1.000000  1.000000
 Initial guess orbital symmetries:
       Occupied  (A) (A) (A) (A) (A) (A) (A) (A) (A) (A) (A) (A)
                 (A) (A) (A) (A) (A) (A) (A) (A) (A) (A) (A) (A)
                 (A) (A) (A) (A) (A) (A) (A) (A) (A) (A) (A) (A)
                 (A) (A) (A) (A) (A) (A) (A) (A) (A) (A) (A) (A)
                 (A) (A) (A) (A) (A) (A) (A) (A) (A)
       Virtual   (A) (A) (A) (A) (A) (A) (A) (A) (A) (A) (A) (A)
                 (A) (A) (A) (A) (A) (A) (A) (A) (A) (A) (A) (A)
                 (A) (A) (A) (A) (A) (A) (A) (A) (A) (A) (A) (A)
                 (A) (A) (A) (A) (A) (A) (A) (A) (A) (A) (A) (A)
                 (A) (A) (A) (A) (A) (A) (A) (A) (A) (A) (A) (A)
                 (A) (A) (A) (A) (A) (A) (A) (A) (A) (A) (A) (A)
                 (A) (A) (A) (A) (A) (A) (A) (A) (A) (A) (A) (A)
                 (A) (A) (A) (A) (A) (A) (A) (A) (A) (A) (A) (A)
                 (A) (A) (A) (A) (A) (A) (A) (A) (A) (A) (A) (A)
                 (A) (A) (A) (A) (A) (A) (A) (A) (A) (A) (A) (A)
                 (A) (A) (A) (A) (A) (A) (A) (A) (A) (A) (A) (A)
                 (A) (A) (A) (A) (A) (A) (A) (A) (A) (A)
 The electronic state of the initial guess is 1-A.
 Requested convergence on RMS density matrix=1.00D-04 within 128 cycles.
 Requested convergence on MAX density matrix=1.00D-02.
 Requested convergence on             energy=1.00D-02.
 No special actions if energy rises.
 EnCoef did     3 forward-backward iterations
 EnCoef did   100 forward-backward iterations
 SCF Done:  E(RB+HF-LYP) =  -2750.12385946     A.U. after    9 cycles
             Convg  =    0.4977D-04             -V/T =  2.0029
             S**2   =   0.0000

 **********************************************************************

            Population analysis using the SCF density.

 **********************************************************************

 Orbital symmetries:
       Occupied  (A) (A) (A) (A) (A) (A) (A) (A) (A) (A) (A) (A)
                 (A) (A) (A) (A) (A) (A) (A) (A) (A) (A) (A) (A)
                 (A) (A) (A) (A) (A) (A) (A) (A) (A) (A) (A) (A)
                 (A) (A) (A) (A) (A) (A) (A) (A) (A) (A) (A) (A)
                 (A) (A) (A) (A) (A) (A) (A) (A) (A)
       Virtual   (A) (A) (A) (A) (A) (A) (A) (A) (A) (A) (A) (A)
                 (A) (A) (A) (A) (A) (A) (A) (A) (A) (A) (A) (A)
                 (A) (A) (A) (A) (A) (A) (A) (A) (A) (A) (A) (A)
                 (A) (A) (A) (A) (A) (A) (A) (A) (A) (A) (A) (A)
                 (A) (A) (A) (A) (A) (A) (A) (A) (A) (A) (A) (A)
                 (A) (A) (A) (A) (A) (A) (A) (A) (A) (A) (A) (A)
                 (A) (A) (A) (A) (A) (A) (A) (A) (A) (A) (A) (A)
                 (A) (A) (A) (A) (A) (A) (A) (A) (A) (A) (A) (A)
                 (A) (A) (A) (A) (A) (A) (A) (A) (A) (A) (A) (A)
                 (A) (A) (A) (A) (A) (A) (A) (A) (A) (A) (A) (A)
                 (A) (A) (A) (A) (A) (A) (A) (A) (A) (A) (A) (A)
                 (A) (A) (A) (A) (A) (A) (A) (A) (A) (A)
 The electronic state is 1-A.
 Alpha  occ. eigenvalues -- -145.52462-145.49019-145.48651 -77.25669 -19.27823
 Alpha  occ. eigenvalues --  -19.22836 -19.22140 -19.21059 -19.12477 -15.59292
 Alpha  occ. eigenvalues --  -15.55904 -15.55547 -12.72516 -12.72456 -12.72416
 Alpha  occ. eigenvalues --  -12.69154 -12.69099 -12.68959 -12.68797 -12.68719
 Alpha  occ. eigenvalues --  -12.68617  -6.70820  -4.87217  -4.87159  -4.86611
 Alpha  occ. eigenvalues --   -1.96470  -1.93142  -1.92785  -1.24744  -1.23996
 Alpha  occ. eigenvalues --   -1.23682  -1.21015  -1.20802  -1.20626  -1.20376
 Alpha  occ. eigenvalues --   -1.20121  -1.19560  -1.12443  -1.05472  -1.01513
 Alpha  occ. eigenvalues --   -0.89723  -0.86718  -0.63917  -0.53424  -0.51606
 Alpha  occ. eigenvalues --   -0.50595  -0.47029  -0.44589  -0.42847  -0.41261
 Alpha  occ. eigenvalues --   -0.38430  -0.33904  -0.32804  -0.32487  -0.31768
 Alpha  occ. eigenvalues --   -0.30861  -0.30584
 Alpha virt. eigenvalues --   -0.20707  -0.18577  -0.17494  -0.12517  -0.12234
 Alpha virt. eigenvalues --   -0.10368  -0.09895  -0.09384  -0.08640  -0.08230
 Alpha virt. eigenvalues --   -0.07494  -0.07342  -0.07104  -0.05902  -0.05763
 Alpha virt. eigenvalues --   -0.05299  -0.04962  -0.04664  -0.04350  -0.03952
 Alpha virt. eigenvalues --   -0.03832  -0.03814  -0.03390  -0.03151  -0.03009
 Alpha virt. eigenvalues --   -0.02889  -0.01769  -0.00414   0.00351   0.00961
 Alpha virt. eigenvalues --    0.02304   0.03253   0.03790   0.04214   0.04337
 Alpha virt. eigenvalues --    0.04823   0.05003   0.05485   0.05951   0.06539
 Alpha virt. eigenvalues --    0.06714   0.07340   0.07774   0.08420   0.09490
 Alpha virt. eigenvalues --    0.09869   0.10223   0.11074   0.11267   0.11860
 Alpha virt. eigenvalues --    0.12379   0.12958   0.14488   0.14812   0.16939
 Alpha virt. eigenvalues --    0.17638   0.18279   0.19966   0.21739   0.21826
 Alpha virt. eigenvalues --    0.23283   0.24701   0.25261   0.25807   0.26642
 Alpha virt. eigenvalues --    0.27712   0.28451   0.29557   0.31031   0.31917
 Alpha virt. eigenvalues --    0.32696   0.33400   0.37175   0.37474   0.38652
 Alpha virt. eigenvalues --    0.41367   0.43222   0.45124   0.47772   0.51442
 Alpha virt. eigenvalues --    0.53420   0.60318   0.60953   0.64304   0.66843
 Alpha virt. eigenvalues --    0.73912   0.80074   0.86649   0.92334   0.96936
 Alpha virt. eigenvalues --    1.02515   1.12378   1.13359   1.14327   1.15157
 Alpha virt. eigenvalues --    1.16668   1.17304   1.19232   1.20012   1.22068
 Alpha virt. eigenvalues --    1.22682   1.25713   1.27694   1.29461   1.31631
 Alpha virt. eigenvalues --    1.37642   1.45648   1.48879   1.54193   1.57197
 Alpha virt. eigenvalues --    1.58046   1.59630   1.68735   1.73423   1.74937
 Alpha virt. eigenvalues --    1.75221   1.76888   1.79702   1.82160   1.84643
 Alpha virt. eigenvalues --    1.84884   1.85209   1.88041   1.90356   1.90978
 Alpha virt. eigenvalues --    1.94308   1.96129   1.97368   2.03031   2.03299
 Alpha virt. eigenvalues --    2.23368   2.25610   2.35362   2.47568   2.68616
 Alpha virt. eigenvalues --    3.09644   3.51661   3.96261   3.98232   4.04435
 Alpha virt. eigenvalues --    4.11544   4.21274
          Condensed to atoms (all electrons):
              1          2          3          4          5          6
     1  O    9.306798   0.010453   0.014023   0.097489   0.065569  -0.613857
     2  O    0.010453   8.757316   0.216397   0.228703   0.000102  -0.036701
     3  Ca   0.014023   0.216397  18.273642  -0.008806  -0.001879  -0.042100
     4  Ca   0.097489   0.228703  -0.008806  18.291016  -0.008758  -0.072205
     5  Ca   0.065569   0.000102  -0.001879  -0.008758  18.281328  -0.011004
     6  P   -0.613857  -0.036701  -0.042100  -0.072205  -0.011004  15.712498
     7  O    0.125295   0.007855   0.099884   0.032531   0.004768  -0.556348
     8  O   -0.019809   0.002462   0.005510   0.014301   0.041615  -0.114355
     9  O    0.053730   0.000410   0.002117   0.002984   0.164360  -0.079112
              7          8          9
     1  O    0.125295  -0.019809   0.053730
     2  O    0.007855   0.002462   0.000410
     3  Ca   0.099884   0.005510   0.002117
     4  Ca   0.032531   0.014301   0.002984
     5  Ca   0.004768   0.041615   0.164360
     6  P   -0.556348  -0.114355  -0.079112
     7  O    9.066503   0.104828  -0.001922
     8  O    0.104828   8.460327   0.006070
     9  O   -0.001922   0.006070   8.381367
 Mulliken atomic charges:
              1
     1  O   -1.039691
     2  O   -1.186996
     3  Ca   1.441213
     4  Ca   1.422745
     5  Ca   1.463899
     6  P    0.813182
     7  O   -0.883397
     8  O   -0.500949
     9  O   -0.530006
 Sum of Mulliken charges=   1.00000
 Atomic charges with hydrogens summed into heavy atoms:
              1
     1  O   -1.039691
     2  O   -1.186996
     3  Ca   1.441213
     4  Ca   1.422745
     5  Ca   1.463899
     6  P    0.813182
     7  O   -0.883397
     8  O   -0.500949
     9  O   -0.530006
 Sum of Mulliken charges=   1.00000
 Electronic spatial extent (au):  <R**2>=  2685.6521
 Charge=     1.0000 electrons
 Dipole moment (field-independent basis, Debye):
    X=     0.3948    Y=     5.2273    Z=    -8.2516  Tot=     9.7760
 Quadrupole moment (field-independent basis, Debye-Ang):
   XX=   -42.2520   YY=   -46.7633   ZZ=   -72.4948
   XY=   -32.6799   XZ=    26.1414   YZ=     7.1153
 Traceless Quadrupole moment (field-independent basis, Debye-Ang):
   XX=    11.5847   YY=     7.0734   ZZ=   -18.6581
   XY=   -32.6799   XZ=    26.1414   YZ=     7.1153
 Octapole moment (field-independent basis, Debye-Ang**2):
  XXX=   -81.1964  YYY=    67.7271  ZZZ=   -34.4216  XYY=    68.9180
  XXY=   -53.4855  XXZ=  -105.9970  XZZ=    -7.3248  YZZ=     5.5148
  YYZ=     0.5382  XYZ=    20.2806
 Hexadecapole moment (field-independent basis, Debye-Ang**3):
 XXXX= -1872.6405 YYYY=  -505.1586 ZZZZ=  -258.7885 XXXY=  -495.1146
 XXXZ=   259.7770 YYYX=   -32.3325 YYYZ=    38.1853 ZZZX=    72.0322
 ZZZY=    16.6127 XXYY=  -319.4681 XXZZ=  -336.7303 YYZZ=  -139.0710
 XXYZ=    38.5191 YYXZ=    20.3796 ZZXY=   -32.8178
 N-N= 9.770430897033D+02 E-N=-8.456038271918D+03  KE= 2.742141702849D+03
 Merz-Kollman atomic radii used.
 Read replacement radii for each type of atom:
 Rad(20) =   1.188000000000D+00
 Atom Element Radius
    1     8    1.40
    2     8    1.40
    3    20    1.19
    4    20    1.19
    5    20    1.19
    6    15    1.80
    7     8    1.40
    8     8    1.40
    9     8    1.40

 **********************************************************************

            Electrostatic Properties Using The SCF Density

 **********************************************************************

       Atomic Center    1 is at  -0.648759  0.845081 -0.285618
       Atomic Center    2 is at   2.966270  0.762485 -0.080768
       Atomic Center    3 is at   2.686847 -1.324605 -0.355218
       Atomic Center    4 is at   1.277553  1.987718  0.301472
       Atomic Center    5 is at  -2.783590  0.362195 -0.919708
       Atomic Center    6 is at  -0.416142 -0.530209  0.717392
       Atomic Center    7 is at   0.468466 -1.517851 -0.134888
       Atomic Center    8 is at  -1.944623 -1.258697  0.459042
       Atomic Center    9 is at  -3.013112 -0.400145  1.130762
     799 points will be used for fitting atomic charges
 Fitting point charges to eletrostatic potential
 Charges from ESP fit, RMS=   0.00717 RRMS=   0.04580:
 Charge=   1.00000 Dipole=     0.4136     5.2644    -8.5158 Tot=    10.0202
              1
     1  O   -1.046545
     2  O   -1.509468
     3  Ca   1.659166
     4  Ca   1.654346
     5  Ca   1.622277
     6  P    0.126592
     7  O   -0.724834
     8  O   -0.125068
     9  O   -0.656465
 -----------------------------------------------------------------

              Electrostatic Properties (Atomic Units)

 -----------------------------------------------------------------
    Center     Electric         -------- Electric Field --------
               Potential          X             Y             Z
 -----------------------------------------------------------------
    1 Atom    -22.234253
    2 Atom    -22.338402
    3 Atom    -80.055051
    4 Atom    -80.050939
    5 Atom    -80.016161
    6 Atom    -53.956697
    7 Atom    -22.253364
    8 Atom    -22.191584
    9 Atom    -22.252220
 -----------------------------------------------------------------
 1\1\GINC-N030\SP\RB3LYP\6-31+G(d,p)\Ca3O5P1(1+)\TIMN\12-Jun-2015\0\\# 
 b3lyp/6-31+G(d,p) int=ultrafine pop=(ReadRadii,MK)\\mol_17.24.16.pdbcc
 _plusQ.z58271.zip.xyz\\1,1\O,0,-0.64876,0.84508,-0.28562\O,0,2.96627,0
 .76249,-0.08077\Ca,0,2.68685,-1.3246,-0.35522\Ca,0,1.27755,1.98772,0.3
 0147\Ca,0,-2.78359,0.36219,-0.91971\P,0,-0.41614,-0.53021,0.71739\O,0,
 0.46847,-1.51785,-0.13489\O,0,-1.94462,-1.2587,0.45904\O,0,-3.01311,-0
 .40015,1.13076\\Version=EM64T-G03RevE.01\State=1-A\HF=-2750.1238595\RM
 SD=4.977e-05\Thermal=0.\Dipole=0.1553208,2.0565812,-3.2464459\PG=C01 [
 X(Ca3O5P1)]\\@


 COMMON SENSE IS NOT SO COMMON.   -- VOLTAIRE
 Job cpu time:  0 days  0 hours  2 minutes 12.8 seconds.
 File lengths (MBytes):  RWF=     36 Int=      0 D2E=      0 Chk=     11 Scr=      1
 Normal termination of Gaussian 03 at Fri Jun 12 17:54:57 2015.
