 Entering Gaussian System, Link 0=/home/timn/tmp/g03.e01/g03
 Input=mol_16.4.42.pdb_plusQ.out.z51592.zip.xyz.gjf
 Output=mol_16.4.42.pdb_plusQ.out.z51592.zip.xyz.out
 Initial command:
 /home/timn/tmp/g03.e01/l1.exe /home/timn/tmp/g03.e01/Gau-14322.inp -scrdir=/home/timn/tmp/g03.e01/
 Default is to use a total of   2 processors:
                                2 via shared-memory
                                1 via Linda
 Entering Link 1 = /home/timn/tmp/g03.e01/l1.exe PID=     14325.
  
 Copyright (c) 1988,1990,1992,1993,1995,1998,2003,2004,2007, Gaussian, Inc.
                  All Rights Reserved.
  
 This is the Gaussian(R) 03 program.  It is based on the
 the Gaussian(R) 98 system (copyright 1998, Gaussian, Inc.),
 the Gaussian(R) 94 system (copyright 1995, Gaussian, Inc.),
 the Gaussian 92(TM) system (copyright 1992, Gaussian, Inc.),
 the Gaussian 90(TM) system (copyright 1990, Gaussian, Inc.),
 the Gaussian 88(TM) system (copyright 1988, Gaussian, Inc.),
 the Gaussian 86(TM) system (copyright 1986, Carnegie Mellon
 University), and the Gaussian 82(TM) system (copyright 1983,
 Carnegie Mellon University). Gaussian is a federally registered
 trademark of Gaussian, Inc.
  
 This software contains proprietary and confidential information,
 including trade secrets, belonging to Gaussian, Inc.
  
 This software is provided under written license and may be
 used, copied, transmitted, or stored only in accord with that
 written license.
  
 The following legend is applicable only to US Government
 contracts under FAR:
  
                    RESTRICTED RIGHTS LEGEND
  
 Use, reproduction and disclosure by the US Government is
 subject to restrictions as set forth in subparagraphs (a)
 and (c) of the Commercial Computer Software - Restricted
 Rights clause in FAR 52.227-19.
  
 Gaussian, Inc.
 340 Quinnipiac St., Bldg. 40, Wallingford CT 06492
  
  
 ---------------------------------------------------------------
 Warning -- This program may not be used in any manner that
 competes with the business of Gaussian, Inc. or will provide
 assistance to any competitor of Gaussian, Inc.  The licensee
 of this program is prohibited from giving any competitor of
 Gaussian, Inc. access to this program.  By using this program,
 the user acknowledges that Gaussian, Inc. is engaged in the
 business of creating and licensing software in the field of
 computational chemistry and represents and warrants to the
 licensee that it is not a competitor of Gaussian, Inc. and that
 it will not use this program in any manner prohibited above.
 ---------------------------------------------------------------
  

 Cite this work as:
 Gaussian 03, Revision E.01,
 M. J. Frisch, G. W. Trucks, H. B. Schlegel, G. E. Scuseria, 
 M. A. Robb, J. R. Cheeseman, J. A. Montgomery, Jr., T. Vreven, 
 K. N. Kudin, J. C. Burant, J. M. Millam, S. S. Iyengar, J. Tomasi, 
 V. Barone, B. Mennucci, M. Cossi, G. Scalmani, N. Rega, 
 G. A. Petersson, H. Nakatsuji, M. Hada, M. Ehara, K. Toyota, 
 R. Fukuda, J. Hasegawa, M. Ishida, T. Nakajima, Y. Honda, O. Kitao, 
 H. Nakai, M. Klene, X. Li, J. E. Knox, H. P. Hratchian, J. B. Cross, 
 V. Bakken, C. Adamo, J. Jaramillo, R. Gomperts, R. E. Stratmann, 
 O. Yazyev, A. J. Austin, R. Cammi, C. Pomelli, J. W. Ochterski, 
 P. Y. Ayala, K. Morokuma, G. A. Voth, P. Salvador, J. J. Dannenberg, 
 V. G. Zakrzewski, S. Dapprich, A. D. Daniels, M. C. Strain, 
 O. Farkas, D. K. Malick, A. D. Rabuck, K. Raghavachari, 
 J. B. Foresman, J. V. Ortiz, Q. Cui, A. G. Baboul, S. Clifford, 
 J. Cioslowski, B. B. Stefanov, G. Liu, A. Liashenko, P. Piskorz, 
 I. Komaromi, R. L. Martin, D. J. Fox, T. Keith, M. A. Al-Laham, 
 C. Y. Peng, A. Nanayakkara, M. Challacombe, P. M. W. Gill, 
 B. Johnson, W. Chen, M. W. Wong, C. Gonzalez, and J. A. Pople, 
 Gaussian, Inc., Wallingford CT, 2004.
 
 ******************************************
 Gaussian 03:  EM64T-G03RevE.01 11-Sep-2007
                12-Jun-2015 
 ******************************************
 %nproc=2
 Will use up to    2 processors via shared memory.
 Default route:  MP2=Direct MaxDisk=2000MB
 ----------------------------------------------------
 # b3lyp/6-31+G(d,p) int=ultrafine pop=(ReadRadii,MK)
 ----------------------------------------------------

 Warning!  SCF SP cutoffs with diffuse functions may be unreliable.
 Consider SCF=Tight

 1/38=1/1;
 2/17=6,18=5,40=1/2;
 3/5=1,6=6,7=111,11=2,16=1,25=1,30=1,74=-5,75=5/1,2,3;
 4//1;
 5/5=2,32=1,38=5/2;
 6/7=2,8=2,9=2,10=2,15=8,20=101,28=1/1,2;
 99/5=1,9=1/99;
 ----------------------------------------
 mol_16.4.42.pdb_plusQ.out.z51592.zip.xyz
 ----------------------------------------
 Symbolic Z-matrix:
 Charge =  1 Multiplicity = 1
 O                     0.00003   1.44981   1.27185 
 O                     0.00003   1.44981  -1.27185 
 P                     0.00012   2.32673   0. 
 Ca                   -0.00007  -0.61242  -2.22105 
 O                     0.00003  -2.10008  -0.7197 
 O                     0.00003  -2.10008   0.7197 
 Ca                   -0.00007  -0.61242   2.22105 
 
                          Input orientation:                          
 ---------------------------------------------------------------------
 Center     Atomic     Atomic              Coordinates (Angstroms)
 Number     Number      Type              X           Y           Z
 ---------------------------------------------------------------------
    1          8             0        0.000030    1.449810    1.271850
    2          8             0        0.000030    1.449810   -1.271850
    3         15             0        0.000120    2.326730    0.000000
    4         20             0       -0.000070   -0.612420   -2.221050
    5          8             0        0.000030   -2.100080   -0.719700
    6          8             0        0.000030   -2.100080    0.719700
    7         20             0       -0.000070   -0.612420    2.221050
 ---------------------------------------------------------------------
                    Distance matrix (angstroms):
                    1          2          3          4          5
     1  O    0.000000
     2  O    2.543700   0.000000
     3  P    1.544860   1.544860   0.000000
     4  Ca   4.056247   2.270192   3.683974   0.000000
     5  O    4.070380   3.592574   4.484932   2.113571   0.000000
     6  O    3.592574   4.070380   4.484932   3.295625   1.439400
     7  Ca   2.270192   4.056247   3.683974   4.442100   3.295625
                    6          7
     6  O    0.000000
     7  Ca   2.113571   0.000000
 Stoichiometry    Ca2O4P(1+)
 Framework group  CS[SG(P),X(Ca2O4)]
 Deg. of freedom     8
 Full point group                 CS
 Largest Abelian subgroup         CS      NOp   2
 Largest concise Abelian subgroup CS      NOp   2
                         Standard orientation:                         
 ---------------------------------------------------------------------
 Center     Atomic     Atomic              Coordinates (Angstroms)
 Number     Number      Type              X           Y           Z
 ---------------------------------------------------------------------
    1          8             0        0.000030    1.449812    1.271850
    2          8             0        0.000030    1.449812   -1.271850
    3         15             0        0.000120    2.326732    0.000000
    4         20             0       -0.000070   -0.612418   -2.221050
    5          8             0        0.000030   -2.100078   -0.719700
    6          8             0        0.000030   -2.100078    0.719700
    7         20             0       -0.000070   -0.612418    2.221050
 ---------------------------------------------------------------------
 Rotational constants (GHZ):      1.2449152      1.0924929      0.5818671
 Standard basis: 6-31+G(d,p) (6D, 7F)
 There are    82 symmetry adapted basis functions of A'  symmetry.
 There are    71 symmetry adapted basis functions of A"  symmetry.
 Integral buffers will be    131072 words long.
 Raffenetti 2 integral format.
 Two-electron integral symmetry is turned on.
   153 basis functions,   344 primitive gaussians,   153 cartesian basis functions
    43 alpha electrons       43 beta electrons
       nuclear repulsion energy       564.5417277310 Hartrees.
 NAtoms=    7 NActive=    7 NUniq=    4 SFac= 2.30D+00 NAtFMM=   80 NAOKFM=F Big=F
 One-electron integrals computed using PRISM.
 NBasis=   153 RedAO= T  NBF=    82    71
 NBsUse=   153 1.00D-06 NBFU=    82    71
 Harris functional with IExCor=  402 diagonalized for initial guess.
 ExpMin= 7.10D-03 ExpMax= 3.53D+04 ExpMxC= 5.30D+03 IAcc=3 IRadAn=         5 AccDes= 0.00D+00
 HarFok:  IExCor= 402 AccDes= 0.00D+00 IRadAn=         5 IDoV=1
 ScaDFX=  1.000000  1.000000  1.000000  1.000000
 Initial guess orbital symmetries:
       Occupied  (A") (A') (A') (A") (A') (A') (A") (A") (A') (A")
                 (A') (A") (A') (A") (A') (A') (A") (A') (A') (A')
                 (A") (A') (A') (A") (A") (A') (A") (A') (A') (A")
                 (A") (A') (A") (A') (A') (A') (A') (A') (A") (A")
                 (A") (A") (A')
       Virtual   (A') (A") (A') (A") (A') (A') (A") (A') (A") (A")
                 (A') (A") (A') (A') (A') (A") (A") (A") (A') (A")
                 (A') (A') (A') (A') (A') (A') (A") (A") (A") (A')
                 (A") (A") (A') (A') (A") (A') (A') (A") (A") (A')
                 (A") (A") (A") (A') (A') (A') (A") (A') (A") (A')
                 (A") (A') (A") (A') (A') (A') (A") (A") (A") (A')
                 (A') (A") (A') (A') (A') (A") (A") (A') (A') (A')
                 (A") (A") (A') (A') (A") (A") (A") (A') (A") (A')
                 (A") (A') (A") (A') (A') (A') (A') (A") (A') (A")
                 (A') (A") (A') (A") (A") (A') (A") (A") (A') (A')
                 (A") (A") (A') (A") (A") (A') (A') (A') (A") (A")
 The electronic state of the initial guess is 1-A'.
 Requested convergence on RMS density matrix=1.00D-04 within 128 cycles.
 Requested convergence on MAX density matrix=1.00D-02.
 Requested convergence on             energy=1.00D-02.
 No special actions if energy rises.
 EnCoef did     2 forward-backward iterations
 EnCoef did     2 forward-backward iterations
 SCF Done:  E(RB+HF-LYP) =  -1997.25607107     A.U. after    8 cycles
             Convg  =    0.9601D-04             -V/T =  2.0031
             S**2   =   0.0000

 **********************************************************************

            Population analysis using the SCF density.

 **********************************************************************

 Orbital symmetries:
       Occupied  (A") (A') (A') (A") (A') (A') (A") (A") (A') (A")
                 (A') (A") (A') (A") (A') (A') (A') (A") (A') (A')
                 (A") (A') (A") (A') (A") (A') (A") (A') (A") (A')
                 (A") (A') (A") (A') (A') (A') (A") (A") (A') (A')
                 (A') (A") (A")
       Virtual   (A') (A") (A') (A') (A") (A') (A") (A') (A") (A')
                 (A") (A') (A") (A') (A') (A") (A') (A') (A") (A")
                 (A') (A") (A') (A') (A") (A') (A") (A') (A") (A')
                 (A") (A") (A') (A') (A') (A") (A") (A') (A") (A")
                 (A') (A") (A') (A') (A") (A') (A") (A') (A') (A")
                 (A") (A") (A') (A') (A') (A') (A") (A") (A') (A")
                 (A') (A") (A') (A') (A') (A") (A') (A") (A") (A")
                 (A') (A') (A') (A') (A") (A") (A") (A') (A") (A')
                 (A") (A') (A") (A') (A') (A') (A") (A') (A") (A')
                 (A') (A") (A") (A') (A') (A") (A") (A") (A') (A')
                 (A") (A") (A') (A") (A") (A') (A') (A') (A") (A")
 The electronic state is 1-A'.
 Alpha  occ. eigenvalues -- -145.54171-145.54167 -77.31245 -19.28996 -19.28996
 Alpha  occ. eigenvalues --  -19.21050 -19.21043 -15.60978 -15.60974 -12.74223
 Alpha  occ. eigenvalues --  -12.74222 -12.74164 -12.74164 -12.74076 -12.74074
 Alpha  occ. eigenvalues --   -6.76714  -4.93156  -4.92940  -4.92492  -1.97994
 Alpha  occ. eigenvalues --   -1.97993  -1.25694  -1.25692  -1.25594  -1.25517
 Alpha  occ. eigenvalues --   -1.25263  -1.25060  -1.14979  -1.09643  -1.07603
 Alpha  occ. eigenvalues --   -0.82759  -0.68932  -0.58515  -0.53716  -0.53670
 Alpha  occ. eigenvalues --   -0.48823  -0.46918  -0.44986  -0.42795  -0.42347
 Alpha  occ. eigenvalues --   -0.41541  -0.28049  -0.28026
 Alpha virt. eigenvalues --   -0.21131  -0.21003  -0.20874  -0.13150  -0.12180
 Alpha virt. eigenvalues --   -0.11932  -0.10649  -0.10492  -0.09071  -0.07622
 Alpha virt. eigenvalues --   -0.06795  -0.06049  -0.05610  -0.05451  -0.04870
 Alpha virt. eigenvalues --   -0.04572  -0.04570  -0.04391  -0.04265  -0.03548
 Alpha virt. eigenvalues --   -0.02880  -0.01881  -0.00198   0.00728   0.01580
 Alpha virt. eigenvalues --    0.02488   0.02645   0.03527   0.03637   0.03692
 Alpha virt. eigenvalues --    0.04678   0.04880   0.06194   0.06255   0.06684
 Alpha virt. eigenvalues --    0.06979   0.08190   0.09250   0.11605   0.14288
 Alpha virt. eigenvalues --    0.14643   0.15954   0.17072   0.17344   0.17922
 Alpha virt. eigenvalues --    0.19570   0.20577   0.20686   0.24345   0.25430
 Alpha virt. eigenvalues --    0.25781   0.30028   0.30871   0.30952   0.32509
 Alpha virt. eigenvalues --    0.36343   0.36526   0.40262   0.45657   0.46123
 Alpha virt. eigenvalues --    0.50939   0.55848   0.57051   0.60346   0.76898
 Alpha virt. eigenvalues --    0.77655   0.88748   0.90499   0.96098   1.04745
 Alpha virt. eigenvalues --    1.05312   1.06551   1.08263   1.11304   1.14277
 Alpha virt. eigenvalues --    1.16277   1.16585   1.20542   1.23100   1.25753
 Alpha virt. eigenvalues --    1.29937   1.34583   1.36672   1.39896   1.51566
 Alpha virt. eigenvalues --    1.62306   1.62986   1.64503   1.64796   1.67574
 Alpha virt. eigenvalues --    1.68434   1.71071   1.77982   1.78047   1.84566
 Alpha virt. eigenvalues --    1.84976   1.90111   1.95780   2.00117   2.07758
 Alpha virt. eigenvalues --    2.34393   2.37901   2.52037   2.66718   3.12786
 Alpha virt. eigenvalues --    3.38198   3.80060   3.82150   3.88045   4.20068
          Condensed to atoms (all electrons):
              1          2          3          4          5          6
     1  O    8.882859  -0.082148  -0.157050   0.003746   0.005694  -0.003250
     2  O   -0.082148   8.882859  -0.157050   0.069358  -0.003250   0.005694
     3  P   -0.157050  -0.157050  14.666588  -0.017674  -0.003779  -0.003779
     4  Ca   0.003746   0.069358  -0.017674  18.276335   0.258027  -0.066982
     5  O    0.005694  -0.003250  -0.003779   0.258027   8.544196  -0.135848
     6  O   -0.003250   0.005694  -0.003779  -0.066982  -0.135848   8.544196
     7  Ca   0.069358   0.003746  -0.017674   0.005132  -0.066982   0.258027
              7
     1  O    0.069358
     2  O    0.003746
     3  P   -0.017674
     4  Ca   0.005132
     5  O   -0.066982
     6  O    0.258027
     7  Ca  18.276335
 Mulliken atomic charges:
              1
     1  O   -0.719209
     2  O   -0.719209
     3  P    0.690417
     4  Ca   1.472057
     5  O   -0.598058
     6  O   -0.598058
     7  Ca   1.472057
 Sum of Mulliken charges=   1.00000
 Atomic charges with hydrogens summed into heavy atoms:
              1
     1  O   -0.719209
     2  O   -0.719209
     3  P    0.690417
     4  Ca   1.472057
     5  O   -0.598058
     6  O   -0.598058
     7  Ca   1.472057
 Sum of Mulliken charges=   1.00000
 Electronic spatial extent (au):  <R**2>=  1637.4359
 Charge=     1.0000 electrons
 Dipole moment (field-independent basis, Debye):
    X=    -0.0011    Y=     1.4973    Z=     0.0000  Tot=     1.4973
 Quadrupole moment (field-independent basis, Debye-Ang):
   XX=   -54.9877   YY=   -78.8966   ZZ=     5.9600
   XY=     0.0010   XZ=     0.0000   YZ=     0.0000
 Traceless Quadrupole moment (field-independent basis, Debye-Ang):
   XX=   -12.3462   YY=   -36.2552   ZZ=    48.6014
   XY=     0.0010   XZ=     0.0000   YZ=     0.0000
 Octapole moment (field-independent basis, Debye-Ang**2):
  XXX=    -0.0025  YYY=    43.0701  ZZZ=     0.0000  XYY=    -0.0017
  XXY=    -1.3984  XXZ=     0.0000  XZZ=    -0.0064  YZZ=   -63.5414
  YYZ=     0.0000  XYZ=     0.0000
 Hexadecapole moment (field-independent basis, Debye-Ang**3):
 XXXX=   -60.5731 YYYY= -1112.2224 ZZZZ=  -373.9554 XXXY=    -0.0107
 XXXZ=     0.0000 YYYX=    -0.0126 YYYZ=     0.0000 ZZZX=     0.0000
 ZZZY=     0.0000 XXYY=  -174.7584 XXZZ=  -133.4659 YYZZ=  -303.8822
 XXYZ=     0.0000 YYXZ=     0.0000 ZZXY=    -0.0005
 N-N= 5.645417277310D+02 E-N=-5.848445990900D+03  KE= 1.990993327531D+03
 Symmetry A'   KE= 1.134411676644D+03
 Symmetry A"   KE= 8.565816508867D+02
 Merz-Kollman atomic radii used.
 Read replacement radii for each type of atom:
 Rad(20) =   1.188000000000D+00
 Atom Element Radius
    1     8    1.40
    2     8    1.40
    3    15    1.80
    4    20    1.19
    5     8    1.40
    6     8    1.40
    7    20    1.19

 **********************************************************************

            Electrostatic Properties Using The SCF Density

 **********************************************************************

       Atomic Center    1 is at   0.000030  1.449812  1.271850
       Atomic Center    2 is at   0.000030  1.449812 -1.271850
       Atomic Center    3 is at   0.000120  2.326732  0.000000
       Atomic Center    4 is at  -0.000070 -0.612418 -2.221050
       Atomic Center    5 is at   0.000030 -2.100078 -0.719700
       Atomic Center    6 is at   0.000030 -2.100078  0.719700
       Atomic Center    7 is at  -0.000070 -0.612418  2.221050
     733 points will be used for fitting atomic charges
 Fitting point charges to eletrostatic potential
 Charges from ESP fit, RMS=   0.00588 RRMS=   0.03776:
 Charge=   1.00000 Dipole=    -0.0012     1.6367     0.0000 Tot=     1.6367
              1
     1  O   -0.712017
     2  O   -0.712017
     3  P    0.597068
     4  Ca   1.631043
     5  O   -0.717560
     6  O   -0.717560
     7  Ca   1.631043
 -----------------------------------------------------------------

              Electrostatic Properties (Atomic Units)

 -----------------------------------------------------------------
    Center     Electric         -------- Electric Field --------
               Potential          X             Y             Z
 -----------------------------------------------------------------
    1 Atom    -22.173910
    2 Atom    -22.173910
    3 Atom    -53.905330
    4 Atom    -79.999064
    5 Atom    -22.252339
    6 Atom    -22.252339
    7 Atom    -79.999064
 -----------------------------------------------------------------
 1\1\GINC-N035\SP\RB3LYP\6-31+G(d,p)\Ca2O4P1(1+)\TIMN\12-Jun-2015\0\\# 
 b3lyp/6-31+G(d,p) int=ultrafine pop=(ReadRadii,MK)\\mol_16.4.42.pdb_pl
 usQ.out.z51592.zip.xyz\\1,1\O,0,0.00003,1.44981,1.27185\O,0,0.00003,1.
 44981,-1.27185\P,0,0.00012,2.32673,0.\Ca,0,-0.00007,-0.61242,-2.22105\
 O,0,0.00003,-2.10008,-0.7197\O,0,0.00003,-2.10008,0.7197\Ca,0,-0.00007
 ,-0.61242,2.22105\\Version=EM64T-G03RevE.01\State=1-A'\HF=-1997.256071
 1\RMSD=9.601e-05\Thermal=0.\Dipole=-0.0004205,0.5890733,0.\PG=CS [SG(P
 1),X(Ca2O4)]\\@


 IF YOU GIVE A BOY AND A PIG EVERYTHING THEY WANT,
 YOU'LL GET A BAD BOY AND A GOOD PIG.
 Job cpu time:  0 days  0 hours  0 minutes 30.6 seconds.
 File lengths (MBytes):  RWF=     28 Int=      0 D2E=      0 Chk=     10 Scr=      1
 Normal termination of Gaussian 03 at Fri Jun 12 17:48:04 2015.
