 Entering Gaussian System, Link 0=/home/timn/tmp/g03.e01/g03
 Input=mol_17.25.56.pdbcccc_plusQ.z58361.zip.xyz.gjf
 Output=mol_17.25.56.pdbcccc_plusQ.z58361.zip.xyz.out
 Initial command:
 /home/timn/tmp/g03.e01/l1.exe /home/timn/tmp/g03.e01/Gau-14627.inp -scrdir=/home/timn/tmp/g03.e01/
 Default is to use a total of   2 processors:
                                2 via shared-memory
                                1 via Linda
 Entering Link 1 = /home/timn/tmp/g03.e01/l1.exe PID=     14628.
  
 Copyright (c) 1988,1990,1992,1993,1995,1998,2003,2004,2007, Gaussian, Inc.
                  All Rights Reserved.
  
 This is the Gaussian(R) 03 program.  It is based on the
 the Gaussian(R) 98 system (copyright 1998, Gaussian, Inc.),
 the Gaussian(R) 94 system (copyright 1995, Gaussian, Inc.),
 the Gaussian 92(TM) system (copyright 1992, Gaussian, Inc.),
 the Gaussian 90(TM) system (copyright 1990, Gaussian, Inc.),
 the Gaussian 88(TM) system (copyright 1988, Gaussian, Inc.),
 the Gaussian 86(TM) system (copyright 1986, Carnegie Mellon
 University), and the Gaussian 82(TM) system (copyright 1983,
 Carnegie Mellon University). Gaussian is a federally registered
 trademark of Gaussian, Inc.
  
 This software contains proprietary and confidential information,
 including trade secrets, belonging to Gaussian, Inc.
  
 This software is provided under written license and may be
 used, copied, transmitted, or stored only in accord with that
 written license.
  
 The following legend is applicable only to US Government
 contracts under FAR:
  
                    RESTRICTED RIGHTS LEGEND
  
 Use, reproduction and disclosure by the US Government is
 subject to restrictions as set forth in subparagraphs (a)
 and (c) of the Commercial Computer Software - Restricted
 Rights clause in FAR 52.227-19.
  
 Gaussian, Inc.
 340 Quinnipiac St., Bldg. 40, Wallingford CT 06492
  
  
 ---------------------------------------------------------------
 Warning -- This program may not be used in any manner that
 competes with the business of Gaussian, Inc. or will provide
 assistance to any competitor of Gaussian, Inc.  The licensee
 of this program is prohibited from giving any competitor of
 Gaussian, Inc. access to this program.  By using this program,
 the user acknowledges that Gaussian, Inc. is engaged in the
 business of creating and licensing software in the field of
 computational chemistry and represents and warrants to the
 licensee that it is not a competitor of Gaussian, Inc. and that
 it will not use this program in any manner prohibited above.
 ---------------------------------------------------------------
  

 Cite this work as:
 Gaussian 03, Revision E.01,
 M. J. Frisch, G. W. Trucks, H. B. Schlegel, G. E. Scuseria, 
 M. A. Robb, J. R. Cheeseman, J. A. Montgomery, Jr., T. Vreven, 
 K. N. Kudin, J. C. Burant, J. M. Millam, S. S. Iyengar, J. Tomasi, 
 V. Barone, B. Mennucci, M. Cossi, G. Scalmani, N. Rega, 
 G. A. Petersson, H. Nakatsuji, M. Hada, M. Ehara, K. Toyota, 
 R. Fukuda, J. Hasegawa, M. Ishida, T. Nakajima, Y. Honda, O. Kitao, 
 H. Nakai, M. Klene, X. Li, J. E. Knox, H. P. Hratchian, J. B. Cross, 
 V. Bakken, C. Adamo, J. Jaramillo, R. Gomperts, R. E. Stratmann, 
 O. Yazyev, A. J. Austin, R. Cammi, C. Pomelli, J. W. Ochterski, 
 P. Y. Ayala, K. Morokuma, G. A. Voth, P. Salvador, J. J. Dannenberg, 
 V. G. Zakrzewski, S. Dapprich, A. D. Daniels, M. C. Strain, 
 O. Farkas, D. K. Malick, A. D. Rabuck, K. Raghavachari, 
 J. B. Foresman, J. V. Ortiz, Q. Cui, A. G. Baboul, S. Clifford, 
 J. Cioslowski, B. B. Stefanov, G. Liu, A. Liashenko, P. Piskorz, 
 I. Komaromi, R. L. Martin, D. J. Fox, T. Keith, M. A. Al-Laham, 
 C. Y. Peng, A. Nanayakkara, M. Challacombe, P. M. W. Gill, 
 B. Johnson, W. Chen, M. W. Wong, C. Gonzalez, and J. A. Pople, 
 Gaussian, Inc., Wallingford CT, 2004.
 
 ******************************************
 Gaussian 03:  EM64T-G03RevE.01 11-Sep-2007
                12-Jun-2015 
 ******************************************
 %nproc=2
 Will use up to    2 processors via shared memory.
 Default route:  MP2=Direct MaxDisk=2000MB
 ----------------------------------------------------
 # b3lyp/6-31+G(d,p) int=ultrafine pop=(ReadRadii,MK)
 ----------------------------------------------------

 Warning!  SCF SP cutoffs with diffuse functions may be unreliable.
 Consider SCF=Tight

 1/38=1/1;
 2/17=6,18=5,40=1/2;
 3/5=1,6=6,7=111,11=2,16=1,25=1,30=1,74=-5,75=5/1,2,3;
 4//1;
 5/5=2,32=1,38=5/2;
 6/7=2,8=2,9=2,10=2,15=8,20=101,28=1/1,2;
 99/5=1,9=1/99;
 -----------------------------------------
 mol_17.25.56.pdbcccc_plusQ.z58361.zip.xyz
 -----------------------------------------
 Symbolic Z-matrix:
 Charge =  1 Multiplicity = 1
 O                    -3.13264  -0.53502   0.76982 
 O                    -3.13759  -0.53581  -0.7631 
 P                    -2.84962   1.02028   0.00159 
 Ca                    1.08068   1.42743  -0.00154 
 O                    -1.29671   1.09339  -0.00376 
 O                     3.23347   1.276     0.00157 
 Ca                    3.34915  -0.85113   0.00175 
 O                     1.09387  -0.9477   -0.0013 
 Ca                   -0.99678  -1.48186  -0.00271 
 
                          Input orientation:                          
 ---------------------------------------------------------------------
 Center     Atomic     Atomic              Coordinates (Angstroms)
 Number     Number      Type              X           Y           Z
 ---------------------------------------------------------------------
    1          8             0       -3.132640   -0.535020    0.769820
    2          8             0       -3.137590   -0.535810   -0.763100
    3         15             0       -2.849620    1.020280    0.001590
    4         20             0        1.080680    1.427430   -0.001540
    5          8             0       -1.296710    1.093390   -0.003760
    6          8             0        3.233470    1.276000    0.001570
    7         20             0        3.349150   -0.851130    0.001750
    8          8             0        1.093870   -0.947700   -0.001300
    9         20             0       -0.996780   -1.481860   -0.002710
 ---------------------------------------------------------------------
                    Distance matrix (angstroms):
                    1          2          3          4          5
     1  O    0.000000
     2  O    1.532928   0.000000
     3  P    1.757622   1.757582   0.000000
     4  Ca   4.711504   4.714667   3.951334   0.000000
     5  O    2.573088   2.572883   1.554639   2.400744   0.000000
     6  O    6.663134   6.667667   6.088463   2.158112   4.533862
     7  Ca   6.534788   6.539283   6.475100   3.215245   5.036388
     8  O    4.316053   4.319172   4.407274   2.375167   3.143394
     9  Ca   2.460733   2.460949   3.113477   3.574886   2.592657
                    6          7          8          9
     6  O    0.000000
     7  Ca   2.130273   0.000000
     8  O    3.085893   2.257349   0.000000
     9  Ca   5.049834   4.391463   2.157811   0.000000
 Stoichiometry    Ca3O5P(1+)
 Framework group  C1[X(Ca3O5P)]
 Deg. of freedom    21
 Full point group                 C1
 Largest Abelian subgroup         C1      NOp   1
 Largest concise Abelian subgroup C1      NOp   1
                         Standard orientation:                         
 ---------------------------------------------------------------------
 Center     Atomic     Atomic              Coordinates (Angstroms)
 Number     Number      Type              X           Y           Z
 ---------------------------------------------------------------------
    1          8             0       -3.132639   -0.535018    0.769823
    2          8             0       -3.137589   -0.535808   -0.763097
    3         15             0       -2.849619    1.020282    0.001593
    4         20             0        1.080681    1.427431   -0.001537
    5          8             0       -1.296709    1.093392   -0.003757
    6          8             0        3.233471    1.276000    0.001573
    7         20             0        3.349151   -0.851130    0.001753
    8          8             0        1.093871   -0.947699   -0.001297
    9         20             0       -0.996780   -1.481859   -0.002707
 ---------------------------------------------------------------------
 Rotational constants (GHZ):      1.5899677      0.3792415      0.3133411
 Standard basis: 6-31+G(d,p) (6D, 7F)
 There are   199 symmetry adapted basis functions of A   symmetry.
 Integral buffers will be    131072 words long.
 Raffenetti 2 integral format.
 Two-electron integral symmetry is turned on.
   199 basis functions,   456 primitive gaussians,   199 cartesian basis functions
    57 alpha electrons       57 beta electrons
       nuclear repulsion energy       953.8785249449 Hartrees.
 NAtoms=    9 NActive=    9 NUniq=    9 SFac= 7.50D-01 NAtFMM=   80 NAOKFM=F Big=F
 One-electron integrals computed using PRISM.
 NBasis=   199 RedAO= T  NBF=   199
 NBsUse=   199 1.00D-06 NBFU=   199
 Harris functional with IExCor=  402 diagonalized for initial guess.
 ExpMin= 7.10D-03 ExpMax= 3.53D+04 ExpMxC= 5.30D+03 IAcc=3 IRadAn=         5 AccDes= 0.00D+00
 HarFok:  IExCor= 402 AccDes= 0.00D+00 IRadAn=         5 IDoV=1
 ScaDFX=  1.000000  1.000000  1.000000  1.000000
 Initial guess orbital symmetries:
       Occupied  (A) (A) (A) (A) (A) (A) (A) (A) (A) (A) (A) (A)
                 (A) (A) (A) (A) (A) (A) (A) (A) (A) (A) (A) (A)
                 (A) (A) (A) (A) (A) (A) (A) (A) (A) (A) (A) (A)
                 (A) (A) (A) (A) (A) (A) (A) (A) (A) (A) (A) (A)
                 (A) (A) (A) (A) (A) (A) (A) (A) (A)
       Virtual   (A) (A) (A) (A) (A) (A) (A) (A) (A) (A) (A) (A)
                 (A) (A) (A) (A) (A) (A) (A) (A) (A) (A) (A) (A)
                 (A) (A) (A) (A) (A) (A) (A) (A) (A) (A) (A) (A)
                 (A) (A) (A) (A) (A) (A) (A) (A) (A) (A) (A) (A)
                 (A) (A) (A) (A) (A) (A) (A) (A) (A) (A) (A) (A)
                 (A) (A) (A) (A) (A) (A) (A) (A) (A) (A) (A) (A)
                 (A) (A) (A) (A) (A) (A) (A) (A) (A) (A) (A) (A)
                 (A) (A) (A) (A) (A) (A) (A) (A) (A) (A) (A) (A)
                 (A) (A) (A) (A) (A) (A) (A) (A) (A) (A) (A) (A)
                 (A) (A) (A) (A) (A) (A) (A) (A) (A) (A) (A) (A)
                 (A) (A) (A) (A) (A) (A) (A) (A) (A) (A) (A) (A)
                 (A) (A) (A) (A) (A) (A) (A) (A) (A) (A)
 The electronic state of the initial guess is 1-A.
 Requested convergence on RMS density matrix=1.00D-04 within 128 cycles.
 Requested convergence on MAX density matrix=1.00D-02.
 Requested convergence on             energy=1.00D-02.
 No special actions if energy rises.
 EnCoef did     5 forward-backward iterations
 EnCoef did   100 forward-backward iterations
 EnCoef did     2 forward-backward iterations
 EnCoef did     2 forward-backward iterations
 SCF Done:  E(RB+HF-LYP) =  -2750.13248277     A.U. after    9 cycles
             Convg  =    0.7268D-04             -V/T =  2.0029
             S**2   =   0.0000

 **********************************************************************

            Population analysis using the SCF density.

 **********************************************************************

 Orbital symmetries:
       Occupied  (A) (A) (A) (A) (A) (A) (A) (A) (A) (A) (A) (A)
                 (A) (A) (A) (A) (A) (A) (A) (A) (A) (A) (A) (A)
                 (A) (A) (A) (A) (A) (A) (A) (A) (A) (A) (A) (A)
                 (A) (A) (A) (A) (A) (A) (A) (A) (A) (A) (A) (A)
                 (A) (A) (A) (A) (A) (A) (A) (A) (A)
       Virtual   (A) (A) (A) (A) (A) (A) (A) (A) (A) (A) (A) (A)
                 (A) (A) (A) (A) (A) (A) (A) (A) (A) (A) (A) (A)
                 (A) (A) (A) (A) (A) (A) (A) (A) (A) (A) (A) (A)
                 (A) (A) (A) (A) (A) (A) (A) (A) (A) (A) (A) (A)
                 (A) (A) (A) (A) (A) (A) (A) (A) (A) (A) (A) (A)
                 (A) (A) (A) (A) (A) (A) (A) (A) (A) (A) (A) (A)
                 (A) (A) (A) (A) (A) (A) (A) (A) (A) (A) (A) (A)
                 (A) (A) (A) (A) (A) (A) (A) (A) (A) (A) (A) (A)
                 (A) (A) (A) (A) (A) (A) (A) (A) (A) (A) (A) (A)
                 (A) (A) (A) (A) (A) (A) (A) (A) (A) (A) (A) (A)
                 (A) (A) (A) (A) (A) (A) (A) (A) (A) (A) (A) (A)
                 (A) (A) (A) (A) (A) (A) (A) (A) (A) (A)
 The electronic state is 1-A.
 Alpha  occ. eigenvalues -- -145.52147-145.47055-145.45743 -77.33858 -19.36999
 Alpha  occ. eigenvalues --  -19.36988 -19.29669 -19.17038 -19.10771 -15.59009
 Alpha  occ. eigenvalues --  -15.53955 -15.52657 -12.72253 -12.72240 -12.72054
 Alpha  occ. eigenvalues --  -12.67196 -12.67111 -12.67033 -12.65926 -12.65836
 Alpha  occ. eigenvalues --  -12.65705  -6.79172  -4.95531  -4.95447  -4.94936
 Alpha  occ. eigenvalues --   -1.96222  -1.91249  -1.90052  -1.28429  -1.24007
 Alpha  occ. eigenvalues --   -1.23839  -1.22361  -1.19122  -1.18896  -1.18221
 Alpha  occ. eigenvalues --   -1.18089  -1.17446  -1.17177  -1.12878  -1.01036
 Alpha  occ. eigenvalues --   -0.91707  -0.84708  -0.73767  -0.61686  -0.60230
 Alpha  occ. eigenvalues --   -0.58887  -0.54725  -0.49820  -0.47609  -0.44041
 Alpha  occ. eigenvalues --   -0.43353  -0.37878  -0.36789  -0.35761  -0.30232
 Alpha  occ. eigenvalues --   -0.28787  -0.28457
 Alpha virt. eigenvalues --   -0.20340  -0.19645  -0.17747  -0.17264  -0.15283
 Alpha virt. eigenvalues --   -0.12027  -0.11234  -0.10209  -0.09967  -0.09649
 Alpha virt. eigenvalues --   -0.09350  -0.08174  -0.07379  -0.07021  -0.06561
 Alpha virt. eigenvalues --   -0.05367  -0.05143  -0.04854  -0.04322  -0.04289
 Alpha virt. eigenvalues --   -0.04130  -0.03953  -0.03855  -0.03526  -0.03207
 Alpha virt. eigenvalues --   -0.03025  -0.02754  -0.02107  -0.02102  -0.00544
 Alpha virt. eigenvalues --    0.01325   0.02302   0.02379   0.03220   0.03780
 Alpha virt. eigenvalues --    0.03786   0.05148   0.05363   0.06084   0.06155
 Alpha virt. eigenvalues --    0.06409   0.06695   0.07183   0.07205   0.08913
 Alpha virt. eigenvalues --    0.09150   0.10083   0.10459   0.10603   0.11328
 Alpha virt. eigenvalues --    0.11425   0.12070   0.13197   0.15252   0.16078
 Alpha virt. eigenvalues --    0.16141   0.17247   0.17820   0.18676   0.19283
 Alpha virt. eigenvalues --    0.19796   0.21482   0.21990   0.24161   0.24420
 Alpha virt. eigenvalues --    0.26518   0.26987   0.28214   0.28848   0.29682
 Alpha virt. eigenvalues --    0.30229   0.32096   0.35874   0.36165   0.37842
 Alpha virt. eigenvalues --    0.39412   0.39930   0.41018   0.45013   0.47964
 Alpha virt. eigenvalues --    0.50991   0.54712   0.55000   0.60247   0.65741
 Alpha virt. eigenvalues --    0.70154   0.77217   0.85288   0.89396   1.03048
 Alpha virt. eigenvalues --    1.05895   1.06543   1.08652   1.10166   1.10410
 Alpha virt. eigenvalues --    1.12672   1.12959   1.16618   1.17685   1.18311
 Alpha virt. eigenvalues --    1.21359   1.23873   1.25969   1.29091   1.34535
 Alpha virt. eigenvalues --    1.35373   1.39333   1.44371   1.50658   1.50709
 Alpha virt. eigenvalues --    1.56283   1.60799   1.62615   1.64939   1.66462
 Alpha virt. eigenvalues --    1.67346   1.68342   1.75744   1.77925   1.80887
 Alpha virt. eigenvalues --    1.83277   1.84660   1.86773   1.88156   1.88704
 Alpha virt. eigenvalues --    1.91610   1.94501   1.95481   1.99664   2.03777
 Alpha virt. eigenvalues --    2.12292   2.17771   2.24700   2.30541   2.61798
 Alpha virt. eigenvalues --    2.98959   3.44013   3.90099   3.94262   4.02823
 Alpha virt. eigenvalues --    4.07738   4.08002
          Condensed to atoms (all electrons):
              1          2          3          4          5          6
     1  O    8.250207   0.014522   0.068970  -0.001217  -0.007743  -0.000028
     2  O    0.014522   8.250316   0.068142  -0.000977  -0.006925  -0.000029
     3  P    0.068970   0.068142  14.177798  -0.016911  -0.104079  -0.000573
     4  Ca  -0.001217  -0.000977  -0.016911  18.397490   0.037012   0.234964
     5  O   -0.007743  -0.006925  -0.104079   0.037012   8.876771  -0.003966
     6  O   -0.000028  -0.000029  -0.000573   0.234964  -0.003966   8.713295
     7  Ca   0.001609   0.001434  -0.002359  -0.025924   0.005828   0.224025
     8  O   -0.000053  -0.000083  -0.006289   0.043477  -0.013939  -0.023709
     9  Ca   0.048576   0.048427  -0.026031  -0.004926   0.011581  -0.004086
              7          8          9
     1  O    0.001609  -0.000053   0.048576
     2  O    0.001434  -0.000083   0.048427
     3  P   -0.002359  -0.006289  -0.026031
     4  Ca  -0.025924   0.043477  -0.004926
     5  O    0.005828  -0.013939   0.011581
     6  O    0.224025  -0.023709  -0.004086
     7  Ca  18.366647   0.096248  -0.013856
     8  O    0.096248   9.026701   0.196957
     9  Ca  -0.013856   0.196957  18.264640
 Mulliken atomic charges:
              1
     1  O   -0.374842
     2  O   -0.374828
     3  P    0.841333
     4  Ca   1.337013
     5  O   -0.794539
     6  O   -1.139894
     7  Ca   1.346349
     8  O   -1.319310
     9  Ca   1.478718
 Sum of Mulliken charges=   1.00000
 Atomic charges with hydrogens summed into heavy atoms:
              1
     1  O   -0.374842
     2  O   -0.374828
     3  P    0.841333
     4  Ca   1.337013
     5  O   -0.794539
     6  O   -1.139894
     7  Ca   1.346349
     8  O   -1.319310
     9  Ca   1.478718
 Sum of Mulliken charges=   1.00000
 Electronic spatial extent (au):  <R**2>=  3045.5503
 Charge=     1.0000 electrons
 Dipole moment (field-independent basis, Debye):
    X=     0.4579    Y=    -7.5360    Z=    -0.0138  Tot=     7.5499
 Quadrupole moment (field-independent basis, Debye-Ang):
   XX=   -65.3510   YY=   -56.0195   ZZ=   -75.5971
   XY=   -26.3151   XZ=     0.0329   YZ=     0.0024
 Traceless Quadrupole moment (field-independent basis, Debye-Ang):
   XX=     0.3049   YY=     9.6364   ZZ=    -9.9412
   XY=   -26.3151   XZ=     0.0329   YZ=     0.0024
 Octapole moment (field-independent basis, Debye-Ang**2):
  XXX=    97.6868  YYY=   -35.8272  ZZZ=    -0.0551  XYY=   -17.0546
  XXY=  -129.6563  XXZ=    -0.0248  XZZ=     4.4324  YZZ=    -4.7223
  YYZ=    -0.0740  XYZ=    -0.1711
 Hexadecapole moment (field-independent basis, Debye-Ang**3):
 XXXX= -2624.6400 YYYY=  -570.2172 ZZZZ=  -123.4655 XXXY=  -608.5139
 XXXZ=     0.4013 YYYX=    -4.4682 YYYZ=    -0.0062 ZZZX=     0.1402
 ZZZY=    -0.0029 XXYY=  -590.6751 XXZZ=  -487.7041 YYZZ=  -124.2116
 XXYZ=    -0.2431 YYXZ=     0.0414 ZZXY=   -15.1484
 N-N= 9.538785249449D+02 E-N=-8.407689017269D+03  KE= 2.742196222532D+03
 Merz-Kollman atomic radii used.
 Read replacement radii for each type of atom:
 Rad(20) =   1.188000000000D+00
 Atom Element Radius
    1     8    1.40
    2     8    1.40
    3    15    1.80
    4    20    1.19
    5     8    1.40
    6     8    1.40
    7    20    1.19
    8     8    1.40
    9    20    1.19

 **********************************************************************

            Electrostatic Properties Using The SCF Density

 **********************************************************************

       Atomic Center    1 is at  -3.132639 -0.535018  0.769823
       Atomic Center    2 is at  -3.137589 -0.535808 -0.763097
       Atomic Center    3 is at  -2.849619  1.020282  0.001593
       Atomic Center    4 is at   1.080681  1.427431 -0.001537
       Atomic Center    5 is at  -1.296709  1.093392 -0.003757
       Atomic Center    6 is at   3.233471  1.276000  0.001573
       Atomic Center    7 is at   3.349151 -0.851130  0.001753
       Atomic Center    8 is at   1.093871 -0.947699 -0.001297
       Atomic Center    9 is at  -0.996780 -1.481859 -0.002707
     856 points will be used for fitting atomic charges
 Fitting point charges to eletrostatic potential
 Charges from ESP fit, RMS=   0.00573 RRMS=   0.03866:
 Charge=   1.00000 Dipole=     0.8461    -7.8313    -0.0057 Tot=     7.8769
              1
     1  O   -0.320017
     2  O   -0.322107
     3  P    0.601060
     4  Ca   1.671235
     5  O   -0.740829
     6  O   -1.493907
     7  Ca   1.633035
     8  O   -1.701884
     9  Ca   1.673413
 -----------------------------------------------------------------

              Electrostatic Properties (Atomic Units)

 -----------------------------------------------------------------
    Center     Electric         -------- Electric Field --------
               Potential          X             Y             Z
 -----------------------------------------------------------------
    1 Atom    -22.100133
    2 Atom    -22.100386
    3 Atom    -53.872697
    4 Atom    -80.086524
    5 Atom    -22.162818
    6 Atom    -22.376330
    7 Atom    -80.074695
    8 Atom    -22.294748
    9 Atom    -80.017088
 -----------------------------------------------------------------
 1\1\GINC-N029\SP\RB3LYP\6-31+G(d,p)\Ca3O5P1(1+)\TIMN\12-Jun-2015\0\\# 
 b3lyp/6-31+G(d,p) int=ultrafine pop=(ReadRadii,MK)\\mol_17.25.56.pdbcc
 cc_plusQ.z58361.zip.xyz\\1,1\O,0,-3.13264,-0.53502,0.76982\O,0,-3.1375
 9,-0.53581,-0.7631\P,0,-2.84962,1.02028,0.00159\Ca,0,1.08068,1.42743,-
 0.00154\O,0,-1.29671,1.09339,-0.00376\O,0,3.23347,1.276,0.00157\Ca,0,3
 .34915,-0.85113,0.00175\O,0,1.09387,-0.9477,-0.0013\Ca,0,-0.99678,-1.4
 8186,-0.00271\\Version=EM64T-G03RevE.01\State=1-A\HF=-2750.1324828\RMS
 D=7.268e-05\Thermal=0.\Dipole=0.1801479,-2.9648765,-0.0054222\PG=C01 [
 X(Ca3O5P1)]\\@


 SOME PEOPLE TRY TO PULL THE WOOL OVER YOUR EYES
 USING THE WRONG YARN.
 Job cpu time:  0 days  0 hours  2 minutes  5.7 seconds.
 File lengths (MBytes):  RWF=     36 Int=      0 D2E=      0 Chk=     11 Scr=      1
 Normal termination of Gaussian 03 at Fri Jun 12 17:58:54 2015.
