 Entering Gaussian System, Link 0=/home/timn/tmp/g03.e01/g03
 Input=mol_17.29.31.pdbc_plusQ.z58613.zip.xyz.gjf
 Output=mol_17.29.31.pdbc_plusQ.z58613.zip.xyz.out
 Initial command:
 /home/timn/tmp/g03.e01/l1.exe /home/timn/tmp/g03.e01/Gau-14220.inp -scrdir=/home/timn/tmp/g03.e01/
 Default is to use a total of   2 processors:
                                2 via shared-memory
                                1 via Linda
 Entering Link 1 = /home/timn/tmp/g03.e01/l1.exe PID=     14221.
  
 Copyright (c) 1988,1990,1992,1993,1995,1998,2003,2004,2007, Gaussian, Inc.
                  All Rights Reserved.
  
 This is the Gaussian(R) 03 program.  It is based on the
 the Gaussian(R) 98 system (copyright 1998, Gaussian, Inc.),
 the Gaussian(R) 94 system (copyright 1995, Gaussian, Inc.),
 the Gaussian 92(TM) system (copyright 1992, Gaussian, Inc.),
 the Gaussian 90(TM) system (copyright 1990, Gaussian, Inc.),
 the Gaussian 88(TM) system (copyright 1988, Gaussian, Inc.),
 the Gaussian 86(TM) system (copyright 1986, Carnegie Mellon
 University), and the Gaussian 82(TM) system (copyright 1983,
 Carnegie Mellon University). Gaussian is a federally registered
 trademark of Gaussian, Inc.
  
 This software contains proprietary and confidential information,
 including trade secrets, belonging to Gaussian, Inc.
  
 This software is provided under written license and may be
 used, copied, transmitted, or stored only in accord with that
 written license.
  
 The following legend is applicable only to US Government
 contracts under FAR:
  
                    RESTRICTED RIGHTS LEGEND
  
 Use, reproduction and disclosure by the US Government is
 subject to restrictions as set forth in subparagraphs (a)
 and (c) of the Commercial Computer Software - Restricted
 Rights clause in FAR 52.227-19.
  
 Gaussian, Inc.
 340 Quinnipiac St., Bldg. 40, Wallingford CT 06492
  
  
 ---------------------------------------------------------------
 Warning -- This program may not be used in any manner that
 competes with the business of Gaussian, Inc. or will provide
 assistance to any competitor of Gaussian, Inc.  The licensee
 of this program is prohibited from giving any competitor of
 Gaussian, Inc. access to this program.  By using this program,
 the user acknowledges that Gaussian, Inc. is engaged in the
 business of creating and licensing software in the field of
 computational chemistry and represents and warrants to the
 licensee that it is not a competitor of Gaussian, Inc. and that
 it will not use this program in any manner prohibited above.
 ---------------------------------------------------------------
  

 Cite this work as:
 Gaussian 03, Revision E.01,
 M. J. Frisch, G. W. Trucks, H. B. Schlegel, G. E. Scuseria, 
 M. A. Robb, J. R. Cheeseman, J. A. Montgomery, Jr., T. Vreven, 
 K. N. Kudin, J. C. Burant, J. M. Millam, S. S. Iyengar, J. Tomasi, 
 V. Barone, B. Mennucci, M. Cossi, G. Scalmani, N. Rega, 
 G. A. Petersson, H. Nakatsuji, M. Hada, M. Ehara, K. Toyota, 
 R. Fukuda, J. Hasegawa, M. Ishida, T. Nakajima, Y. Honda, O. Kitao, 
 H. Nakai, M. Klene, X. Li, J. E. Knox, H. P. Hratchian, J. B. Cross, 
 V. Bakken, C. Adamo, J. Jaramillo, R. Gomperts, R. E. Stratmann, 
 O. Yazyev, A. J. Austin, R. Cammi, C. Pomelli, J. W. Ochterski, 
 P. Y. Ayala, K. Morokuma, G. A. Voth, P. Salvador, J. J. Dannenberg, 
 V. G. Zakrzewski, S. Dapprich, A. D. Daniels, M. C. Strain, 
 O. Farkas, D. K. Malick, A. D. Rabuck, K. Raghavachari, 
 J. B. Foresman, J. V. Ortiz, Q. Cui, A. G. Baboul, S. Clifford, 
 J. Cioslowski, B. B. Stefanov, G. Liu, A. Liashenko, P. Piskorz, 
 I. Komaromi, R. L. Martin, D. J. Fox, T. Keith, M. A. Al-Laham, 
 C. Y. Peng, A. Nanayakkara, M. Challacombe, P. M. W. Gill, 
 B. Johnson, W. Chen, M. W. Wong, C. Gonzalez, and J. A. Pople, 
 Gaussian, Inc., Wallingford CT, 2004.
 
 ******************************************
 Gaussian 03:  EM64T-G03RevE.01 11-Sep-2007
                12-Jun-2015 
 ******************************************
 %nproc=2
 Will use up to    2 processors via shared memory.
 Default route:  MP2=Direct MaxDisk=2000MB
 ----------------------------------------------------
 # b3lyp/6-31+G(d,p) int=ultrafine pop=(ReadRadii,MK)
 ----------------------------------------------------

 Warning!  SCF SP cutoffs with diffuse functions may be unreliable.
 Consider SCF=Tight

 1/38=1/1;
 2/17=6,18=5,40=1/2;
 3/5=1,6=6,7=111,11=2,16=1,25=1,30=1,74=-5,75=5/1,2,3;
 4//1;
 5/5=2,32=1,38=5/2;
 6/7=2,8=2,9=2,10=2,15=8,20=101,28=1/1,2;
 99/5=1,9=1/99;
 --------------------------------------
 mol_17.29.31.pdbc_plusQ.z58613.zip.xyz
 --------------------------------------
 Symbolic Z-matrix:
 Charge =  1 Multiplicity = 1
 Ca                    2.016    -1.74557  -0.0189 
 O                     2.87535   0.17636   0.25488 
 Ca                    1.71381   1.94611   0.10543 
 P                    -0.44514  -0.06916  -0.94454 
 O                    -2.11353  -0.30051  -1.21431 
 O                    -3.1144    0.67159  -0.62389 
 O                    -0.25123  -1.36309   0.08542 
 Ca                   -2.18405  -0.27252   1.15249 
 O                    -0.42595   1.1253    0.17137 
 
                          Input orientation:                          
 ---------------------------------------------------------------------
 Center     Atomic     Atomic              Coordinates (Angstroms)
 Number     Number      Type              X           Y           Z
 ---------------------------------------------------------------------
    1         20             0        2.016000   -1.745570   -0.018900
    2          8             0        2.875350    0.176360    0.254880
    3         20             0        1.713810    1.946110    0.105430
    4         15             0       -0.445140   -0.069160   -0.944540
    5          8             0       -2.113530   -0.300510   -1.214310
    6          8             0       -3.114400    0.671590   -0.623890
    7          8             0       -0.251230   -1.363090    0.085420
    8         20             0       -2.184050   -0.272520    1.152490
    9          8             0       -0.425950    1.125300    0.171370
 ---------------------------------------------------------------------
                    Distance matrix (angstroms):
                    1          2          3          4          5
     1  Ca   0.000000
     2  O    2.123029   0.000000
     3  Ca   3.706114   2.122151   0.000000
     4  P    3.118392   3.539003   3.134456   0.000000
     5  O    4.535441   5.222533   4.630070   1.705821   0.000000
     6  O    5.703480   6.074092   5.046575   2.788633   1.515030
     7  O    2.301631   3.489144   3.848712   1.665135   2.507296
     8  Ca   4.602440   5.157977   4.605645   2.731794   2.368016
     9  O    3.773754   3.435992   2.292739   1.634735   2.607867
                    6          7          8          9
     6  O    0.000000
     7  O    3.583404   0.000000
     8  Ca   2.216398   2.462473   0.000000
     9  O    2.840080   2.495997   2.451002   0.000000
 Stoichiometry    Ca3O5P(1+)
 Framework group  C1[X(Ca3O5P)]
 Deg. of freedom    21
 Full point group                 C1
 Largest Abelian subgroup         C1      NOp   1
 Largest concise Abelian subgroup C1      NOp   1
                         Standard orientation:                         
 ---------------------------------------------------------------------
 Center     Atomic     Atomic              Coordinates (Angstroms)
 Number     Number      Type              X           Y           Z
 ---------------------------------------------------------------------
    1         20             0        2.016002   -1.745569   -0.018901
    2          8             0        2.875350    0.176362    0.254879
    3         20             0        1.713807    1.946110    0.105429
    4         15             0       -0.445140   -0.069162   -0.944541
    5          8             0       -2.113530   -0.300514   -1.214311
    6          8             0       -3.114401    0.671585   -0.623891
    7          8             0       -0.251229   -1.363092    0.085419
    8         20             0       -2.184050   -0.272524    1.152489
    9          8             0       -0.425952    1.125298    0.171369
 ---------------------------------------------------------------------
 Rotational constants (GHZ):      1.1281589      0.5309144      0.4302332
 Standard basis: 6-31+G(d,p) (6D, 7F)
 There are   199 symmetry adapted basis functions of A   symmetry.
 Integral buffers will be    131072 words long.
 Raffenetti 2 integral format.
 Two-electron integral symmetry is turned on.
   199 basis functions,   456 primitive gaussians,   199 cartesian basis functions
    57 alpha electrons       57 beta electrons
       nuclear repulsion energy      1004.8766761091 Hartrees.
 NAtoms=    9 NActive=    9 NUniq=    9 SFac= 7.50D-01 NAtFMM=   80 NAOKFM=F Big=F
 One-electron integrals computed using PRISM.
 NBasis=   199 RedAO= T  NBF=   199
 NBsUse=   199 1.00D-06 NBFU=   199
 Harris functional with IExCor=  402 diagonalized for initial guess.
 ExpMin= 7.10D-03 ExpMax= 3.53D+04 ExpMxC= 5.30D+03 IAcc=3 IRadAn=         5 AccDes= 0.00D+00
 HarFok:  IExCor= 402 AccDes= 0.00D+00 IRadAn=         5 IDoV=1
 ScaDFX=  1.000000  1.000000  1.000000  1.000000
 Initial guess orbital symmetries:
       Occupied  (A) (A) (A) (A) (A) (A) (A) (A) (A) (A) (A) (A)
                 (A) (A) (A) (A) (A) (A) (A) (A) (A) (A) (A) (A)
                 (A) (A) (A) (A) (A) (A) (A) (A) (A) (A) (A) (A)
                 (A) (A) (A) (A) (A) (A) (A) (A) (A) (A) (A) (A)
                 (A) (A) (A) (A) (A) (A) (A) (A) (A)
       Virtual   (A) (A) (A) (A) (A) (A) (A) (A) (A) (A) (A) (A)
                 (A) (A) (A) (A) (A) (A) (A) (A) (A) (A) (A) (A)
                 (A) (A) (A) (A) (A) (A) (A) (A) (A) (A) (A) (A)
                 (A) (A) (A) (A) (A) (A) (A) (A) (A) (A) (A) (A)
                 (A) (A) (A) (A) (A) (A) (A) (A) (A) (A) (A) (A)
                 (A) (A) (A) (A) (A) (A) (A) (A) (A) (A) (A) (A)
                 (A) (A) (A) (A) (A) (A) (A) (A) (A) (A) (A) (A)
                 (A) (A) (A) (A) (A) (A) (A) (A) (A) (A) (A) (A)
                 (A) (A) (A) (A) (A) (A) (A) (A) (A) (A) (A) (A)
                 (A) (A) (A) (A) (A) (A) (A) (A) (A) (A) (A) (A)
                 (A) (A) (A) (A) (A) (A) (A) (A) (A) (A) (A) (A)
                 (A) (A) (A) (A) (A) (A) (A) (A) (A) (A)
 The electronic state of the initial guess is 1-A.
 Requested convergence on RMS density matrix=1.00D-04 within 128 cycles.
 Requested convergence on MAX density matrix=1.00D-02.
 Requested convergence on             energy=1.00D-02.
 No special actions if energy rises.
 EnCoef did     4 forward-backward iterations
 EnCoef did     1 forward-backward iterations
 EnCoef did     1 forward-backward iterations
 SCF Done:  E(RB+HF-LYP) =  -2750.11774721     A.U. after    9 cycles
             Convg  =    0.4750D-04             -V/T =  2.0029
             S**2   =   0.0000

 **********************************************************************

            Population analysis using the SCF density.

 **********************************************************************

 Orbital symmetries:
       Occupied  (A) (A) (A) (A) (A) (A) (A) (A) (A) (A) (A) (A)
                 (A) (A) (A) (A) (A) (A) (A) (A) (A) (A) (A) (A)
                 (A) (A) (A) (A) (A) (A) (A) (A) (A) (A) (A) (A)
                 (A) (A) (A) (A) (A) (A) (A) (A) (A) (A) (A) (A)
                 (A) (A) (A) (A) (A) (A) (A) (A) (A)
       Virtual   (A) (A) (A) (A) (A) (A) (A) (A) (A) (A) (A) (A)
                 (A) (A) (A) (A) (A) (A) (A) (A) (A) (A) (A) (A)
                 (A) (A) (A) (A) (A) (A) (A) (A) (A) (A) (A) (A)
                 (A) (A) (A) (A) (A) (A) (A) (A) (A) (A) (A) (A)
                 (A) (A) (A) (A) (A) (A) (A) (A) (A) (A) (A) (A)
                 (A) (A) (A) (A) (A) (A) (A) (A) (A) (A) (A) (A)
                 (A) (A) (A) (A) (A) (A) (A) (A) (A) (A) (A) (A)
                 (A) (A) (A) (A) (A) (A) (A) (A) (A) (A) (A) (A)
                 (A) (A) (A) (A) (A) (A) (A) (A) (A) (A) (A) (A)
                 (A) (A) (A) (A) (A) (A) (A) (A) (A) (A) (A) (A)
                 (A) (A) (A) (A) (A) (A) (A) (A) (A) (A) (A) (A)
                 (A) (A) (A) (A) (A) (A) (A) (A) (A) (A)
 The electronic state is 1-A.
 Alpha  occ. eigenvalues -- -145.52030-145.50135-145.50001 -77.26820 -19.27041
 Alpha  occ. eigenvalues --  -19.23363 -19.23088 -19.21555 -19.13356 -15.58789
 Alpha  occ. eigenvalues --  -15.57007 -15.56884 -12.72008 -12.71999 -12.71908
 Alpha  occ. eigenvalues --  -12.70262 -12.70187 -12.70137 -12.70077 -12.70066
 Alpha  occ. eigenvalues --  -12.69949  -6.72118  -4.88491  -4.88434  -4.87949
 Alpha  occ. eigenvalues --   -1.95843  -1.94210  -1.94097  -1.24335  -1.23293
 Alpha  occ. eigenvalues --   -1.22956  -1.22081  -1.21965  -1.21852  -1.21618
 Alpha  occ. eigenvalues --   -1.21251  -1.20761  -1.12238  -1.06807  -1.02503
 Alpha  occ. eigenvalues --   -0.89737  -0.87636  -0.64499  -0.53849  -0.52076
 Alpha  occ. eigenvalues --   -0.51863  -0.46761  -0.45783  -0.42946  -0.42775
 Alpha  occ. eigenvalues --   -0.38459  -0.35820  -0.33768  -0.32243  -0.31972
 Alpha  occ. eigenvalues --   -0.31709  -0.30414
 Alpha virt. eigenvalues --   -0.20010  -0.18998  -0.18428  -0.12841  -0.12140
 Alpha virt. eigenvalues --   -0.11162  -0.10331  -0.10085  -0.09328  -0.08690
 Alpha virt. eigenvalues --   -0.07751  -0.07644  -0.07113  -0.06323  -0.05694
 Alpha virt. eigenvalues --   -0.05061  -0.04873  -0.04575  -0.04310  -0.04195
 Alpha virt. eigenvalues --   -0.03961  -0.03755  -0.03498  -0.03189  -0.03141
 Alpha virt. eigenvalues --   -0.02920  -0.01606  -0.01000   0.00062   0.01438
 Alpha virt. eigenvalues --    0.01914   0.02494   0.03483   0.03936   0.04125
 Alpha virt. eigenvalues --    0.04578   0.05241   0.05531   0.06148   0.06403
 Alpha virt. eigenvalues --    0.06685   0.07098   0.07686   0.08304   0.08718
 Alpha virt. eigenvalues --    0.09586   0.09963   0.10046   0.11190   0.12147
 Alpha virt. eigenvalues --    0.12637   0.13357   0.13921   0.15350   0.17089
 Alpha virt. eigenvalues --    0.18506   0.19214   0.20266   0.21192   0.21672
 Alpha virt. eigenvalues --    0.22686   0.23722   0.24069   0.25038   0.26022
 Alpha virt. eigenvalues --    0.26231   0.26840   0.28286   0.28697   0.31192
 Alpha virt. eigenvalues --    0.31771   0.34728   0.38052   0.38408   0.40013
 Alpha virt. eigenvalues --    0.40328   0.42817   0.45600   0.49165   0.52334
 Alpha virt. eigenvalues --    0.53183   0.57990   0.59052   0.64374   0.67556
 Alpha virt. eigenvalues --    0.71071   0.74270   0.86307   0.90751   0.91940
 Alpha virt. eigenvalues --    0.96081   1.09628   1.12168   1.14427   1.15823
 Alpha virt. eigenvalues --    1.16279   1.17819   1.19675   1.20743   1.21860
 Alpha virt. eigenvalues --    1.23113   1.24843   1.26837   1.27472   1.30778
 Alpha virt. eigenvalues --    1.33372   1.45925   1.48253   1.54970   1.56467
 Alpha virt. eigenvalues --    1.60560   1.64725   1.68835   1.74922   1.75873
 Alpha virt. eigenvalues --    1.78275   1.79142   1.81835   1.82589   1.83635
 Alpha virt. eigenvalues --    1.84093   1.84626   1.85912   1.88473   1.91499
 Alpha virt. eigenvalues --    1.92983   1.95326   1.95835   2.00518   2.03251
 Alpha virt. eigenvalues --    2.24026   2.25456   2.38470   2.52922   2.58726
 Alpha virt. eigenvalues --    3.09609   3.50833   3.95613   3.98348   4.09410
 Alpha virt. eigenvalues --    4.10620   4.28679
          Condensed to atoms (all electrons):
              1          2          3          4          5          6
     1  Ca  18.286938   0.223310  -0.013759  -0.065301   0.006915   0.004613
     2  O    0.223310   8.761028   0.220494  -0.056818   0.003888   0.000377
     3  Ca  -0.013759   0.220494  18.278175  -0.017901   0.004216   0.001010
     4  P   -0.065301  -0.056818  -0.017901  15.326337  -0.097227  -0.083708
     5  O    0.006915   0.003888   0.004216  -0.097227   8.411748   0.066907
     6  O    0.004613   0.000377   0.001010  -0.083708   0.066907   8.316093
     7  O    0.107344   0.011999   0.015109  -0.457616   0.004490   0.023846
     8  Ca  -0.015393   0.001511  -0.011559   0.031568   0.058645   0.153552
     9  O    0.025849   0.012686   0.093975  -0.358740   0.032302   0.009837
              7          8          9
     1  Ca   0.107344  -0.015393   0.025849
     2  O    0.011999   0.001511   0.012686
     3  Ca   0.015109  -0.011559   0.093975
     4  P   -0.457616   0.031568  -0.358740
     5  O    0.004490   0.058645   0.032302
     6  O    0.023846   0.153552   0.009837
     7  O    9.110770   0.053158   0.079551
     8  Ca   0.053158  18.293258   0.034952
     9  O    0.079551   0.034952   9.007496
 Mulliken atomic charges:
              1
     1  Ca   1.439486
     2  O   -1.178475
     3  Ca   1.430240
     4  P    0.779407
     5  O   -0.491884
     6  O   -0.492525
     7  O   -0.948651
     8  Ca   1.400309
     9  O   -0.937906
 Sum of Mulliken charges=   1.00000
 Atomic charges with hydrogens summed into heavy atoms:
              1
     1  Ca   1.439486
     2  O   -1.178475
     3  Ca   1.430240
     4  P    0.779407
     5  O   -0.491884
     6  O   -0.492525
     7  O   -0.948651
     8  Ca   1.400309
     9  O   -0.937906
 Sum of Mulliken charges=   1.00000
 Electronic spatial extent (au):  <R**2>=  2430.4797
 Charge=     1.0000 electrons
 Dipole moment (field-independent basis, Debye):
    X=     4.9678    Y=    -1.7037    Z=     8.6779  Tot=    10.1434
 Quadrupole moment (field-independent basis, Debye-Ang):
   XX=   -75.2059   YY=   -34.6922   ZZ=   -68.0814
   XY=     4.3929   XZ=   -29.7829   YZ=    -0.7686
 Traceless Quadrupole moment (field-independent basis, Debye-Ang):
   XX=   -15.8794   YY=    24.6343   ZZ=    -8.7549
   XY=     4.3929   XZ=   -29.7829   YZ=    -0.7686
 Octapole moment (field-independent basis, Debye-Ang**2):
  XXX=   -31.2846  YYY=    20.0278  ZZZ=    41.4045  XYY=   113.4138
  XXY=   -46.8943  XXZ=    63.0539  XZZ=   -20.1526  YZZ=    -3.2052
  YYZ=     9.4372  XYZ=     7.1782
 Hexadecapole moment (field-independent basis, Debye-Ang**3):
 XXXX= -2125.1438 YYYY=  -429.0594 ZZZZ=  -293.0571 XXXY=     3.9919
 XXXZ=  -255.2076 YYYX=    25.2967 YYYZ=     6.0368 ZZZX=   -85.6688
 ZZZY=    -5.1860 XXYY=  -199.0801 XXZZ=  -304.6717 YYZZ=  -144.6739
 XXYZ=    -3.4515 YYXZ=   -16.8855 ZZXY=     8.2602
 N-N= 1.004876676109D+03 E-N=-8.510934119309D+03  KE= 2.742148483676D+03
 Merz-Kollman atomic radii used.
 Read replacement radii for each type of atom:
 Rad(20) =   1.188000000000D+00
 Atom Element Radius
    1    20    1.19
    2     8    1.40
    3    20    1.19
    4    15    1.80
    5     8    1.40
    6     8    1.40
    7     8    1.40
    8    20    1.19
    9     8    1.40

 **********************************************************************

            Electrostatic Properties Using The SCF Density

 **********************************************************************

       Atomic Center    1 is at   2.016002 -1.745569 -0.018901
       Atomic Center    2 is at   2.875350  0.176362  0.254879
       Atomic Center    3 is at   1.713807  1.946110  0.105429
       Atomic Center    4 is at  -0.445140 -0.069162 -0.944541
       Atomic Center    5 is at  -2.113530 -0.300514 -1.214311
       Atomic Center    6 is at  -3.114401  0.671585 -0.623891
       Atomic Center    7 is at  -0.251229 -1.363092  0.085419
       Atomic Center    8 is at  -2.184050 -0.272524  1.152489
       Atomic Center    9 is at  -0.425952  1.125298  0.171369
     765 points will be used for fitting atomic charges
 Fitting point charges to eletrostatic potential
 Charges from ESP fit, RMS=   0.00703 RRMS=   0.04466:
 Charge=   1.00000 Dipole=     5.0092    -1.8976     8.7397 Tot=    10.2506
              1
     1  Ca   1.707871
     2  O   -1.555515
     3  Ca   1.690545
     4  P    0.130970
     5  O   -0.129604
     6  O   -0.614830
     7  O   -1.004468
     8  Ca   1.636703
     9  O   -0.861671
 -----------------------------------------------------------------

              Electrostatic Properties (Atomic Units)

 -----------------------------------------------------------------
    Center     Electric         -------- Electric Field --------
               Potential          X             Y             Z
 -----------------------------------------------------------------
    1 Atom    -80.040605
    2 Atom    -22.326704
    3 Atom    -80.039476
    4 Atom    -53.945311
    5 Atom    -22.200166
    6 Atom    -22.259511
    7 Atom    -22.228793
    8 Atom    -80.021313
    9 Atom    -22.231476
 -----------------------------------------------------------------
 1\1\GINC-N059\SP\RB3LYP\6-31+G(d,p)\Ca3O5P1(1+)\TIMN\12-Jun-2015\0\\# 
 b3lyp/6-31+G(d,p) int=ultrafine pop=(ReadRadii,MK)\\mol_17.29.31.pdbc_
 plusQ.z58613.zip.xyz\\1,1\Ca,0,2.016,-1.74557,-0.0189\O,0,2.87535,0.17
 636,0.25488\Ca,0,1.71381,1.94611,0.10543\P,0,-0.44514,-0.06916,-0.9445
 4\O,0,-2.11353,-0.30051,-1.21431\O,0,-3.1144,0.67159,-0.62389\O,0,-0.2
 5123,-1.36309,0.08542\Ca,0,-2.18405,-0.27252,1.15249\O,0,-0.42595,1.12
 53,0.17137\\Version=EM64T-G03RevE.01\State=1-A\HF=-2750.1177472\RMSD=4
 .750e-05\Thermal=0.\Dipole=1.9545016,-0.6702881,3.4141593\PG=C01 [X(Ca
 3O5P1)]\\@


 THERE IS NOTHING NOBLE IN BEING SUPERIOR TO SOME OTHER MAN.
 TRUE NOBILITY IS BEING SUPERIOR TO YOUR FORMER SELF.

                                                   -- HINDU PROVERB
 Job cpu time:  0 days  0 hours  2 minutes 26.4 seconds.
 File lengths (MBytes):  RWF=     36 Int=      0 D2E=      0 Chk=     11 Scr=      1
 Normal termination of Gaussian 03 at Fri Jun 12 18:13:16 2015.
