 Entering Gaussian System, Link 0=/home/timn/tmp/g03.e01/g03
 Input=mol_17.26.54.pdbcccc_plusQ.z58466.zip.xyz.gjf
 Output=mol_17.26.54.pdbcccc_plusQ.z58466.zip.xyz.out
 Initial command:
 /home/timn/tmp/g03.e01/l1.exe /home/timn/tmp/g03.e01/Gau-19506.inp -scrdir=/home/timn/tmp/g03.e01/
 Default is to use a total of   2 processors:
                                2 via shared-memory
                                1 via Linda
 Entering Link 1 = /home/timn/tmp/g03.e01/l1.exe PID=     19507.
  
 Copyright (c) 1988,1990,1992,1993,1995,1998,2003,2004,2007, Gaussian, Inc.
                  All Rights Reserved.
  
 This is the Gaussian(R) 03 program.  It is based on the
 the Gaussian(R) 98 system (copyright 1998, Gaussian, Inc.),
 the Gaussian(R) 94 system (copyright 1995, Gaussian, Inc.),
 the Gaussian 92(TM) system (copyright 1992, Gaussian, Inc.),
 the Gaussian 90(TM) system (copyright 1990, Gaussian, Inc.),
 the Gaussian 88(TM) system (copyright 1988, Gaussian, Inc.),
 the Gaussian 86(TM) system (copyright 1986, Carnegie Mellon
 University), and the Gaussian 82(TM) system (copyright 1983,
 Carnegie Mellon University). Gaussian is a federally registered
 trademark of Gaussian, Inc.
  
 This software contains proprietary and confidential information,
 including trade secrets, belonging to Gaussian, Inc.
  
 This software is provided under written license and may be
 used, copied, transmitted, or stored only in accord with that
 written license.
  
 The following legend is applicable only to US Government
 contracts under FAR:
  
                    RESTRICTED RIGHTS LEGEND
  
 Use, reproduction and disclosure by the US Government is
 subject to restrictions as set forth in subparagraphs (a)
 and (c) of the Commercial Computer Software - Restricted
 Rights clause in FAR 52.227-19.
  
 Gaussian, Inc.
 340 Quinnipiac St., Bldg. 40, Wallingford CT 06492
  
  
 ---------------------------------------------------------------
 Warning -- This program may not be used in any manner that
 competes with the business of Gaussian, Inc. or will provide
 assistance to any competitor of Gaussian, Inc.  The licensee
 of this program is prohibited from giving any competitor of
 Gaussian, Inc. access to this program.  By using this program,
 the user acknowledges that Gaussian, Inc. is engaged in the
 business of creating and licensing software in the field of
 computational chemistry and represents and warrants to the
 licensee that it is not a competitor of Gaussian, Inc. and that
 it will not use this program in any manner prohibited above.
 ---------------------------------------------------------------
  

 Cite this work as:
 Gaussian 03, Revision E.01,
 M. J. Frisch, G. W. Trucks, H. B. Schlegel, G. E. Scuseria, 
 M. A. Robb, J. R. Cheeseman, J. A. Montgomery, Jr., T. Vreven, 
 K. N. Kudin, J. C. Burant, J. M. Millam, S. S. Iyengar, J. Tomasi, 
 V. Barone, B. Mennucci, M. Cossi, G. Scalmani, N. Rega, 
 G. A. Petersson, H. Nakatsuji, M. Hada, M. Ehara, K. Toyota, 
 R. Fukuda, J. Hasegawa, M. Ishida, T. Nakajima, Y. Honda, O. Kitao, 
 H. Nakai, M. Klene, X. Li, J. E. Knox, H. P. Hratchian, J. B. Cross, 
 V. Bakken, C. Adamo, J. Jaramillo, R. Gomperts, R. E. Stratmann, 
 O. Yazyev, A. J. Austin, R. Cammi, C. Pomelli, J. W. Ochterski, 
 P. Y. Ayala, K. Morokuma, G. A. Voth, P. Salvador, J. J. Dannenberg, 
 V. G. Zakrzewski, S. Dapprich, A. D. Daniels, M. C. Strain, 
 O. Farkas, D. K. Malick, A. D. Rabuck, K. Raghavachari, 
 J. B. Foresman, J. V. Ortiz, Q. Cui, A. G. Baboul, S. Clifford, 
 J. Cioslowski, B. B. Stefanov, G. Liu, A. Liashenko, P. Piskorz, 
 I. Komaromi, R. L. Martin, D. J. Fox, T. Keith, M. A. Al-Laham, 
 C. Y. Peng, A. Nanayakkara, M. Challacombe, P. M. W. Gill, 
 B. Johnson, W. Chen, M. W. Wong, C. Gonzalez, and J. A. Pople, 
 Gaussian, Inc., Wallingford CT, 2004.
 
 ******************************************
 Gaussian 03:  EM64T-G03RevE.01 11-Sep-2007
                12-Jun-2015 
 ******************************************
 %nproc=2
 Will use up to    2 processors via shared memory.
 Default route:  MP2=Direct MaxDisk=2000MB
 ----------------------------------------------------
 # b3lyp/6-31+G(d,p) int=ultrafine pop=(ReadRadii,MK)
 ----------------------------------------------------

 Warning!  SCF SP cutoffs with diffuse functions may be unreliable.
 Consider SCF=Tight

 1/38=1/1;
 2/17=6,18=5,40=1/2;
 3/5=1,6=6,7=111,11=2,16=1,25=1,30=1,74=-5,75=5/1,2,3;
 4//1;
 5/5=2,32=1,38=5/2;
 6/7=2,8=2,9=2,10=2,15=8,20=101,28=1/1,2;
 99/5=1,9=1/99;
 -----------------------------------------
 mol_17.26.54.pdbcccc_plusQ.z58466.zip.xyz
 -----------------------------------------
 Symbolic Z-matrix:
 Charge =  1 Multiplicity = 1
 O                     1.68715  -1.04077  -0.00036 
 O                    -2.78752  -1.05487   0.78478 
 O                    -2.78798  -1.05481  -0.78441 
 Ca                   -2.87063   1.0381    0.00032 
 O                    -0.62467   1.10511   0.00011 
 Ca                   -0.67989  -1.27821  -0.00044 
 P                     3.2503   -0.96629   0.00043 
 O                     3.59134   0.53456   0.00054 
 Ca                    1.48147   1.56913  -0.00046 
 
                          Input orientation:                          
 ---------------------------------------------------------------------
 Center     Atomic     Atomic              Coordinates (Angstroms)
 Number     Number      Type              X           Y           Z
 ---------------------------------------------------------------------
    1          8             0        1.687150   -1.040770   -0.000360
    2          8             0       -2.787520   -1.054870    0.784780
    3          8             0       -2.787980   -1.054810   -0.784410
    4         20             0       -2.870630    1.038100    0.000320
    5          8             0       -0.624670    1.105110    0.000110
    6         20             0       -0.679890   -1.278210   -0.000440
    7         15             0        3.250300   -0.966290    0.000430
    8          8             0        3.591340    0.534560    0.000540
    9         20             0        1.481470    1.569130   -0.000460
 ---------------------------------------------------------------------
                    Distance matrix (angstroms):
                    1          2          3          4          5
     1  O    0.000000
     2  O    4.543051   0.000000
     3  O    4.543316   1.569190   0.000000
     4  Ca   5.009497   2.236696   2.236717   0.000000
     5  O    3.154253   3.155811   3.156048   2.246959   0.000000
     6  Ca   2.378919   2.260211   2.260212   3.188202   2.383960
     7  P    1.564924   6.089197   6.089716   6.440758   4.393870
     8  O    2.471357   6.620512   6.621025   6.481559   4.254441
     9  Ca   2.617992   5.072105   5.072262   4.384378   2.156650
                    6          7          8          9
     6  Ca   0.000000
     7  P    3.942548   0.000000
     8  O    4.639994   1.539110   0.000000
     9  Ca   3.574748   3.091458   2.349870   0.000000
 Stoichiometry    Ca3O5P(1+)
 Framework group  C1[X(Ca3O5P)]
 Deg. of freedom    21
 Full point group                 C1
 Largest Abelian subgroup         C1      NOp   1
 Largest concise Abelian subgroup C1      NOp   1
                         Standard orientation:                         
 ---------------------------------------------------------------------
 Center     Atomic     Atomic              Coordinates (Angstroms)
 Number     Number      Type              X           Y           Z
 ---------------------------------------------------------------------
    1          8             0        1.687148   -1.040770   -0.000361
    2          8             0       -2.787522   -1.054866    0.784779
    3          8             0       -2.787982   -1.054806   -0.784411
    4         20             0       -2.870629    1.038105    0.000319
    5          8             0       -0.624669    1.105112    0.000109
    6         20             0       -0.679892   -1.278208   -0.000441
    7         15             0        3.250298   -0.966292    0.000429
    8          8             0        3.591340    0.534558    0.000539
    9         20             0        1.481471    1.569130   -0.000461
 ---------------------------------------------------------------------
 Rotational constants (GHZ):      1.5205018      0.3920554      0.3194475
 Standard basis: 6-31+G(d,p) (6D, 7F)
 There are   199 symmetry adapted basis functions of A   symmetry.
 Integral buffers will be    131072 words long.
 Raffenetti 2 integral format.
 Two-electron integral symmetry is turned on.
   199 basis functions,   456 primitive gaussians,   199 cartesian basis functions
    57 alpha electrons       57 beta electrons
       nuclear repulsion energy       956.5270971692 Hartrees.
 NAtoms=    9 NActive=    9 NUniq=    9 SFac= 7.50D-01 NAtFMM=   80 NAOKFM=F Big=F
 One-electron integrals computed using PRISM.
 NBasis=   199 RedAO= T  NBF=   199
 NBsUse=   199 1.00D-06 NBFU=   199
 Harris functional with IExCor=  402 diagonalized for initial guess.
 ExpMin= 7.10D-03 ExpMax= 3.53D+04 ExpMxC= 5.30D+03 IAcc=3 IRadAn=         5 AccDes= 0.00D+00
 HarFok:  IExCor= 402 AccDes= 0.00D+00 IRadAn=         5 IDoV=1
 ScaDFX=  1.000000  1.000000  1.000000  1.000000
 Initial guess orbital symmetries:
       Occupied  (A) (A) (A) (A) (A) (A) (A) (A) (A) (A) (A) (A)
                 (A) (A) (A) (A) (A) (A) (A) (A) (A) (A) (A) (A)
                 (A) (A) (A) (A) (A) (A) (A) (A) (A) (A) (A) (A)
                 (A) (A) (A) (A) (A) (A) (A) (A) (A) (A) (A) (A)
                 (A) (A) (A) (A) (A) (A) (A) (A) (A)
       Virtual   (A) (A) (A) (A) (A) (A) (A) (A) (A) (A) (A) (A)
                 (A) (A) (A) (A) (A) (A) (A) (A) (A) (A) (A) (A)
                 (A) (A) (A) (A) (A) (A) (A) (A) (A) (A) (A) (A)
                 (A) (A) (A) (A) (A) (A) (A) (A) (A) (A) (A) (A)
                 (A) (A) (A) (A) (A) (A) (A) (A) (A) (A) (A) (A)
                 (A) (A) (A) (A) (A) (A) (A) (A) (A) (A) (A) (A)
                 (A) (A) (A) (A) (A) (A) (A) (A) (A) (A) (A) (A)
                 (A) (A) (A) (A) (A) (A) (A) (A) (A) (A) (A) (A)
                 (A) (A) (A) (A) (A) (A) (A) (A) (A) (A) (A) (A)
                 (A) (A) (A) (A) (A) (A) (A) (A) (A) (A) (A) (A)
                 (A) (A) (A) (A) (A) (A) (A) (A) (A) (A) (A) (A)
                 (A) (A) (A) (A) (A) (A) (A) (A) (A) (A)
 The electronic state of the initial guess is 1-A.
 Requested convergence on RMS density matrix=1.00D-04 within 128 cycles.
 Requested convergence on MAX density matrix=1.00D-02.
 Requested convergence on             energy=1.00D-02.
 No special actions if energy rises.
 EnCoef did     2 forward-backward iterations
 SCF Done:  E(RB+HF-LYP) =  -2750.21059106     A.U. after    9 cycles
             Convg  =    0.7410D-04             -V/T =  2.0029
             S**2   =   0.0000

 **********************************************************************

            Population analysis using the SCF density.

 **********************************************************************

 Orbital symmetries:
       Occupied  (A) (A) (A) (A) (A) (A) (A) (A) (A) (A) (A) (A)
                 (A) (A) (A) (A) (A) (A) (A) (A) (A) (A) (A) (A)
                 (A) (A) (A) (A) (A) (A) (A) (A) (A) (A) (A) (A)
                 (A) (A) (A) (A) (A) (A) (A) (A) (A) (A) (A) (A)
                 (A) (A) (A) (A) (A) (A) (A) (A) (A)
       Virtual   (A) (A) (A) (A) (A) (A) (A) (A) (A) (A) (A) (A)
                 (A) (A) (A) (A) (A) (A) (A) (A) (A) (A) (A) (A)
                 (A) (A) (A) (A) (A) (A) (A) (A) (A) (A) (A) (A)
                 (A) (A) (A) (A) (A) (A) (A) (A) (A) (A) (A) (A)
                 (A) (A) (A) (A) (A) (A) (A) (A) (A) (A) (A) (A)
                 (A) (A) (A) (A) (A) (A) (A) (A) (A) (A) (A) (A)
                 (A) (A) (A) (A) (A) (A) (A) (A) (A) (A) (A) (A)
                 (A) (A) (A) (A) (A) (A) (A) (A) (A) (A) (A) (A)
                 (A) (A) (A) (A) (A) (A) (A) (A) (A) (A) (A) (A)
                 (A) (A) (A) (A) (A) (A) (A) (A) (A) (A) (A) (A)
                 (A) (A) (A) (A) (A) (A) (A) (A) (A) (A) (A) (A)
                 (A) (A) (A) (A) (A) (A) (A) (A) (A) (A)
 The electronic state is 1-A.
 Alpha  occ. eigenvalues -- -145.52559-145.47904-145.45930 -77.31433 -19.29693
 Alpha  occ. eigenvalues --  -19.28903 -19.20255 -19.20250 -19.17095 -15.59458
 Alpha  occ. eigenvalues --  -15.54772 -15.52793 -12.72723 -12.72681 -12.72479
 Alpha  occ. eigenvalues --  -12.67982 -12.67952 -12.67881 -12.66030 -12.65992
 Alpha  occ. eigenvalues --  -12.65878  -6.77032  -4.93463  -4.93237  -4.92819
 Alpha  occ. eigenvalues --   -1.96691  -1.92077  -1.90160  -1.24615  -1.24613
 Alpha  occ. eigenvalues --   -1.23577  -1.20504  -1.19686  -1.19274  -1.18006
 Alpha  occ. eigenvalues --   -1.17959  -1.17613  -1.15364  -1.09601  -1.02799
 Alpha  occ. eigenvalues --   -0.91876  -0.84036  -0.68622  -0.57618  -0.54917
 Alpha  occ. eigenvalues --   -0.54229  -0.46662  -0.45214  -0.43697  -0.42878
 Alpha  occ. eigenvalues --   -0.41967  -0.41270  -0.37528  -0.36624  -0.35918
 Alpha  occ. eigenvalues --   -0.30800  -0.29152
 Alpha virt. eigenvalues --   -0.21351  -0.20121  -0.17697  -0.14555  -0.13030
 Alpha virt. eigenvalues --   -0.11137  -0.10817  -0.10363  -0.09100  -0.08476
 Alpha virt. eigenvalues --   -0.07858  -0.07110  -0.06764  -0.06248  -0.05628
 Alpha virt. eigenvalues --   -0.05188  -0.04735  -0.04683  -0.04464  -0.04344
 Alpha virt. eigenvalues --   -0.04003  -0.03716  -0.03703  -0.03624  -0.03171
 Alpha virt. eigenvalues --   -0.02777  -0.02662  -0.02453  -0.01921  -0.00113
 Alpha virt. eigenvalues --    0.01317   0.02752   0.03372   0.03460   0.03668
 Alpha virt. eigenvalues --    0.04873   0.05033   0.05905   0.05976   0.06290
 Alpha virt. eigenvalues --    0.06568   0.07097   0.07282   0.08206   0.08736
 Alpha virt. eigenvalues --    0.09189   0.10297   0.10752   0.10898   0.11383
 Alpha virt. eigenvalues --    0.11450   0.13512   0.15040   0.15049   0.16478
 Alpha virt. eigenvalues --    0.17257   0.17694   0.19056   0.19834   0.20078
 Alpha virt. eigenvalues --    0.21544   0.22354   0.23466   0.24142   0.26711
 Alpha virt. eigenvalues --    0.27509   0.28812   0.30331   0.31207   0.31256
 Alpha virt. eigenvalues --    0.32412   0.33480   0.34885   0.36801   0.38059
 Alpha virt. eigenvalues --    0.40606   0.42565   0.45768   0.46796   0.52514
 Alpha virt. eigenvalues --    0.52886   0.54094   0.57480   0.60735   0.64099
 Alpha virt. eigenvalues --    0.65164   0.85564   0.92272   0.94287   1.05089
 Alpha virt. eigenvalues --    1.07490   1.07497   1.10991   1.12550   1.14738
 Alpha virt. eigenvalues --    1.16110   1.16288   1.17433   1.19992   1.20582
 Alpha virt. eigenvalues --    1.21706   1.22840   1.25526   1.28484   1.32392
 Alpha virt. eigenvalues --    1.37941   1.41083   1.48240   1.53865   1.54131
 Alpha virt. eigenvalues --    1.54827   1.63719   1.66323   1.68682   1.69452
 Alpha virt. eigenvalues --    1.72704   1.73038   1.76700   1.78360   1.80065
 Alpha virt. eigenvalues --    1.80380   1.83368   1.84205   1.85127   1.86542
 Alpha virt. eigenvalues --    1.89055   1.92092   1.95256   2.01465   2.05562
 Alpha virt. eigenvalues --    2.12187   2.21709   2.24045   2.51048   2.67672
 Alpha virt. eigenvalues --    3.06793   3.38677   3.85993   3.88088   3.95559
 Alpha virt. eigenvalues --    4.10896   4.14242
          Condensed to atoms (all electrons):
              1          2          3          4          5          6
     1  O    8.914752  -0.001578  -0.001587   0.005407  -0.012910   0.037204
     2  O   -0.001578   8.485275  -0.029969   0.098443  -0.003697   0.106784
     3  O   -0.001587  -0.029969   8.485303   0.098455  -0.003698   0.106821
     4  Ca   0.005407   0.098443   0.098455  18.303186   0.109015  -0.047310
     5  O   -0.012910  -0.003697  -0.003698   0.109015   8.991776   0.055038
     6  Ca   0.037204   0.106784   0.106821  -0.047310   0.055038  18.343118
     7  P   -0.144226  -0.000090  -0.000087  -0.012680  -0.008593   0.004711
     8  O   -0.075164   0.000005   0.000005   0.002350  -0.000422   0.005418
     9  Ca   0.017694  -0.000987  -0.000995  -0.013903   0.196296  -0.005193
              7          8          9
     1  O   -0.144226  -0.075164   0.017694
     2  O   -0.000090   0.000005  -0.000987
     3  O   -0.000087   0.000005  -0.000995
     4  Ca  -0.012680   0.002350  -0.013903
     5  O   -0.008593  -0.000422   0.196296
     6  Ca   0.004711   0.005418  -0.005193
     7  P   14.409489   0.091286  -0.020002
     8  O    0.091286   8.555373   0.076974
     9  Ca  -0.020002   0.076974  18.254093
 Mulliken atomic charges:
              1
     1  O   -0.739592
     2  O   -0.654187
     3  O   -0.654248
     4  Ca   1.457036
     5  O   -1.322806
     6  Ca   1.393408
     7  P    0.680192
     8  O   -0.655826
     9  Ca   1.496022
 Sum of Mulliken charges=   1.00000
 Atomic charges with hydrogens summed into heavy atoms:
              1
     1  O   -0.739592
     2  O   -0.654187
     3  O   -0.654248
     4  Ca   1.457036
     5  O   -1.322806
     6  Ca   1.393408
     7  P    0.680192
     8  O   -0.655826
     9  Ca   1.496022
 Sum of Mulliken charges=   1.00000
 Electronic spatial extent (au):  <R**2>=  2984.8843
 Charge=     1.0000 electrons
 Dipole moment (field-independent basis, Debye):
    X=     1.5364    Y=     9.0251    Z=    -0.0048  Tot=     9.1550
 Quadrupole moment (field-independent basis, Debye-Ang):
   XX=   -64.0776   YY=   -51.7035   ZZ=   -77.1284
   XY=   -21.8695   XZ=    -0.0097   YZ=    -0.0006
 Traceless Quadrupole moment (field-independent basis, Debye-Ang):
   XX=     0.2256   YY=    12.5997   ZZ=   -12.8253
   XY=   -21.8695   XZ=    -0.0097   YZ=    -0.0006
 Octapole moment (field-independent basis, Debye-Ang**2):
  XXX=   -95.1110  YYY=    45.5224  ZZZ=    -0.0125  XYY=     9.0047
  XXY=   118.3343  XXZ=    -0.0022  XZZ=     9.7538  YZZ=    10.9560
  YYZ=    -0.0175  XYZ=    -0.0295
 Hexadecapole moment (field-independent basis, Debye-Ang**3):
 XXXX= -2682.9780 YYYY=  -563.4763 ZZZZ=  -128.6399 XXXY=  -454.6095
 XXXZ=    -0.1559 YYYX=    22.1410 YYYZ=     0.0012 ZZZX=    -0.0169
 ZZZY=     0.0050 XXYY=  -492.2599 XXZZ=  -482.1722 YYZZ=  -129.6319
 XXYZ=     0.0007 YYXZ=    -0.0266 ZZXY=   -17.0365
 N-N= 9.565270971692D+02 E-N=-8.414223428774D+03  KE= 2.742250320393D+03
 Merz-Kollman atomic radii used.
 Read replacement radii for each type of atom:
 Rad(20) =   1.188000000000D+00
 Atom Element Radius
    1     8    1.40
    2     8    1.40
    3     8    1.40
    4    20    1.19
    5     8    1.40
    6    20    1.19
    7    15    1.80
    8     8    1.40
    9    20    1.19

 **********************************************************************

            Electrostatic Properties Using The SCF Density

 **********************************************************************

       Atomic Center    1 is at   1.687148 -1.040770 -0.000361
       Atomic Center    2 is at  -2.787522 -1.054866  0.784779
       Atomic Center    3 is at  -2.787982 -1.054806 -0.784411
       Atomic Center    4 is at  -2.870629  1.038105  0.000319
       Atomic Center    5 is at  -0.624669  1.105112  0.000109
       Atomic Center    6 is at  -0.679892 -1.278208 -0.000441
       Atomic Center    7 is at   3.250298 -0.966292  0.000429
       Atomic Center    8 is at   3.591340  0.534558  0.000539
       Atomic Center    9 is at   1.481471  1.569130 -0.000461
     879 points will be used for fitting atomic charges
 Fitting point charges to eletrostatic potential
 Charges from ESP fit, RMS=   0.00471 RRMS=   0.03207:
 Charge=   1.00000 Dipole=     1.5351     9.2117    -0.0052 Tot=     9.3387
              1
     1  O   -0.748202
     2  O   -0.775998
     3  O   -0.776274
     4  Ca   1.699138
     5  O   -1.751052
     6  Ca   1.665468
     7  P    0.603259
     8  O   -0.661417
     9  Ca   1.745077
 -----------------------------------------------------------------

              Electrostatic Properties (Atomic Units)

 -----------------------------------------------------------------
    Center     Electric         -------- Electric Field --------
               Potential          X             Y             Z
 -----------------------------------------------------------------
    1 Atom    -22.167448
    2 Atom    -22.273272
    3 Atom    -22.273267
    4 Atom    -80.062077
    5 Atom    -22.293121
    6 Atom    -80.080899
    7 Atom    -53.901549
    8 Atom    -22.177641
    9 Atom    -80.015422
 -----------------------------------------------------------------
 1\1\GINC-N027\SP\RB3LYP\6-31+G(d,p)\Ca3O5P1(1+)\TIMN\12-Jun-2015\0\\# 
 b3lyp/6-31+G(d,p) int=ultrafine pop=(ReadRadii,MK)\\mol_17.26.54.pdbcc
 cc_plusQ.z58466.zip.xyz\\1,1\O,0,1.68715,-1.04077,-0.00036\O,0,-2.7875
 2,-1.05487,0.78478\O,0,-2.78798,-1.05481,-0.78441\Ca,0,-2.87063,1.0381
 ,0.00032\O,0,-0.62467,1.10511,0.00011\Ca,0,-0.67989,-1.27821,-0.00044\
 P,0,3.2503,-0.96629,0.00043\O,0,3.59134,0.53456,0.00054\Ca,0,1.48147,1
 .56913,-0.00046\\Version=EM64T-G03RevE.01\State=1-A\HF=-2750.2105911\R
 MSD=7.410e-05\Thermal=0.\Dipole=0.604476,3.5507541,-0.0018936\PG=C01 [
 X(Ca3O5P1)]\\@


 LIVE PURE, SPEAK TRUE, RIGHT WRONG, FOLLOW THE KING...
 ELSE, WHEREFORE BORN......
           IDYLLS OF THE KING, TENNYSON
 Job cpu time:  0 days  0 hours  2 minutes  6.2 seconds.
 File lengths (MBytes):  RWF=     36 Int=      0 D2E=      0 Chk=     11 Scr=      1
 Normal termination of Gaussian 03 at Fri Jun 12 18:02:11 2015.
