 Entering Gaussian System, Link 0=/home/timn/tmp/g03.e01/g03
 Input=mol_17.23.20.pdbc_plusQ.z58221.zip.xyz.gjf
 Output=mol_17.23.20.pdbc_plusQ.z58221.zip.xyz.out
 Initial command:
 /home/timn/tmp/g03.e01/l1.exe /home/timn/tmp/g03.e01/Gau-19849.inp -scrdir=/home/timn/tmp/g03.e01/
 Default is to use a total of   2 processors:
                                2 via shared-memory
                                1 via Linda
 Entering Link 1 = /home/timn/tmp/g03.e01/l1.exe PID=     19850.
  
 Copyright (c) 1988,1990,1992,1993,1995,1998,2003,2004,2007, Gaussian, Inc.
                  All Rights Reserved.
  
 This is the Gaussian(R) 03 program.  It is based on the
 the Gaussian(R) 98 system (copyright 1998, Gaussian, Inc.),
 the Gaussian(R) 94 system (copyright 1995, Gaussian, Inc.),
 the Gaussian 92(TM) system (copyright 1992, Gaussian, Inc.),
 the Gaussian 90(TM) system (copyright 1990, Gaussian, Inc.),
 the Gaussian 88(TM) system (copyright 1988, Gaussian, Inc.),
 the Gaussian 86(TM) system (copyright 1986, Carnegie Mellon
 University), and the Gaussian 82(TM) system (copyright 1983,
 Carnegie Mellon University). Gaussian is a federally registered
 trademark of Gaussian, Inc.
  
 This software contains proprietary and confidential information,
 including trade secrets, belonging to Gaussian, Inc.
  
 This software is provided under written license and may be
 used, copied, transmitted, or stored only in accord with that
 written license.
  
 The following legend is applicable only to US Government
 contracts under FAR:
  
                    RESTRICTED RIGHTS LEGEND
  
 Use, reproduction and disclosure by the US Government is
 subject to restrictions as set forth in subparagraphs (a)
 and (c) of the Commercial Computer Software - Restricted
 Rights clause in FAR 52.227-19.
  
 Gaussian, Inc.
 340 Quinnipiac St., Bldg. 40, Wallingford CT 06492
  
  
 ---------------------------------------------------------------
 Warning -- This program may not be used in any manner that
 competes with the business of Gaussian, Inc. or will provide
 assistance to any competitor of Gaussian, Inc.  The licensee
 of this program is prohibited from giving any competitor of
 Gaussian, Inc. access to this program.  By using this program,
 the user acknowledges that Gaussian, Inc. is engaged in the
 business of creating and licensing software in the field of
 computational chemistry and represents and warrants to the
 licensee that it is not a competitor of Gaussian, Inc. and that
 it will not use this program in any manner prohibited above.
 ---------------------------------------------------------------
  

 Cite this work as:
 Gaussian 03, Revision E.01,
 M. J. Frisch, G. W. Trucks, H. B. Schlegel, G. E. Scuseria, 
 M. A. Robb, J. R. Cheeseman, J. A. Montgomery, Jr., T. Vreven, 
 K. N. Kudin, J. C. Burant, J. M. Millam, S. S. Iyengar, J. Tomasi, 
 V. Barone, B. Mennucci, M. Cossi, G. Scalmani, N. Rega, 
 G. A. Petersson, H. Nakatsuji, M. Hada, M. Ehara, K. Toyota, 
 R. Fukuda, J. Hasegawa, M. Ishida, T. Nakajima, Y. Honda, O. Kitao, 
 H. Nakai, M. Klene, X. Li, J. E. Knox, H. P. Hratchian, J. B. Cross, 
 V. Bakken, C. Adamo, J. Jaramillo, R. Gomperts, R. E. Stratmann, 
 O. Yazyev, A. J. Austin, R. Cammi, C. Pomelli, J. W. Ochterski, 
 P. Y. Ayala, K. Morokuma, G. A. Voth, P. Salvador, J. J. Dannenberg, 
 V. G. Zakrzewski, S. Dapprich, A. D. Daniels, M. C. Strain, 
 O. Farkas, D. K. Malick, A. D. Rabuck, K. Raghavachari, 
 J. B. Foresman, J. V. Ortiz, Q. Cui, A. G. Baboul, S. Clifford, 
 J. Cioslowski, B. B. Stefanov, G. Liu, A. Liashenko, P. Piskorz, 
 I. Komaromi, R. L. Martin, D. J. Fox, T. Keith, M. A. Al-Laham, 
 C. Y. Peng, A. Nanayakkara, M. Challacombe, P. M. W. Gill, 
 B. Johnson, W. Chen, M. W. Wong, C. Gonzalez, and J. A. Pople, 
 Gaussian, Inc., Wallingford CT, 2004.
 
 ******************************************
 Gaussian 03:  EM64T-G03RevE.01 11-Sep-2007
                12-Jun-2015 
 ******************************************
 %nproc=2
 Will use up to    2 processors via shared memory.
 Default route:  MP2=Direct MaxDisk=2000MB
 ----------------------------------------------------
 # b3lyp/6-31+G(d,p) int=ultrafine pop=(ReadRadii,MK)
 ----------------------------------------------------

 Warning!  SCF SP cutoffs with diffuse functions may be unreliable.
 Consider SCF=Tight

 1/38=1/1;
 2/17=6,18=5,40=1/2;
 3/5=1,6=6,7=111,11=2,16=1,25=1,30=1,74=-5,75=5/1,2,3;
 4//1;
 5/5=2,32=1,38=5/2;
 6/7=2,8=2,9=2,10=2,15=8,20=101,28=1/1,2;
 99/5=1,9=1/99;
 --------------------------------------
 mol_17.23.20.pdbc_plusQ.z58221.zip.xyz
 --------------------------------------
 Symbolic Z-matrix:
 Charge =  1 Multiplicity = 1
 Ca                   -1.05619   4.79117   0. 
 O                     0.22729   3.00392   0. 
 O                    -1.29808   2.60384   0. 
 P                    -0.67258  -2.91691   0. 
 O                    -1.82328  -3.83503   0. 
 O                    -0.81777  -1.4006    0. 
 Ca                    0.        0.7341    0. 
 Ca                    2.73364  -2.1382    0. 
 O                     0.7793   -3.37058   0. 
 
                          Input orientation:                          
 ---------------------------------------------------------------------
 Center     Atomic     Atomic              Coordinates (Angstroms)
 Number     Number      Type              X           Y           Z
 ---------------------------------------------------------------------
    1         20             0       -1.056190    4.791170    0.000000
    2          8             0        0.227290    3.003920    0.000000
    3          8             0       -1.298080    2.603840    0.000000
    4         15             0       -0.672580   -2.916910    0.000000
    5          8             0       -1.823280   -3.835030    0.000000
    6          8             0       -0.817770   -1.400600    0.000000
    7         20             0        0.000000    0.734100    0.000000
    8         20             0        2.733640   -2.138200    0.000000
    9          8             0        0.779300   -3.370580    0.000000
 ---------------------------------------------------------------------
                    Distance matrix (angstroms):
                    1          2          3          4          5
     1  Ca   0.000000
     2  O    2.200360   0.000000
     3  O    2.200664   1.576965   0.000000
     4  P    7.717620   5.988822   5.556072   0.000000
     5  O    8.660240   7.139753   6.460254   1.472092   0.000000
     6  O    6.196359   4.526803   4.033142   1.523245   2.633913
     7  Ca   4.192297   2.281172   2.276168   3.712444   4.919482
     8  Ca   7.898036   5.720419   6.224284   3.494098   4.862587
     9  O    8.365595   6.398356   6.325283   1.521109   2.643697
                    6          7          8          9
     6  O    0.000000
     7  Ca   2.285977   0.000000
     8  Ca   3.627198   3.965211   0.000000
     9  O    2.536031   4.178003   2.310456   0.000000
 Stoichiometry    Ca3O5P(1+)
 Framework group  CS[SG(Ca3O5P)]
 Deg. of freedom    15
 Full point group                 CS
 Largest Abelian subgroup         CS      NOp   2
 Largest concise Abelian subgroup C1      NOp   1
                         Standard orientation:                         
 ---------------------------------------------------------------------
 Center     Atomic     Atomic              Coordinates (Angstroms)
 Number     Number      Type              X           Y           Z
 ---------------------------------------------------------------------
    1         20             0       -1.056191    4.791168    0.000000
    2          8             0        0.227289    3.003919    0.000000
    3          8             0       -1.298080    2.603838    0.000000
    4         15             0       -0.672579   -2.916911    0.000000
    5          8             0       -1.823279   -3.835032    0.000000
    6          8             0       -0.817769   -1.400601    0.000000
    7         20             0        0.000000    0.734099    0.000000
    8         20             0        2.733641   -2.138201    0.000000
    9          8             0        0.779301   -3.370581    0.000000
 ---------------------------------------------------------------------
 Rotational constants (GHZ):      1.2820303      0.2349960      0.1985938
 Standard basis: 6-31+G(d,p) (6D, 7F)
 There are   147 symmetry adapted basis functions of A'  symmetry.
 There are    52 symmetry adapted basis functions of A"  symmetry.
 Integral buffers will be    131072 words long.
 Raffenetti 2 integral format.
 Two-electron integral symmetry is turned on.
   199 basis functions,   456 primitive gaussians,   199 cartesian basis functions
    57 alpha electrons       57 beta electrons
       nuclear repulsion energy       850.2038354825 Hartrees.
 NAtoms=    9 NActive=    9 NUniq=    9 SFac= 7.50D-01 NAtFMM=   80 NAOKFM=F Big=F
 One-electron integrals computed using PRISM.
 NBasis=   199 RedAO= T  NBF=   147    52
 NBsUse=   199 1.00D-06 NBFU=   147    52
 Harris functional with IExCor=  402 diagonalized for initial guess.
 ExpMin= 7.10D-03 ExpMax= 3.53D+04 ExpMxC= 5.30D+03 IAcc=3 IRadAn=         5 AccDes= 0.00D+00
 HarFok:  IExCor= 402 AccDes= 0.00D+00 IRadAn=         5 IDoV=1
 ScaDFX=  1.000000  1.000000  1.000000  1.000000
 Initial guess orbital symmetries:
       Occupied  (A') (A') (A') (A') (A') (A') (A') (A') (A') (A')
                 (A') (A') (A') (A') (A") (A') (A') (A") (A') (A')
                 (A") (A') (A') (A') (A") (A') (A') (A') (A') (A')
                 (A') (A') (A') (A") (A') (A') (A") (A") (A') (A')
                 (A') (A') (A') (A') (A') (A') (A') (A") (A") (A')
                 (A') (A") (A") (A') (A') (A") (A')
       Virtual   (A') (A') (A') (A") (A') (A") (A') (A") (A') (A')
                 (A") (A') (A') (A') (A') (A') (A") (A') (A') (A")
                 (A') (A") (A') (A') (A') (A') (A") (A') (A') (A')
                 (A') (A') (A") (A") (A') (A") (A') (A') (A") (A')
                 (A') (A") (A') (A') (A") (A') (A") (A') (A") (A')
                 (A') (A') (A') (A") (A') (A") (A') (A") (A') (A')
                 (A') (A') (A") (A') (A') (A') (A') (A") (A') (A")
                 (A') (A') (A') (A') (A') (A') (A") (A') (A') (A')
                 (A") (A') (A") (A') (A') (A') (A') (A') (A') (A')
                 (A") (A') (A") (A") (A') (A") (A') (A') (A") (A')
                 (A') (A') (A') (A') (A') (A') (A') (A") (A') (A')
                 (A') (A') (A") (A') (A") (A') (A") (A") (A') (A')
                 (A") (A') (A') (A") (A') (A") (A') (A") (A") (A')
                 (A') (A') (A') (A') (A') (A') (A') (A') (A') (A')
                 (A') (A')
 The electronic state of the initial guess is 1-A'.
 Requested convergence on RMS density matrix=1.00D-04 within 128 cycles.
 Requested convergence on MAX density matrix=1.00D-02.
 Requested convergence on             energy=1.00D-02.
 No special actions if energy rises.
 Rare condition: small coef for last iteration:  0.000D+00
 EnCoef did   100 forward-backward iterations
 EnCoef did   100 forward-backward iterations
 EnCoef did   100 forward-backward iterations
 EnCoef did   100 forward-backward iterations
 SCF Done:  E(RB+HF-LYP) =  -2750.10275791     A.U. after   15 cycles
             Convg  =    0.2949D-04             -V/T =  2.0029
             S**2   =   0.0000

 **********************************************************************

            Population analysis using the SCF density.

 **********************************************************************

 Orbital symmetries:
       Occupied  (A') (A') (A') (A') (A') (A') (A') (A') (A') (A')
                 (A') (A') (A") (A') (A') (A") (A') (A') (A") (A')
                 (A') (A') (A") (A') (A') (A') (A') (A') (A") (A')
                 (A') (A") (A') (A') (A') (A") (A') (A') (A') (A')
                 (A') (A') (A') (A') (A") (A') (A') (A') (A') (A")
                 (A") (A') (A") (A') (A') (A") (A')
       Virtual   (A') (A') (A') (A") (A') (A") (A') (A") (A') (A')
                 (A') (A") (A') (A') (A') (A") (A') (A') (A") (A')
                 (A') (A") (A') (A') (A') (A") (A') (A') (A') (A')
                 (A') (A") (A') (A") (A') (A') (A') (A") (A") (A')
                 (A') (A') (A") (A") (A') (A") (A') (A") (A') (A')
                 (A') (A") (A') (A') (A') (A') (A") (A") (A') (A")
                 (A') (A') (A') (A') (A') (A') (A") (A') (A") (A')
                 (A') (A') (A') (A') (A') (A') (A") (A') (A') (A')
                 (A") (A') (A') (A") (A') (A') (A') (A') (A') (A')
                 (A') (A") (A") (A") (A') (A") (A') (A") (A') (A')
                 (A') (A') (A') (A') (A') (A') (A') (A') (A') (A")
                 (A') (A') (A") (A') (A") (A") (A') (A') (A') (A")
                 (A') (A") (A') (A") (A') (A") (A') (A") (A") (A')
                 (A') (A') (A') (A') (A') (A') (A') (A') (A') (A')
                 (A') (A')
 The electronic state is 1-A'.
 Alpha  occ. eigenvalues -- -145.55787-145.51424-145.48199 -77.32639 -19.26702
 Alpha  occ. eigenvalues --  -19.26548 -19.25437 -19.25402 -19.24561 -15.62635
 Alpha  occ. eigenvalues --  -15.58410 -15.55068 -12.75876 -12.75817 -12.75733
 Alpha  occ. eigenvalues --  -12.71597 -12.71589 -12.71493 -12.68345 -12.68255
 Alpha  occ. eigenvalues --  -12.68133  -6.77835  -4.94442  -4.93985  -4.93894
 Alpha  occ. eigenvalues --   -1.99593  -1.95466  -1.92292  -1.27201  -1.27169
 Alpha  occ. eigenvalues --   -1.26909  -1.22902  -1.22896  -1.22693  -1.20243
 Alpha  occ. eigenvalues --   -1.20216  -1.19824  -1.15259  -1.08348  -1.07680
 Alpha  occ. eigenvalues --   -1.07313  -0.89304  -0.64555  -0.56672  -0.53443
 Alpha  occ. eigenvalues --   -0.52927  -0.48691  -0.48131  -0.47114  -0.45888
 Alpha  occ. eigenvalues --   -0.44689  -0.44598  -0.42445  -0.39523  -0.37641
 Alpha  occ. eigenvalues --   -0.33480  -0.25900
 Alpha virt. eigenvalues --   -0.23961  -0.16931  -0.15136  -0.14463  -0.14358
 Alpha virt. eigenvalues --   -0.13818  -0.12001  -0.11594  -0.10744  -0.09608
 Alpha virt. eigenvalues --   -0.09402  -0.09199  -0.07649  -0.06571  -0.05965
 Alpha virt. eigenvalues --   -0.05510  -0.05099  -0.04907  -0.04635  -0.04511
 Alpha virt. eigenvalues --   -0.04082  -0.03446  -0.03332  -0.02966  -0.02705
 Alpha virt. eigenvalues --   -0.02342  -0.02157  -0.00094   0.00030   0.00830
 Alpha virt. eigenvalues --    0.01676   0.02049   0.02179   0.02220   0.02522
 Alpha virt. eigenvalues --    0.03709   0.04007   0.04690   0.05065   0.05086
 Alpha virt. eigenvalues --    0.05664   0.05845   0.05925   0.06328   0.06759
 Alpha virt. eigenvalues --    0.06957   0.07623   0.07874   0.08548   0.09623
 Alpha virt. eigenvalues --    0.10027   0.10233   0.11613   0.13352   0.14975
 Alpha virt. eigenvalues --    0.15651   0.15831   0.17232   0.18146   0.18224
 Alpha virt. eigenvalues --    0.18340   0.19110   0.20418   0.22027   0.23177
 Alpha virt. eigenvalues --    0.23709   0.23735   0.25320   0.25822   0.27611
 Alpha virt. eigenvalues --    0.29349   0.30729   0.31308   0.32270   0.34740
 Alpha virt. eigenvalues --    0.37061   0.38845   0.40817   0.46266   0.47746
 Alpha virt. eigenvalues --    0.56561   0.56670   0.57501   0.57532   0.61578
 Alpha virt. eigenvalues --    0.67759   0.76430   0.90572   0.94490   0.96889
 Alpha virt. eigenvalues --    1.03614   1.04060   1.07701   1.08578   1.09336
 Alpha virt. eigenvalues --    1.10088   1.11842   1.15584   1.15993   1.17120
 Alpha virt. eigenvalues --    1.19187   1.20698   1.23263   1.24930   1.28547
 Alpha virt. eigenvalues --    1.33185   1.40750   1.43722   1.48435   1.49123
 Alpha virt. eigenvalues --    1.54041   1.57191   1.66255   1.67037   1.67904
 Alpha virt. eigenvalues --    1.69438   1.70443   1.70816   1.72362   1.72804
 Alpha virt. eigenvalues --    1.77244   1.77626   1.81268   1.83727   1.90800
 Alpha virt. eigenvalues --    1.93506   2.00348   2.01835   2.15903   2.18535
 Alpha virt. eigenvalues --    2.20497   2.21677   2.59793   2.73376   2.80722
 Alpha virt. eigenvalues --    3.01009   3.39850   3.84741   3.89510   3.98869
 Alpha virt. eigenvalues --    4.01031   4.10431
          Condensed to atoms (all electrons):
              1          2          3          4          5          6
     1  Ca  18.479006   0.117563   0.103202   0.001259   0.003653  -0.006928
     2  O    0.117563   8.475829  -0.038553   0.001046   0.000020  -0.000249
     3  O    0.103202  -0.038553   8.488074  -0.000191  -0.000022   0.001179
     4  P    0.001259   0.001046  -0.000191  12.729188   0.408340   0.021366
     5  O    0.003653   0.000020  -0.000022   0.408340   8.508488  -0.158345
     6  O   -0.006928  -0.000249   0.001179   0.021366  -0.158345   9.341352
     7  Ca  -0.021469   0.089016   0.093548   0.027941  -0.000308  -0.000527
     8  Ca  -0.018064  -0.007399  -0.001468   0.080259  -0.021069  -0.138195
     9  O   -0.000867   0.000076  -0.000155   0.260319  -0.123176  -0.292019
              7          8          9
     1  Ca  -0.021469  -0.018064  -0.000867
     2  O    0.089016  -0.007399   0.000076
     3  O    0.093548  -0.001468  -0.000155
     4  P    0.027941   0.080259   0.260319
     5  O   -0.000308  -0.021069  -0.123176
     6  O   -0.000527  -0.138195  -0.292019
     7  Ca  18.529808   0.268092  -0.087699
     8  Ca   0.268092  19.466090  -0.082535
     9  O   -0.087699  -0.082535   9.026886
 Mulliken atomic charges:
              1
     1  Ca   1.342645
     2  O   -0.637348
     3  O   -0.645614
     4  P    1.470473
     5  O   -0.617579
     6  O   -0.767634
     7  Ca   1.101599
     8  Ca   0.454289
     9  O   -0.700830
 Sum of Mulliken charges=   1.00000
 Atomic charges with hydrogens summed into heavy atoms:
              1
     1  Ca   1.342645
     2  O   -0.637348
     3  O   -0.645614
     4  P    1.470473
     5  O   -0.617579
     6  O   -0.767634
     7  Ca   1.101599
     8  Ca   0.454289
     9  O   -0.700830
 Sum of Mulliken charges=   1.00000
 Electronic spatial extent (au):  <R**2>=  4635.8145
 Charge=     1.0000 electrons
 Dipole moment (field-independent basis, Debye):
    X=     3.0832    Y=    16.7413    Z=     0.0000  Tot=    17.0228
 Quadrupole moment (field-independent basis, Debye-Ang):
   XX=   -70.7305   YY=    11.4448   ZZ=   -81.4303
   XY=   -50.3141   XZ=     0.0000   YZ=     0.0000
 Traceless Quadrupole moment (field-independent basis, Debye-Ang):
   XX=   -23.8252   YY=    58.3501   ZZ=   -34.5249
   XY=   -50.3141   XZ=     0.0000   YZ=     0.0000
 Octapole moment (field-independent basis, Debye-Ang**2):
  XXX=    28.5864  YYY=   665.1383  ZZZ=     0.0000  XYY=   -70.9856
  XXY=    -1.5000  XXZ=     0.0000  XZZ=   -16.8409  YZZ=    13.1691
  YYZ=     0.0000  XYZ=     0.0000
 Hexadecapole moment (field-independent basis, Debye-Ang**3):
 XXXX= -1117.7739 YYYY= -1753.1310 ZZZZ=  -140.3182 XXXY=    86.6000
 XXXZ=     0.0000 YYYX=  -556.2384 YYYZ=     0.0000 ZZZX=     0.0000
 ZZZY=     0.0000 XXYY=  -727.8917 XXZZ=  -238.3433 YYZZ=  -713.6301
 XXYZ=     0.0000 YYXZ=     0.0000 ZZXY=   114.0435
 N-N= 8.502038354825D+02 E-N=-8.198479392981D+03  KE= 2.742125852914D+03
 Symmetry A'   KE= 2.474900875674D+03
 Symmetry A"   KE= 2.672249772410D+02
 Merz-Kollman atomic radii used.
 Read replacement radii for each type of atom:
 Rad(20) =   1.188000000000D+00
 Atom Element Radius
    1    20    1.19
    2     8    1.40
    3     8    1.40
    4    15    1.80
    5     8    1.40
    6     8    1.40
    7    20    1.19
    8    20    1.19
    9     8    1.40

 **********************************************************************

            Electrostatic Properties Using The SCF Density

 **********************************************************************

       Atomic Center    1 is at  -1.056191  4.791168  0.000000
       Atomic Center    2 is at   0.227289  3.003919  0.000000
       Atomic Center    3 is at  -1.298080  2.603838  0.000000
       Atomic Center    4 is at  -0.672579 -2.916911  0.000000
       Atomic Center    5 is at  -1.823279 -3.835032  0.000000
       Atomic Center    6 is at  -0.817769 -1.400601  0.000000
       Atomic Center    7 is at   0.000000  0.734099  0.000000
       Atomic Center    8 is at   2.733641 -2.138201  0.000000
       Atomic Center    9 is at   0.779301 -3.370581  0.000000
     896 points will be used for fitting atomic charges
 Fitting point charges to eletrostatic potential
 Charges from ESP fit, RMS=   0.02056 RRMS=   0.14072:
 Charge=   1.00000 Dipole=     4.9907    18.3268     0.0000 Tot=    18.9942
              1
     1  Ca   1.377000
     2  O   -0.857355
     3  O   -0.498462
     4  P    0.324600
     5  O   -0.353407
     6  O   -0.264235
     7  Ca   0.944827
     8  Ca   0.585489
     9  O   -0.258456
 -----------------------------------------------------------------

              Electrostatic Properties (Atomic Units)

 -----------------------------------------------------------------
    Center     Electric         -------- Electric Field --------
               Potential          X             Y             Z
 -----------------------------------------------------------------
    1 Atom    -79.980717
    2 Atom    -22.213951
    3 Atom    -22.212556
    4 Atom    -53.881625
    5 Atom    -22.225776
    6 Atom    -22.195482
    7 Atom    -80.058862
    8 Atom    -80.033256
    9 Atom    -22.201061
 -----------------------------------------------------------------
 1\1\GINC-N022\SP\RB3LYP\6-31+G(d,p)\Ca3O5P1(1+)\TIMN\12-Jun-2015\0\\# 
 b3lyp/6-31+G(d,p) int=ultrafine pop=(ReadRadii,MK)\\mol_17.23.20.pdbc_
 plusQ.z58221.zip.xyz\\1,1\Ca,0,-1.05619,4.79117,0.\O,0,0.22729,3.00392
 ,0.\O,0,-1.29808,2.60384,0.\P,0,-0.67258,-2.91691,0.\O,0,-1.82328,-3.8
 3503,0.\O,0,-0.81777,-1.4006,0.\Ca,0,0.,0.7341,0.\Ca,0,2.73364,-2.1382
 ,0.\O,0,0.7793,-3.37058,0.\\Version=EM64T-G03RevE.01\State=1-A'\HF=-27
 50.1027579\RMSD=2.949e-05\Thermal=0.\Dipole=1.2130088,6.5865362,0.\PG=
 CS [SG(Ca3O5P1)]\\@


 EVERYBODY NEEDS BEAUTY AS WELL AS BREAD, PLACES TO PLAY IN AND PRAY IN,
 WHERE NATURE MAY HEAL AND CHEER AND GIVE STRENGTH TO BODY AND SOUL ALIKE.

                                    -- JOHN MUIR
 Job cpu time:  0 days  0 hours  2 minutes 19.2 seconds.
 File lengths (MBytes):  RWF=     36 Int=      0 D2E=      0 Chk=     11 Scr=      1
 Normal termination of Gaussian 03 at Fri Jun 12 17:52:44 2015.
