 Entering Gaussian System, Link 0=/home/timn/tmp/g03.e01/g03
 Input=mol_17.27.16.pdbc_plusQ.z58483.zip.xyz.gjf
 Output=mol_17.27.16.pdbc_plusQ.z58483.zip.xyz.out
 Initial command:
 /home/timn/tmp/g03.e01/l1.exe /home/timn/tmp/g03.e01/Gau-20031.inp -scrdir=/home/timn/tmp/g03.e01/
 Default is to use a total of   2 processors:
                                2 via shared-memory
                                1 via Linda
 Entering Link 1 = /home/timn/tmp/g03.e01/l1.exe PID=     20032.
  
 Copyright (c) 1988,1990,1992,1993,1995,1998,2003,2004,2007, Gaussian, Inc.
                  All Rights Reserved.
  
 This is the Gaussian(R) 03 program.  It is based on the
 the Gaussian(R) 98 system (copyright 1998, Gaussian, Inc.),
 the Gaussian(R) 94 system (copyright 1995, Gaussian, Inc.),
 the Gaussian 92(TM) system (copyright 1992, Gaussian, Inc.),
 the Gaussian 90(TM) system (copyright 1990, Gaussian, Inc.),
 the Gaussian 88(TM) system (copyright 1988, Gaussian, Inc.),
 the Gaussian 86(TM) system (copyright 1986, Carnegie Mellon
 University), and the Gaussian 82(TM) system (copyright 1983,
 Carnegie Mellon University). Gaussian is a federally registered
 trademark of Gaussian, Inc.
  
 This software contains proprietary and confidential information,
 including trade secrets, belonging to Gaussian, Inc.
  
 This software is provided under written license and may be
 used, copied, transmitted, or stored only in accord with that
 written license.
  
 The following legend is applicable only to US Government
 contracts under FAR:
  
                    RESTRICTED RIGHTS LEGEND
  
 Use, reproduction and disclosure by the US Government is
 subject to restrictions as set forth in subparagraphs (a)
 and (c) of the Commercial Computer Software - Restricted
 Rights clause in FAR 52.227-19.
  
 Gaussian, Inc.
 340 Quinnipiac St., Bldg. 40, Wallingford CT 06492
  
  
 ---------------------------------------------------------------
 Warning -- This program may not be used in any manner that
 competes with the business of Gaussian, Inc. or will provide
 assistance to any competitor of Gaussian, Inc.  The licensee
 of this program is prohibited from giving any competitor of
 Gaussian, Inc. access to this program.  By using this program,
 the user acknowledges that Gaussian, Inc. is engaged in the
 business of creating and licensing software in the field of
 computational chemistry and represents and warrants to the
 licensee that it is not a competitor of Gaussian, Inc. and that
 it will not use this program in any manner prohibited above.
 ---------------------------------------------------------------
  

 Cite this work as:
 Gaussian 03, Revision E.01,
 M. J. Frisch, G. W. Trucks, H. B. Schlegel, G. E. Scuseria, 
 M. A. Robb, J. R. Cheeseman, J. A. Montgomery, Jr., T. Vreven, 
 K. N. Kudin, J. C. Burant, J. M. Millam, S. S. Iyengar, J. Tomasi, 
 V. Barone, B. Mennucci, M. Cossi, G. Scalmani, N. Rega, 
 G. A. Petersson, H. Nakatsuji, M. Hada, M. Ehara, K. Toyota, 
 R. Fukuda, J. Hasegawa, M. Ishida, T. Nakajima, Y. Honda, O. Kitao, 
 H. Nakai, M. Klene, X. Li, J. E. Knox, H. P. Hratchian, J. B. Cross, 
 V. Bakken, C. Adamo, J. Jaramillo, R. Gomperts, R. E. Stratmann, 
 O. Yazyev, A. J. Austin, R. Cammi, C. Pomelli, J. W. Ochterski, 
 P. Y. Ayala, K. Morokuma, G. A. Voth, P. Salvador, J. J. Dannenberg, 
 V. G. Zakrzewski, S. Dapprich, A. D. Daniels, M. C. Strain, 
 O. Farkas, D. K. Malick, A. D. Rabuck, K. Raghavachari, 
 J. B. Foresman, J. V. Ortiz, Q. Cui, A. G. Baboul, S. Clifford, 
 J. Cioslowski, B. B. Stefanov, G. Liu, A. Liashenko, P. Piskorz, 
 I. Komaromi, R. L. Martin, D. J. Fox, T. Keith, M. A. Al-Laham, 
 C. Y. Peng, A. Nanayakkara, M. Challacombe, P. M. W. Gill, 
 B. Johnson, W. Chen, M. W. Wong, C. Gonzalez, and J. A. Pople, 
 Gaussian, Inc., Wallingford CT, 2004.
 
 ******************************************
 Gaussian 03:  EM64T-G03RevE.01 11-Sep-2007
                12-Jun-2015 
 ******************************************
 %nproc=2
 Will use up to    2 processors via shared memory.
 Default route:  MP2=Direct MaxDisk=2000MB
 ----------------------------------------------------
 # b3lyp/6-31+G(d,p) int=ultrafine pop=(ReadRadii,MK)
 ----------------------------------------------------

 Warning!  SCF SP cutoffs with diffuse functions may be unreliable.
 Consider SCF=Tight

 1/38=1/1;
 2/17=6,18=5,40=1/2;
 3/5=1,6=6,7=111,11=2,16=1,25=1,30=1,74=-5,75=5/1,2,3;
 4//1;
 5/5=2,32=1,38=5/2;
 6/7=2,8=2,9=2,10=2,15=8,20=101,28=1/1,2;
 99/5=1,9=1/99;
 --------------------------------------
 mol_17.27.16.pdbc_plusQ.z58483.zip.xyz
 --------------------------------------
 Symbolic Z-matrix:
 Charge =  1 Multiplicity = 1
 O                    -1.28627  -1.86012   0.7833 
 O                    -1.28712  -1.86034  -0.78278 
 Ca                    0.75322  -2.2171   -0.00077 
 P                     3.08634   0.00002   0.00152 
 O                     1.47569   0.00001  -0.00156 
 Ca                    0.75319   2.21711  -0.00077 
 O                    -1.28629   1.86011   0.7833 
 O                    -1.28714   1.86033  -0.78278 
 Ca                   -2.35272  -0.00001   0.00061 
 
                          Input orientation:                          
 ---------------------------------------------------------------------
 Center     Atomic     Atomic              Coordinates (Angstroms)
 Number     Number      Type              X           Y           Z
 ---------------------------------------------------------------------
    1          8             0       -1.286270   -1.860120    0.783300
    2          8             0       -1.287120   -1.860340   -0.782780
    3         20             0        0.753220   -2.217100   -0.000770
    4         15             0        3.086340    0.000020    0.001520
    5          8             0        1.475690    0.000010   -0.001560
    6         20             0        0.753190    2.217110   -0.000770
    7          8             0       -1.286290    1.860110    0.783300
    8          8             0       -1.287140    1.860330   -0.782780
    9         20             0       -2.352720   -0.000010    0.000610
 ---------------------------------------------------------------------
                    Distance matrix (angstroms):
                    1          2          3          4          5
     1  O    0.000000
     2  O    1.566080   0.000000
     3  Ca   2.213983   2.214002   0.000000
     4  P    4.815705   4.816972   3.218552   0.000000
     5  O    3.421186   3.421159   2.331853   1.610653   0.000000
     6  Ca   4.625794   4.626014   4.434210   3.218553   2.331853
     7  O    3.720230   4.036627   4.625798   4.815704   3.421186
     8  O    4.036627   3.720670   4.626018   4.816971   3.421158
     9  Ca   2.282527   2.282549   3.816065   5.439060   3.828411
                    6          7          8          9
     6  Ca   0.000000
     7  O    2.213977   0.000000
     8  O    2.213996   1.566080   0.000000
     9  Ca   3.816058   2.282526   2.282548   0.000000
 Stoichiometry    Ca3O5P(1+)
 Framework group  C1[X(Ca3O5P)]
 Deg. of freedom    21
 Full point group                 C1
 Largest Abelian subgroup         C1      NOp   1
 Largest concise Abelian subgroup C1      NOp   1
                         Standard orientation:                         
 ---------------------------------------------------------------------
 Center     Atomic     Atomic              Coordinates (Angstroms)
 Number     Number      Type              X           Y           Z
 ---------------------------------------------------------------------
    1          8             0        1.286266    1.860124    0.783300
    2          8             0        1.287116    1.860344   -0.782780
    3         20             0       -0.753224    2.217101   -0.000770
    4         15             0       -3.086341   -0.000022    0.001520
    5          8             0       -1.475691   -0.000010   -0.001560
    6         20             0       -0.753188   -2.217109   -0.000770
    7          8             0        1.286291   -1.860106    0.783300
    8          8             0        1.287141   -1.860326   -0.782780
    9         20             0        2.352719    0.000015    0.000610
 ---------------------------------------------------------------------
 Rotational constants (GHZ):      0.7733378      0.6815320      0.3838578
 Standard basis: 6-31+G(d,p) (6D, 7F)
 There are   199 symmetry adapted basis functions of A   symmetry.
 Integral buffers will be    131072 words long.
 Raffenetti 2 integral format.
 Two-electron integral symmetry is turned on.
   199 basis functions,   456 primitive gaussians,   199 cartesian basis functions
    57 alpha electrons       57 beta electrons
       nuclear repulsion energy       965.8003034802 Hartrees.
 NAtoms=    9 NActive=    9 NUniq=    9 SFac= 7.50D-01 NAtFMM=   80 NAOKFM=F Big=F
 One-electron integrals computed using PRISM.
 NBasis=   199 RedAO= T  NBF=   199
 NBsUse=   199 1.00D-06 NBFU=   199
 Harris functional with IExCor=  402 diagonalized for initial guess.
 ExpMin= 7.10D-03 ExpMax= 3.53D+04 ExpMxC= 5.30D+03 IAcc=3 IRadAn=         5 AccDes= 0.00D+00
 HarFok:  IExCor= 402 AccDes= 0.00D+00 IRadAn=         5 IDoV=1
 ScaDFX=  1.000000  1.000000  1.000000  1.000000
 Initial guess orbital symmetries:
       Occupied  (A) (A) (A) (A) (A) (A) (A) (A) (A) (A) (A) (A)
                 (A) (A) (A) (A) (A) (A) (A) (A) (A) (A) (A) (A)
                 (A) (A) (A) (A) (A) (A) (A) (A) (A) (A) (A) (A)
                 (A) (A) (A) (A) (A) (A) (A) (A) (A) (A) (A) (A)
                 (A) (A) (A) (A) (A) (A) (A) (A) (A)
       Virtual   (A) (A) (A) (A) (A) (A) (A) (A) (A) (A) (A) (A)
                 (A) (A) (A) (A) (A) (A) (A) (A) (A) (A) (A) (A)
                 (A) (A) (A) (A) (A) (A) (A) (A) (A) (A) (A) (A)
                 (A) (A) (A) (A) (A) (A) (A) (A) (A) (A) (A) (A)
                 (A) (A) (A) (A) (A) (A) (A) (A) (A) (A) (A) (A)
                 (A) (A) (A) (A) (A) (A) (A) (A) (A) (A) (A) (A)
                 (A) (A) (A) (A) (A) (A) (A) (A) (A) (A) (A) (A)
                 (A) (A) (A) (A) (A) (A) (A) (A) (A) (A) (A) (A)
                 (A) (A) (A) (A) (A) (A) (A) (A) (A) (A) (A) (A)
                 (A) (A) (A) (A) (A) (A) (A) (A) (A) (A) (A) (A)
                 (A) (A) (A) (A) (A) (A) (A) (A) (A) (A) (A) (A)
                 (A) (A) (A) (A) (A) (A) (A) (A) (A) (A)
 The electronic state of the initial guess is 1-A.
 Requested convergence on RMS density matrix=1.00D-04 within 128 cycles.
 Requested convergence on MAX density matrix=1.00D-02.
 Requested convergence on             energy=1.00D-02.
 No special actions if energy rises.
 EnCoef did     8 forward-backward iterations
 EnCoef did    12 forward-backward iterations
 EnCoef did    11 forward-backward iterations
 EnCoef did     1 forward-backward iterations
 SCF Done:  E(RB+HF-LYP) =  -2750.02740999     A.U. after   12 cycles
             Convg  =    0.3114D-04             -V/T =  2.0029
             S**2   =   0.0000

 **********************************************************************

            Population analysis using the SCF density.

 **********************************************************************

 Orbital symmetries:
       Occupied  (A) (A) (A) (A) (A) (A) (A) (A) (A) (A) (A) (A)
                 (A) (A) (A) (A) (A) (A) (A) (A) (A) (A) (A) (A)
                 (A) (A) (A) (A) (A) (A) (A) (A) (A) (A) (A) (A)
                 (A) (A) (A) (A) (A) (A) (A) (A) (A) (A) (A) (A)
                 (A) (A) (A) (A) (A) (A) (A) (A) (A)
       Virtual   (A) (A) (A) (A) (A) (A) (A) (A) (A) (A) (A) (A)
                 (A) (A) (A) (A) (A) (A) (A) (A) (A) (A) (A) (A)
                 (A) (A) (A) (A) (A) (A) (A) (A) (A) (A) (A) (A)
                 (A) (A) (A) (A) (A) (A) (A) (A) (A) (A) (A) (A)
                 (A) (A) (A) (A) (A) (A) (A) (A) (A) (A) (A) (A)
                 (A) (A) (A) (A) (A) (A) (A) (A) (A) (A) (A) (A)
                 (A) (A) (A) (A) (A) (A) (A) (A) (A) (A) (A) (A)
                 (A) (A) (A) (A) (A) (A) (A) (A) (A) (A) (A) (A)
                 (A) (A) (A) (A) (A) (A) (A) (A) (A) (A) (A) (A)
                 (A) (A) (A) (A) (A) (A) (A) (A) (A) (A) (A) (A)
                 (A) (A) (A) (A) (A) (A) (A) (A) (A) (A) (A) (A)
                 (A) (A) (A) (A) (A) (A) (A) (A) (A) (A)
 The electronic state is 1-A.
 Alpha  occ. eigenvalues -- -145.51636-145.51632-145.45533 -77.27385 -19.31757
 Alpha  occ. eigenvalues --  -19.22780 -19.22765 -19.22711 -19.22696 -15.58465
 Alpha  occ. eigenvalues --  -15.58462 -15.52414 -12.71683 -12.71681 -12.71664
 Alpha  occ. eigenvalues --  -12.71662 -12.71577 -12.71575 -12.65662 -12.65605
 Alpha  occ. eigenvalues --  -12.65493  -6.73670  -4.90402  -4.89904  -4.88977
 Alpha  occ. eigenvalues --   -1.95616  -1.95612  -1.89732  -1.23685  -1.23435
 Alpha  occ. eigenvalues --   -1.23392  -1.23185  -1.23179  -1.23045  -1.17888
 Alpha  occ. eigenvalues --   -1.17697  -1.17259  -1.13141  -1.05815  -1.04915
 Alpha  occ. eigenvalues --   -0.86500  -0.86354  -0.69427  -0.54677  -0.52486
 Alpha  occ. eigenvalues --   -0.51569  -0.46288  -0.46027  -0.45683  -0.44403
 Alpha  occ. eigenvalues --   -0.43537  -0.42942  -0.34371  -0.33880  -0.32492
 Alpha  occ. eigenvalues --   -0.31552  -0.30580
 Alpha virt. eigenvalues --   -0.26474  -0.20391  -0.18090  -0.14017  -0.13069
 Alpha virt. eigenvalues --   -0.12676  -0.11931  -0.10054  -0.09072  -0.08517
 Alpha virt. eigenvalues --   -0.07717  -0.07192  -0.06675  -0.05951  -0.05831
 Alpha virt. eigenvalues --   -0.05697  -0.04766  -0.04741  -0.04676  -0.04318
 Alpha virt. eigenvalues --   -0.04317  -0.03706  -0.03697  -0.03571  -0.03541
 Alpha virt. eigenvalues --   -0.03022  -0.02374  -0.02303  -0.02297  -0.01786
 Alpha virt. eigenvalues --   -0.00231   0.00905   0.02019   0.02220   0.02973
 Alpha virt. eigenvalues --    0.04023   0.04308   0.04589   0.05524   0.06119
 Alpha virt. eigenvalues --    0.07118   0.07124   0.08522   0.08599   0.08660
 Alpha virt. eigenvalues --    0.09272   0.10242   0.10789   0.11193   0.12093
 Alpha virt. eigenvalues --    0.12857   0.12975   0.13495   0.13978   0.15650
 Alpha virt. eigenvalues --    0.16378   0.17496   0.18691   0.19899   0.21597
 Alpha virt. eigenvalues --    0.21738   0.21812   0.22829   0.23960   0.26472
 Alpha virt. eigenvalues --    0.28889   0.30411   0.31008   0.31702   0.33736
 Alpha virt. eigenvalues --    0.35166   0.35201   0.36591   0.36638   0.36935
 Alpha virt. eigenvalues --    0.38685   0.40755   0.42996   0.44220   0.47740
 Alpha virt. eigenvalues --    0.53514   0.54077   0.55807   0.57448   0.59507
 Alpha virt. eigenvalues --    0.63429   0.67059   0.72763   0.87760   0.89542
 Alpha virt. eigenvalues --    1.03206   1.04359   1.10520   1.10811   1.11161
 Alpha virt. eigenvalues --    1.12374   1.17319   1.18486   1.19040   1.20046
 Alpha virt. eigenvalues --    1.20744   1.23042   1.23537   1.24534   1.27931
 Alpha virt. eigenvalues --    1.40139   1.41948   1.52636   1.52716   1.52948
 Alpha virt. eigenvalues --    1.53540   1.54151   1.55292   1.65267   1.67017
 Alpha virt. eigenvalues --    1.71713   1.75274   1.78074   1.78435   1.79116
 Alpha virt. eigenvalues --    1.82386   1.83907   1.85476   1.85489   1.88788
 Alpha virt. eigenvalues --    1.88956   1.89161   1.93681   2.02755   2.19097
 Alpha virt. eigenvalues --    2.20483   2.20929   2.21588   2.47260   3.03807
 Alpha virt. eigenvalues --    3.04407   3.35376   3.87073   4.05592   4.12501
 Alpha virt. eigenvalues --    4.13044   4.13638
          Condensed to atoms (all electrons):
              1          2          3          4          5          6
     1  O    8.500188  -0.042920   0.115661  -0.003900   0.002244   0.003430
     2  O   -0.042920   8.500356   0.115730  -0.003894   0.002285   0.003483
     3  Ca   0.115661   0.115730  18.247900   0.038115   0.022194  -0.000094
     4  P   -0.003900  -0.003894   0.038115  15.194817  -0.224438   0.038117
     5  O    0.002244   0.002285   0.022194  -0.224438   8.883956   0.022178
     6  Ca   0.003430   0.003483  -0.000094   0.038117   0.022178  18.248038
     7  O    0.012151  -0.009494   0.003430  -0.003913   0.002258   0.115745
     8  O   -0.009494   0.012103   0.003484  -0.003907   0.002299   0.115813
     9  Ca   0.080895   0.080847  -0.024900   0.010701   0.004237  -0.024893
              7          8          9
     1  O    0.012151  -0.009494   0.080895
     2  O   -0.009494   0.012103   0.080847
     3  Ca   0.003430   0.003484  -0.024900
     4  P   -0.003913  -0.003907   0.010701
     5  O    0.002258   0.002299   0.004237
     6  Ca   0.115745   0.115813  -0.024893
     7  O    8.499963  -0.043294   0.080950
     8  O   -0.043294   8.500145   0.080901
     9  Ca   0.080950   0.080901  18.276416
 Mulliken atomic charges:
              1
     1  O   -0.658256
     2  O   -0.658496
     3  Ca   1.478480
     4  P   -0.041697
     5  O   -0.717213
     6  Ca   1.478182
     7  O   -0.657797
     8  O   -0.658050
     9  Ca   1.434846
 Sum of Mulliken charges=   1.00000
 Atomic charges with hydrogens summed into heavy atoms:
              1
     1  O   -0.658256
     2  O   -0.658496
     3  Ca   1.478480
     4  P   -0.041697
     5  O   -0.717213
     6  Ca   1.478182
     7  O   -0.657797
     8  O   -0.658050
     9  Ca   1.434846
 Sum of Mulliken charges=   1.00000
 Electronic spatial extent (au):  <R**2>=  2544.0824
 Charge=     1.0000 electrons
 Dipole moment (field-independent basis, Debye):
    X=    -5.1289    Y=    -0.0049    Z=    -0.0052  Tot=     5.1289
 Quadrupole moment (field-independent basis, Debye-Ang):
   XX=   -55.2612   YY=   -49.6485   ZZ=   -81.2469
   XY=    -0.0101   XZ=     0.0269   YZ=    -0.0001
 Traceless Quadrupole moment (field-independent basis, Debye-Ang):
   XX=     6.7910   YY=    12.4036   ZZ=   -19.1947
   XY=    -0.0101   XZ=     0.0269   YZ=    -0.0001
 Octapole moment (field-independent basis, Debye-Ang**2):
  XXX=   126.4184  YYY=     0.0200  ZZZ=    -0.0302  XYY=   -98.9626
  XXY=     0.0003  XXZ=    -0.0009  XZZ=    -8.1704  YZZ=     0.0133
  YYZ=    -0.0879  XYZ=    -0.0001
 Hexadecapole moment (field-independent basis, Debye-Ang**3):
 XXXX= -1373.1404 YYYY=  -947.1780 ZZZZ=  -175.4159 XXXY=     0.0229
 XXXZ=     0.2851 YYYX=    -0.0206 YYYZ=    -0.0002 ZZZX=     0.0625
 ZZZY=    -0.0001 XXYY=  -550.9187 XXZZ=  -287.9803 YYZZ=  -258.4083
 XXYZ=    -0.0001 YYXZ=     0.1352 ZZXY=     0.0097
 N-N= 9.658003034802D+02 E-N=-8.432341295938D+03  KE= 2.742127085868D+03
 Merz-Kollman atomic radii used.
 Read replacement radii for each type of atom:
 Rad(20) =   1.188000000000D+00
 Atom Element Radius
    1     8    1.40
    2     8    1.40
    3    20    1.19
    4    15    1.80
    5     8    1.40
    6    20    1.19
    7     8    1.40
    8     8    1.40
    9    20    1.19

 **********************************************************************

            Electrostatic Properties Using The SCF Density

 **********************************************************************

       Atomic Center    1 is at   1.286266  1.860124  0.783300
       Atomic Center    2 is at   1.287116  1.860344 -0.782780
       Atomic Center    3 is at  -0.753224  2.217101 -0.000770
       Atomic Center    4 is at  -3.086341 -0.000022  0.001520
       Atomic Center    5 is at  -1.475691 -0.000010 -0.001560
       Atomic Center    6 is at  -0.753188 -2.217109 -0.000770
       Atomic Center    7 is at   1.286291 -1.860106  0.783300
       Atomic Center    8 is at   1.287141 -1.860326 -0.782780
       Atomic Center    9 is at   2.352719  0.000015  0.000610
     909 points will be used for fitting atomic charges
 Fitting point charges to eletrostatic potential
 Charges from ESP fit, RMS=   0.00842 RRMS=   0.05761:
 Charge=   1.00000 Dipole=    -5.3039    -0.0051    -0.0036 Tot=     5.3039
              1
     1  O   -0.778216
     2  O   -0.778490
     3  Ca   1.637973
     4  P   -0.074193
     5  O   -0.782490
     6  Ca   1.637809
     7  O   -0.777830
     8  O   -0.778117
     9  Ca   1.693555
 -----------------------------------------------------------------

              Electrostatic Properties (Atomic Units)

 -----------------------------------------------------------------
    Center     Electric         -------- Electric Field --------
               Potential          X             Y             Z
 -----------------------------------------------------------------
    1 Atom    -22.240928
    2 Atom    -22.241366
    3 Atom    -80.023869
    4 Atom    -53.949006
    5 Atom    -22.147851
    6 Atom    -80.023817
    7 Atom    -22.239464
    8 Atom    -22.239917
    9 Atom    -80.083781
 -----------------------------------------------------------------
 1\1\GINC-N026\SP\RB3LYP\6-31+G(d,p)\Ca3O5P1(1+)\TIMN\12-Jun-2015\0\\# 
 b3lyp/6-31+G(d,p) int=ultrafine pop=(ReadRadii,MK)\\mol_17.27.16.pdbc_
 plusQ.z58483.zip.xyz\\1,1\O,0,-1.28627,-1.86012,0.7833\O,0,-1.28712,-1
 .86034,-0.78278\Ca,0,0.75322,-2.2171,-0.00077\P,0,3.08634,0.00002,0.00
 152\O,0,1.47569,0.00001,-0.00156\Ca,0,0.75319,2.21711,-0.00077\O,0,-1.
 28629,1.86011,0.7833\O,0,-1.28714,1.86033,-0.78278\Ca,0,-2.35272,-0.00
 001,0.00061\\Version=EM64T-G03RevE.01\State=1-A\HF=-2750.02741\RMSD=3.
 114e-05\Thermal=0.\Dipole=2.0178584,0.0019317,-0.0020465\PG=C01 [X(Ca3
 O5P1)]\\@


 I MET A TRAVELLER FROM AN ANTIQUE LAND
 WHO SAID... TWO VAST AND TRUNKLESS LEGS OF STONE
 STAND IN THE DESERT..... NEAR THEM,  ON THE SAND,
 HALF SUNK,  A SHATTERED VISAGE LIES,  WHOSE FROWN,
 AND WRINKLED LIP,  AND SNEER OF COLD COMMAND
 TELL THAT ITS SCULPTOR WELL THOSE PASSIONS READ
 WHICH YET SURVIVE,  STAMPED ON THESE LIFELESS THINGS
 THE HAND THAT MOCKED THEM,  AND THE HEART THAT FED-
 AND ON THE PEDESTAL THESE WORDS APPEAR 
 MY NAME IS OZYMANDIAS, KING OF KINGS--   
 LOOK ON MY WORKS YE MIGHTY AND DESPAIR. 
 NOTHING BESIDE REMAINS,  ROUND THE DECAY 
 OF THAT COLOSSAL WRECK,  BOUNDLESS AND BARE
 THE LONE AND LEVEL SANDS STRETCH FAR AWAY.
                                    SHELLEY
 Job cpu time:  0 days  0 hours  2 minutes 54.0 seconds.
 File lengths (MBytes):  RWF=     36 Int=      0 D2E=      0 Chk=     11 Scr=      1
 Normal termination of Gaussian 03 at Fri Jun 12 18:03:37 2015.
