 Entering Gaussian System, Link 0=/home/timn/tmp/g03.e01/g03
 Input=mol_17.25.7.pdbcccc_plusQ.z58365.zip.xyz.gjf
 Output=mol_17.25.7.pdbcccc_plusQ.z58365.zip.xyz.out
 Initial command:
 /home/timn/tmp/g03.e01/l1.exe /home/timn/tmp/g03.e01/Gau-20257.inp -scrdir=/home/timn/tmp/g03.e01/
 Default is to use a total of   2 processors:
                                2 via shared-memory
                                1 via Linda
 Entering Link 1 = /home/timn/tmp/g03.e01/l1.exe PID=     20258.
  
 Copyright (c) 1988,1990,1992,1993,1995,1998,2003,2004,2007, Gaussian, Inc.
                  All Rights Reserved.
  
 This is the Gaussian(R) 03 program.  It is based on the
 the Gaussian(R) 98 system (copyright 1998, Gaussian, Inc.),
 the Gaussian(R) 94 system (copyright 1995, Gaussian, Inc.),
 the Gaussian 92(TM) system (copyright 1992, Gaussian, Inc.),
 the Gaussian 90(TM) system (copyright 1990, Gaussian, Inc.),
 the Gaussian 88(TM) system (copyright 1988, Gaussian, Inc.),
 the Gaussian 86(TM) system (copyright 1986, Carnegie Mellon
 University), and the Gaussian 82(TM) system (copyright 1983,
 Carnegie Mellon University). Gaussian is a federally registered
 trademark of Gaussian, Inc.
  
 This software contains proprietary and confidential information,
 including trade secrets, belonging to Gaussian, Inc.
  
 This software is provided under written license and may be
 used, copied, transmitted, or stored only in accord with that
 written license.
  
 The following legend is applicable only to US Government
 contracts under FAR:
  
                    RESTRICTED RIGHTS LEGEND
  
 Use, reproduction and disclosure by the US Government is
 subject to restrictions as set forth in subparagraphs (a)
 and (c) of the Commercial Computer Software - Restricted
 Rights clause in FAR 52.227-19.
  
 Gaussian, Inc.
 340 Quinnipiac St., Bldg. 40, Wallingford CT 06492
  
  
 ---------------------------------------------------------------
 Warning -- This program may not be used in any manner that
 competes with the business of Gaussian, Inc. or will provide
 assistance to any competitor of Gaussian, Inc.  The licensee
 of this program is prohibited from giving any competitor of
 Gaussian, Inc. access to this program.  By using this program,
 the user acknowledges that Gaussian, Inc. is engaged in the
 business of creating and licensing software in the field of
 computational chemistry and represents and warrants to the
 licensee that it is not a competitor of Gaussian, Inc. and that
 it will not use this program in any manner prohibited above.
 ---------------------------------------------------------------
  

 Cite this work as:
 Gaussian 03, Revision E.01,
 M. J. Frisch, G. W. Trucks, H. B. Schlegel, G. E. Scuseria, 
 M. A. Robb, J. R. Cheeseman, J. A. Montgomery, Jr., T. Vreven, 
 K. N. Kudin, J. C. Burant, J. M. Millam, S. S. Iyengar, J. Tomasi, 
 V. Barone, B. Mennucci, M. Cossi, G. Scalmani, N. Rega, 
 G. A. Petersson, H. Nakatsuji, M. Hada, M. Ehara, K. Toyota, 
 R. Fukuda, J. Hasegawa, M. Ishida, T. Nakajima, Y. Honda, O. Kitao, 
 H. Nakai, M. Klene, X. Li, J. E. Knox, H. P. Hratchian, J. B. Cross, 
 V. Bakken, C. Adamo, J. Jaramillo, R. Gomperts, R. E. Stratmann, 
 O. Yazyev, A. J. Austin, R. Cammi, C. Pomelli, J. W. Ochterski, 
 P. Y. Ayala, K. Morokuma, G. A. Voth, P. Salvador, J. J. Dannenberg, 
 V. G. Zakrzewski, S. Dapprich, A. D. Daniels, M. C. Strain, 
 O. Farkas, D. K. Malick, A. D. Rabuck, K. Raghavachari, 
 J. B. Foresman, J. V. Ortiz, Q. Cui, A. G. Baboul, S. Clifford, 
 J. Cioslowski, B. B. Stefanov, G. Liu, A. Liashenko, P. Piskorz, 
 I. Komaromi, R. L. Martin, D. J. Fox, T. Keith, M. A. Al-Laham, 
 C. Y. Peng, A. Nanayakkara, M. Challacombe, P. M. W. Gill, 
 B. Johnson, W. Chen, M. W. Wong, C. Gonzalez, and J. A. Pople, 
 Gaussian, Inc., Wallingford CT, 2004.
 
 ******************************************
 Gaussian 03:  EM64T-G03RevE.01 11-Sep-2007
                12-Jun-2015 
 ******************************************
 %nproc=2
 Will use up to    2 processors via shared memory.
 Default route:  MP2=Direct MaxDisk=2000MB
 ----------------------------------------------------
 # b3lyp/6-31+G(d,p) int=ultrafine pop=(ReadRadii,MK)
 ----------------------------------------------------

 Warning!  SCF SP cutoffs with diffuse functions may be unreliable.
 Consider SCF=Tight

 1/38=1/1;
 2/17=6,18=5,40=1/2;
 3/5=1,6=6,7=111,11=2,16=1,25=1,30=1,74=-5,75=5/1,2,3;
 4//1;
 5/5=2,32=1,38=5/2;
 6/7=2,8=2,9=2,10=2,15=8,20=101,28=1/1,2;
 99/5=1,9=1/99;
 ----------------------------------------
 mol_17.25.7.pdbcccc_plusQ.z58365.zip.xyz
 ----------------------------------------
 Symbolic Z-matrix:
 Charge =  1 Multiplicity = 1
 O                     1.41318  -0.76958  -0.00128 
 O                     2.82858   0.90251  -1.25814 
 O                     2.82817   0.89889   1.26082 
 P                     1.86576   0.91952   0.0012 
 Ca                    3.78447  -0.81719  -0.00098 
 Ca                   -0.7503   -0.21125  -0.00041 
 O                    -2.91878  -0.20121   0.78781 
 O                    -2.91874  -0.19695  -0.78865 
 Ca                   -4.92646   0.08534   0.00027 
 
                          Input orientation:                          
 ---------------------------------------------------------------------
 Center     Atomic     Atomic              Coordinates (Angstroms)
 Number     Number      Type              X           Y           Z
 ---------------------------------------------------------------------
    1          8             0        1.413180   -0.769580   -0.001280
    2          8             0        2.828580    0.902510   -1.258140
    3          8             0        2.828170    0.898890    1.260820
    4         15             0        1.865760    0.919520    0.001200
    5         20             0        3.784470   -0.817190   -0.000980
    6         20             0       -0.750300   -0.211250   -0.000410
    7          8             0       -2.918780   -0.201210    0.787810
    8          8             0       -2.918740   -0.196950   -0.788650
    9         20             0       -4.926460    0.085340    0.000270
 ---------------------------------------------------------------------
                    Distance matrix (angstroms):
                    1          2          3          4          5
     1  O    0.000000
     2  O    2.525656   0.000000
     3  O    2.525646   2.518963   0.000000
     4  P    1.748683   1.585323   1.585339   0.000000
     5  Ca   2.371768   2.334854   2.334862   2.587975   0.000000
     6  Ca   2.234363   3.953572   3.953297   2.849985   4.575074
     7  O    4.439773   6.199698   5.870383   4.976607   6.777550
     8  O    4.439976   5.870342   6.199046   4.976124   6.777769
     9  Ca   6.397025   7.898861   7.898426   6.843253   8.757560
                    6          7          8          9
     6  Ca   0.000000
     7  O    2.307314   0.000000
     8  O    2.307306   1.576466   0.000000
     9  Ca   4.186679   2.175571   2.175551   0.000000
 Stoichiometry    Ca3O5P(1+)
 Framework group  C1[X(Ca3O5P)]
 Deg. of freedom    21
 Full point group                 C1
 Largest Abelian subgroup         C1      NOp   1
 Largest concise Abelian subgroup C1      NOp   1
                         Standard orientation:                         
 ---------------------------------------------------------------------
 Center     Atomic     Atomic              Coordinates (Angstroms)
 Number     Number      Type              X           Y           Z
 ---------------------------------------------------------------------
    1          8             0        1.413181   -0.769581   -0.001281
    2          8             0        2.828581    0.902510   -1.258141
    3          8             0        2.828171    0.898890    1.260819
    4         15             0        1.865761    0.919520    0.001199
    5         20             0        3.784471   -0.817190   -0.000981
    6         20             0       -0.750299   -0.211251   -0.000411
    7          8             0       -2.918779   -0.201211    0.787809
    8          8             0       -2.918739   -0.196951   -0.788651
    9         20             0       -4.926459    0.085339    0.000269
 ---------------------------------------------------------------------
 Rotational constants (GHZ):      3.1146412      0.2193914      0.2174078
 Standard basis: 6-31+G(d,p) (6D, 7F)
 There are   199 symmetry adapted basis functions of A   symmetry.
 Integral buffers will be    131072 words long.
 Raffenetti 2 integral format.
 Two-electron integral symmetry is turned on.
   199 basis functions,   456 primitive gaussians,   199 cartesian basis functions
    57 alpha electrons       57 beta electrons
       nuclear repulsion energy       902.4883446310 Hartrees.
 NAtoms=    9 NActive=    9 NUniq=    9 SFac= 7.50D-01 NAtFMM=   80 NAOKFM=F Big=F
 One-electron integrals computed using PRISM.
 NBasis=   199 RedAO= T  NBF=   199
 NBsUse=   199 1.00D-06 NBFU=   199
 Harris functional with IExCor=  402 diagonalized for initial guess.
 ExpMin= 7.10D-03 ExpMax= 3.53D+04 ExpMxC= 5.30D+03 IAcc=3 IRadAn=         5 AccDes= 0.00D+00
 HarFok:  IExCor= 402 AccDes= 0.00D+00 IRadAn=         5 IDoV=1
 ScaDFX=  1.000000  1.000000  1.000000  1.000000
 Initial guess orbital symmetries:
       Occupied  (A) (A) (A) (A) (A) (A) (A) (A) (A) (A) (A) (A)
                 (A) (A) (A) (A) (A) (A) (A) (A) (A) (A) (A) (A)
                 (A) (A) (A) (A) (A) (A) (A) (A) (A) (A) (A) (A)
                 (A) (A) (A) (A) (A) (A) (A) (A) (A) (A) (A) (A)
                 (A) (A) (A) (A) (A) (A) (A) (A) (A)
       Virtual   (A) (A) (A) (A) (A) (A) (A) (A) (A) (A) (A) (A)
                 (A) (A) (A) (A) (A) (A) (A) (A) (A) (A) (A) (A)
                 (A) (A) (A) (A) (A) (A) (A) (A) (A) (A) (A) (A)
                 (A) (A) (A) (A) (A) (A) (A) (A) (A) (A) (A) (A)
                 (A) (A) (A) (A) (A) (A) (A) (A) (A) (A) (A) (A)
                 (A) (A) (A) (A) (A) (A) (A) (A) (A) (A) (A) (A)
                 (A) (A) (A) (A) (A) (A) (A) (A) (A) (A) (A) (A)
                 (A) (A) (A) (A) (A) (A) (A) (A) (A) (A) (A) (A)
                 (A) (A) (A) (A) (A) (A) (A) (A) (A) (A) (A) (A)
                 (A) (A) (A) (A) (A) (A) (A) (A) (A) (A) (A) (A)
                 (A) (A) (A) (A) (A) (A) (A) (A) (A) (A) (A) (A)
                 (A) (A) (A) (A) (A) (A) (A) (A) (A) (A)
 The electronic state of the initial guess is 1-A.
 Requested convergence on RMS density matrix=1.00D-04 within 128 cycles.
 Requested convergence on MAX density matrix=1.00D-02.
 Requested convergence on             energy=1.00D-02.
 No special actions if energy rises.
 EnCoef did   100 forward-backward iterations
 EnCoef did     2 forward-backward iterations
 SCF Done:  E(RB+HF-LYP) =  -2750.13047315     A.U. after   10 cycles
             Convg  =    0.6953D-04             -V/T =  2.0029
             S**2   =   0.0000

 **********************************************************************

            Population analysis using the SCF density.

 **********************************************************************

 Orbital symmetries:
       Occupied  (A) (A) (A) (A) (A) (A) (A) (A) (A) (A) (A) (A)
                 (A) (A) (A) (A) (A) (A) (A) (A) (A) (A) (A) (A)
                 (A) (A) (A) (A) (A) (A) (A) (A) (A) (A) (A) (A)
                 (A) (A) (A) (A) (A) (A) (A) (A) (A) (A) (A) (A)
                 (A) (A) (A) (A) (A) (A) (A) (A) (A)
       Virtual   (A) (A) (A) (A) (A) (A) (A) (A) (A) (A) (A) (A)
                 (A) (A) (A) (A) (A) (A) (A) (A) (A) (A) (A) (A)
                 (A) (A) (A) (A) (A) (A) (A) (A) (A) (A) (A) (A)
                 (A) (A) (A) (A) (A) (A) (A) (A) (A) (A) (A) (A)
                 (A) (A) (A) (A) (A) (A) (A) (A) (A) (A) (A) (A)
                 (A) (A) (A) (A) (A) (A) (A) (A) (A) (A) (A) (A)
                 (A) (A) (A) (A) (A) (A) (A) (A) (A) (A) (A) (A)
                 (A) (A) (A) (A) (A) (A) (A) (A) (A) (A) (A) (A)
                 (A) (A) (A) (A) (A) (A) (A) (A) (A) (A) (A) (A)
                 (A) (A) (A) (A) (A) (A) (A) (A) (A) (A) (A) (A)
                 (A) (A) (A) (A) (A) (A) (A) (A) (A) (A) (A) (A)
                 (A) (A) (A) (A) (A) (A) (A) (A) (A) (A)
 The electronic state is 1-A.
 Alpha  occ. eigenvalues -- -145.58854-145.48144-145.45252 -77.19391 -19.26244
 Alpha  occ. eigenvalues --  -19.26239 -19.16219 -19.14226 -19.14225 -15.65635
 Alpha  occ. eigenvalues --  -15.54925 -15.52170 -12.78883 -12.78819 -12.78746
 Alpha  occ. eigenvalues --  -12.68107 -12.68100 -12.68096 -12.65423 -12.65406
 Alpha  occ. eigenvalues --  -12.65197  -6.64760  -4.81179  -4.80991  -4.80738
 Alpha  occ. eigenvalues --   -2.02522  -1.91959  -1.89518  -1.30094  -1.30018
 Alpha  occ. eigenvalues --   -1.29768  -1.19987  -1.19182  -1.19165  -1.17624
 Alpha  occ. eigenvalues --   -1.17310  -1.17288  -1.08509  -1.01694  -0.94525
 Alpha  occ. eigenvalues --   -0.94173  -0.90129  -0.55730  -0.49548  -0.48843
 Alpha  occ. eigenvalues --   -0.46694  -0.43957  -0.43362  -0.42546  -0.38444
 Alpha  occ. eigenvalues --   -0.36585  -0.36329  -0.34305  -0.32343  -0.31443
 Alpha  occ. eigenvalues --   -0.28397  -0.27236
 Alpha virt. eigenvalues --   -0.25497  -0.16509  -0.16151  -0.15553  -0.13422
 Alpha virt. eigenvalues --   -0.11580  -0.11065  -0.08335  -0.08068  -0.08046
 Alpha virt. eigenvalues --   -0.07214  -0.06394  -0.05584  -0.05312  -0.05154
 Alpha virt. eigenvalues --   -0.04953  -0.04260  -0.03398  -0.03197  -0.03035
 Alpha virt. eigenvalues --   -0.02815  -0.02587  -0.02072  -0.01619  -0.01303
 Alpha virt. eigenvalues --   -0.01041  -0.00567   0.00125   0.00515   0.00814
 Alpha virt. eigenvalues --    0.01895   0.01908   0.02047   0.03426   0.04216
 Alpha virt. eigenvalues --    0.05069   0.05978   0.06050   0.06548   0.06975
 Alpha virt. eigenvalues --    0.07612   0.08010   0.08546   0.09141   0.09620
 Alpha virt. eigenvalues --    0.10196   0.10292   0.10499   0.10823   0.13478
 Alpha virt. eigenvalues --    0.13898   0.14824   0.16156   0.17035   0.17318
 Alpha virt. eigenvalues --    0.18457   0.18834   0.19568   0.21534   0.22035
 Alpha virt. eigenvalues --    0.23517   0.24463   0.25456   0.26472   0.27601
 Alpha virt. eigenvalues --    0.27772   0.30048   0.30417   0.30581   0.31601
 Alpha virt. eigenvalues --    0.31922   0.33431   0.33727   0.38483   0.41377
 Alpha virt. eigenvalues --    0.42091   0.44458   0.45612   0.47430   0.50006
 Alpha virt. eigenvalues --    0.54750   0.55073   0.64686   0.65174   0.71298
 Alpha virt. eigenvalues --    0.76122   0.80932   0.88718   0.96814   1.02917
 Alpha virt. eigenvalues --    1.05852   1.07852   1.08512   1.11333   1.15790
 Alpha virt. eigenvalues --    1.17132   1.17432   1.19738   1.23592   1.25064
 Alpha virt. eigenvalues --    1.25135   1.28560   1.31650   1.33927   1.34790
 Alpha virt. eigenvalues --    1.42803   1.47511   1.47991   1.48972   1.53938
 Alpha virt. eigenvalues --    1.59014   1.64537   1.69881   1.74358   1.76573
 Alpha virt. eigenvalues --    1.77314   1.77684   1.81566   1.83250   1.83877
 Alpha virt. eigenvalues --    1.85327   1.86101   1.88235   1.89383   1.92465
 Alpha virt. eigenvalues --    2.02360   2.03335   2.07833   2.10553   2.15152
 Alpha virt. eigenvalues --    2.17019   2.19739   2.43212   2.70538   2.76318
 Alpha virt. eigenvalues --    2.99478   3.55042   3.88346   4.04873   4.06988
 Alpha virt. eigenvalues --    4.11664   4.24429
          Condensed to atoms (all electrons):
              1          2          3          4          5          6
     1  O    9.044829   0.037483   0.037529  -0.369136  -0.008285   0.165790
     2  O    0.037483   8.762914  -0.029346  -0.029036   0.087721   0.007542
     3  O    0.037529  -0.029346   8.763005  -0.029194   0.087689   0.007552
     4  P   -0.369136  -0.029036  -0.029194  14.504402   0.117228   0.042626
     5  Ca  -0.008285   0.087721   0.087689   0.117228  18.503484  -0.036658
     6  Ca   0.165790   0.007542   0.007552   0.042626  -0.036658  18.429030
     7  O    0.001038   0.000206  -0.000060  -0.001933  -0.005601   0.074760
     8  O    0.001036  -0.000059   0.000206  -0.001944  -0.005608   0.074781
     9  Ca   0.003652  -0.001723  -0.001713   0.025102  -0.083060  -0.087467
              7          8          9
     1  O    0.001038   0.001036   0.003652
     2  O    0.000206  -0.000059  -0.001723
     3  O   -0.000060   0.000206  -0.001713
     4  P   -0.001933  -0.001944   0.025102
     5  Ca  -0.005601  -0.005608  -0.083060
     6  Ca   0.074760   0.074781  -0.087467
     7  O    8.490632  -0.049098   0.136365
     8  O   -0.049098   8.490620   0.136376
     9  Ca   0.136365   0.136376  18.401569
 Mulliken atomic charges:
              1
     1  O   -0.913936
     2  O   -0.835700
     3  O   -0.835668
     4  P    0.741887
     5  Ca   1.343089
     6  Ca   1.322046
     7  O   -0.646309
     8  O   -0.646309
     9  Ca   1.470900
 Sum of Mulliken charges=   1.00000
 Atomic charges with hydrogens summed into heavy atoms:
              1
     1  O   -0.913936
     2  O   -0.835700
     3  O   -0.835668
     4  P    0.741887
     5  Ca   1.343089
     6  Ca   1.322046
     7  O   -0.646309
     8  O   -0.646309
     9  Ca   1.470900
 Sum of Mulliken charges=   1.00000
 Electronic spatial extent (au):  <R**2>=  4324.0577
 Charge=     1.0000 electrons
 Dipole moment (field-independent basis, Debye):
    X=   -17.6023    Y=    -6.8544    Z=    -0.0073  Tot=    18.8898
 Quadrupole moment (field-independent basis, Debye-Ang):
   XX=   100.3455   YY=   -78.4343   ZZ=   -91.6089
   XY=   -36.7044   XZ=    -0.0540   YZ=     0.0219
 Traceless Quadrupole moment (field-independent basis, Debye-Ang):
   XX=   123.5780   YY=   -55.2017   ZZ=   -68.3763
   XY=   -36.7044   XZ=    -0.0540   YZ=     0.0219
 Octapole moment (field-independent basis, Debye-Ang**2):
  XXX=  -558.5583  YYY=   -23.1473  ZZZ=    -0.0626  XYY=   -12.5849
  XXY=  -102.3549  XXZ=    -0.0853  XZZ=   -38.8326  YZZ=   -15.3752
  YYZ=     0.0119  XYZ=     0.0158
 Hexadecapole moment (field-independent basis, Debye-Ang**3):
 XXXX=  1138.6510 YYYY=  -296.2264 ZZZZ=  -289.1482 XXXY=  -630.7004
 XXXZ=    -0.9404 YYYX=   -83.9035 YYYZ=     0.0655 ZZZX=    -0.2414
 ZZZY=    -0.0140 XXYY=  -674.1916 XXZZ=  -841.8919 YYZZ=  -105.0215
 XXYZ=     0.2886 YYXZ=     0.0432 ZZXY=   -53.8910
 N-N= 9.024883446310D+02 E-N=-8.307969341669D+03  KE= 2.742142438582D+03
 Merz-Kollman atomic radii used.
 Read replacement radii for each type of atom:
 Rad(20) =   1.188000000000D+00
 Atom Element Radius
    1     8    1.40
    2     8    1.40
    3     8    1.40
    4    15    1.80
    5    20    1.19
    6    20    1.19
    7     8    1.40
    8     8    1.40
    9    20    1.19

 **********************************************************************

            Electrostatic Properties Using The SCF Density

 **********************************************************************

       Atomic Center    1 is at   1.413181 -0.769581 -0.001281
       Atomic Center    2 is at   2.828581  0.902510 -1.258141
       Atomic Center    3 is at   2.828171  0.898890  1.260819
       Atomic Center    4 is at   1.865761  0.919520  0.001199
       Atomic Center    5 is at   3.784471 -0.817190 -0.000981
       Atomic Center    6 is at  -0.750299 -0.211251 -0.000411
       Atomic Center    7 is at  -2.918779 -0.201211  0.787809
       Atomic Center    8 is at  -2.918739 -0.196951 -0.788651
       Atomic Center    9 is at  -4.926459  0.085339  0.000269
     852 points will be used for fitting atomic charges
 Fitting point charges to eletrostatic potential
 Charges from ESP fit, RMS=   0.00735 RRMS=   0.04933:
 Charge=   1.00000 Dipole=   -17.6143    -7.1068    -0.0096 Tot=    18.9939
              1
     1  O   -1.040584
     2  O   -0.654444
     3  O   -0.654619
     4  P    0.077795
     5  Ca   1.574006
     6  Ca   1.702706
     7  O   -0.832641
     8  O   -0.832184
     9  Ca   1.659965
 -----------------------------------------------------------------

              Electrostatic Properties (Atomic Units)

 -----------------------------------------------------------------
    Center     Electric         -------- Electric Field --------
               Potential          X             Y             Z
 -----------------------------------------------------------------
    1 Atom    -22.298051
    2 Atom    -22.317777
    3 Atom    -22.317785
    4 Atom    -54.013476
    5 Atom    -80.058530
    6 Atom    -80.087332
    7 Atom    -22.206810
    8 Atom    -22.206846
    9 Atom    -79.954755
 -----------------------------------------------------------------
 1\1\GINC-N022\SP\RB3LYP\6-31+G(d,p)\Ca3O5P1(1+)\TIMN\12-Jun-2015\0\\# 
 b3lyp/6-31+G(d,p) int=ultrafine pop=(ReadRadii,MK)\\mol_17.25.7.pdbccc
 c_plusQ.z58365.zip.xyz\\1,1\O,0,1.41318,-0.76958,-0.00128\O,0,2.82858,
 0.90251,-1.25814\O,0,2.82817,0.89889,1.26082\P,0,1.86576,0.91952,0.001
 2\Ca,0,3.78447,-0.81719,-0.00098\Ca,0,-0.7503,-0.21125,-0.00041\O,0,-2
 .91878,-0.20121,0.78781\O,0,-2.91874,-0.19695,-0.78865\Ca,0,-4.92646,0
 .08534,0.00027\\Version=EM64T-G03RevE.01\State=1-A\HF=-2750.1304731\RM
 SD=6.953e-05\Thermal=0.\Dipole=-6.9252842,-2.6967121,-0.0028619\PG=C01
  [X(Ca3O5P1)]\\@


 TERRY FORSTER, PORTLY ATLANTA BRAVES RELIEVER,
 ANNOUNCING THAT HE WAS GOING TO A FAT FARM:
 "A WAIST IS A TERRIBLE THING TO MIND."
 Job cpu time:  0 days  0 hours  2 minutes  7.5 seconds.
 File lengths (MBytes):  RWF=     36 Int=      0 D2E=      0 Chk=     11 Scr=      1
 Normal termination of Gaussian 03 at Fri Jun 12 17:59:17 2015.
