 Entering Gaussian System, Link 0=/home/timn/tmp/g03.e01/g03
 Input=mol_17.28.18.pdbccc_plusQ.z58540.zip.xyz.gjf
 Output=mol_17.28.18.pdbccc_plusQ.z58540.zip.xyz.out
 Initial command:
 /home/timn/tmp/g03.e01/l1.exe /home/timn/tmp/g03.e01/Gau-18853.inp -scrdir=/home/timn/tmp/g03.e01/
 Default is to use a total of   2 processors:
                                2 via shared-memory
                                1 via Linda
 Entering Link 1 = /home/timn/tmp/g03.e01/l1.exe PID=     18854.
  
 Copyright (c) 1988,1990,1992,1993,1995,1998,2003,2004,2007, Gaussian, Inc.
                  All Rights Reserved.
  
 This is the Gaussian(R) 03 program.  It is based on the
 the Gaussian(R) 98 system (copyright 1998, Gaussian, Inc.),
 the Gaussian(R) 94 system (copyright 1995, Gaussian, Inc.),
 the Gaussian 92(TM) system (copyright 1992, Gaussian, Inc.),
 the Gaussian 90(TM) system (copyright 1990, Gaussian, Inc.),
 the Gaussian 88(TM) system (copyright 1988, Gaussian, Inc.),
 the Gaussian 86(TM) system (copyright 1986, Carnegie Mellon
 University), and the Gaussian 82(TM) system (copyright 1983,
 Carnegie Mellon University). Gaussian is a federally registered
 trademark of Gaussian, Inc.
  
 This software contains proprietary and confidential information,
 including trade secrets, belonging to Gaussian, Inc.
  
 This software is provided under written license and may be
 used, copied, transmitted, or stored only in accord with that
 written license.
  
 The following legend is applicable only to US Government
 contracts under FAR:
  
                    RESTRICTED RIGHTS LEGEND
  
 Use, reproduction and disclosure by the US Government is
 subject to restrictions as set forth in subparagraphs (a)
 and (c) of the Commercial Computer Software - Restricted
 Rights clause in FAR 52.227-19.
  
 Gaussian, Inc.
 340 Quinnipiac St., Bldg. 40, Wallingford CT 06492
  
  
 ---------------------------------------------------------------
 Warning -- This program may not be used in any manner that
 competes with the business of Gaussian, Inc. or will provide
 assistance to any competitor of Gaussian, Inc.  The licensee
 of this program is prohibited from giving any competitor of
 Gaussian, Inc. access to this program.  By using this program,
 the user acknowledges that Gaussian, Inc. is engaged in the
 business of creating and licensing software in the field of
 computational chemistry and represents and warrants to the
 licensee that it is not a competitor of Gaussian, Inc. and that
 it will not use this program in any manner prohibited above.
 ---------------------------------------------------------------
  

 Cite this work as:
 Gaussian 03, Revision E.01,
 M. J. Frisch, G. W. Trucks, H. B. Schlegel, G. E. Scuseria, 
 M. A. Robb, J. R. Cheeseman, J. A. Montgomery, Jr., T. Vreven, 
 K. N. Kudin, J. C. Burant, J. M. Millam, S. S. Iyengar, J. Tomasi, 
 V. Barone, B. Mennucci, M. Cossi, G. Scalmani, N. Rega, 
 G. A. Petersson, H. Nakatsuji, M. Hada, M. Ehara, K. Toyota, 
 R. Fukuda, J. Hasegawa, M. Ishida, T. Nakajima, Y. Honda, O. Kitao, 
 H. Nakai, M. Klene, X. Li, J. E. Knox, H. P. Hratchian, J. B. Cross, 
 V. Bakken, C. Adamo, J. Jaramillo, R. Gomperts, R. E. Stratmann, 
 O. Yazyev, A. J. Austin, R. Cammi, C. Pomelli, J. W. Ochterski, 
 P. Y. Ayala, K. Morokuma, G. A. Voth, P. Salvador, J. J. Dannenberg, 
 V. G. Zakrzewski, S. Dapprich, A. D. Daniels, M. C. Strain, 
 O. Farkas, D. K. Malick, A. D. Rabuck, K. Raghavachari, 
 J. B. Foresman, J. V. Ortiz, Q. Cui, A. G. Baboul, S. Clifford, 
 J. Cioslowski, B. B. Stefanov, G. Liu, A. Liashenko, P. Piskorz, 
 I. Komaromi, R. L. Martin, D. J. Fox, T. Keith, M. A. Al-Laham, 
 C. Y. Peng, A. Nanayakkara, M. Challacombe, P. M. W. Gill, 
 B. Johnson, W. Chen, M. W. Wong, C. Gonzalez, and J. A. Pople, 
 Gaussian, Inc., Wallingford CT, 2004.
 
 ******************************************
 Gaussian 03:  EM64T-G03RevE.01 11-Sep-2007
                12-Jun-2015 
 ******************************************
 %nproc=2
 Will use up to    2 processors via shared memory.
 Default route:  MP2=Direct MaxDisk=2000MB
 ----------------------------------------------------
 # b3lyp/6-31+G(d,p) int=ultrafine pop=(ReadRadii,MK)
 ----------------------------------------------------

 Warning!  SCF SP cutoffs with diffuse functions may be unreliable.
 Consider SCF=Tight

 1/38=1/1;
 2/17=6,18=5,40=1/2;
 3/5=1,6=6,7=111,11=2,16=1,25=1,30=1,74=-5,75=5/1,2,3;
 4//1;
 5/5=2,32=1,38=5/2;
 6/7=2,8=2,9=2,10=2,15=8,20=101,28=1/1,2;
 99/5=1,9=1/99;
 ----------------------------------------
 mol_17.28.18.pdbccc_plusQ.z58540.zip.xyz
 ----------------------------------------
 Symbolic Z-matrix:
 Charge =  1 Multiplicity = 1
 O                     2.91971   0.75225  -0.49918 
 O                     2.55046   0.85305   1.02186 
 O                    -2.23479  -1.4763    0.04996 
 O                    -1.43048   0.87623  -0.48383 
 P                    -1.11693  -0.81134  -0.88368 
 Ca                    0.79666   1.50055  -0.25902 
 Ca                    2.49177  -1.27001   0.33599 
 O                     0.33085  -0.93331  -0.16785 
 Ca                   -3.30504   0.3492    0.61741 
 
                          Input orientation:                          
 ---------------------------------------------------------------------
 Center     Atomic     Atomic              Coordinates (Angstroms)
 Number     Number      Type              X           Y           Z
 ---------------------------------------------------------------------
    1          8             0        2.919710    0.752250   -0.499180
    2          8             0        2.550460    0.853050    1.021860
    3          8             0       -2.234790   -1.476300    0.049960
    4          8             0       -1.430480    0.876230   -0.483830
    5         15             0       -1.116930   -0.811340   -0.883680
    6         20             0        0.796660    1.500550   -0.259020
    7         20             0        2.491770   -1.270010    0.335990
    8          8             0        0.330850   -0.933310   -0.167850
    9         20             0       -3.305040    0.349200    0.617410
 ---------------------------------------------------------------------
                    Distance matrix (angstroms):
                    1          2          3          4          5
     1  O    0.000000
     2  O    1.568461   0.000000
     3  O    5.642416   5.410090   0.000000
     4  O    4.351983   4.256233   2.542881   0.000000
     5  P    4.345931   4.455449   1.601083   1.762409   0.000000
     6  Ca   2.263840   2.266214   4.259905   2.323891   3.065430
     7  Ca   2.229389   2.231871   4.739698   4.545602   3.836755
     8  O    3.106942   3.087582   2.631499   2.544909   1.619678
     9  Ca   6.336934   5.891038   2.190864   2.237066   2.896196
                    6          7          8          9
     6  Ca   0.000000
     7  Ca   3.302035   0.000000
     8  O    2.479711   2.244281   0.000000
     9  Ca   4.349446   6.025284   3.934611   0.000000
 Stoichiometry    Ca3O5P(1+)
 Framework group  C1[X(Ca3O5P)]
 Deg. of freedom    21
 Full point group                 C1
 Largest Abelian subgroup         C1      NOp   1
 Largest concise Abelian subgroup C1      NOp   1
                         Standard orientation:                         
 ---------------------------------------------------------------------
 Center     Atomic     Atomic              Coordinates (Angstroms)
 Number     Number      Type              X           Y           Z
 ---------------------------------------------------------------------
    1          8             0        2.919711    0.752249   -0.499181
    2          8             0        2.550461    0.853049    1.021859
    3          8             0       -2.234789   -1.476300    0.049959
    4          8             0       -1.430479    0.876230   -0.483831
    5         15             0       -1.116929   -0.811340   -0.883681
    6         20             0        0.796662    1.500549   -0.259021
    7         20             0        2.491771   -1.270011    0.335989
    8          8             0        0.330851   -0.933311   -0.167851
    9         20             0       -3.305039    0.349200    0.617409
 ---------------------------------------------------------------------
 Rotational constants (GHZ):      1.5176914      0.4301329      0.3702758
 Standard basis: 6-31+G(d,p) (6D, 7F)
 There are   199 symmetry adapted basis functions of A   symmetry.
 Integral buffers will be    131072 words long.
 Raffenetti 2 integral format.
 Two-electron integral symmetry is turned on.
   199 basis functions,   456 primitive gaussians,   199 cartesian basis functions
    57 alpha electrons       57 beta electrons
       nuclear repulsion energy       991.6944677755 Hartrees.
 NAtoms=    9 NActive=    9 NUniq=    9 SFac= 7.50D-01 NAtFMM=   80 NAOKFM=F Big=F
 One-electron integrals computed using PRISM.
 NBasis=   199 RedAO= T  NBF=   199
 NBsUse=   199 1.00D-06 NBFU=   199
 Harris functional with IExCor=  402 diagonalized for initial guess.
 ExpMin= 7.10D-03 ExpMax= 3.53D+04 ExpMxC= 5.30D+03 IAcc=3 IRadAn=         5 AccDes= 0.00D+00
 HarFok:  IExCor= 402 AccDes= 0.00D+00 IRadAn=         5 IDoV=1
 ScaDFX=  1.000000  1.000000  1.000000  1.000000
 Initial guess orbital symmetries:
       Occupied  (A) (A) (A) (A) (A) (A) (A) (A) (A) (A) (A) (A)
                 (A) (A) (A) (A) (A) (A) (A) (A) (A) (A) (A) (A)
                 (A) (A) (A) (A) (A) (A) (A) (A) (A) (A) (A) (A)
                 (A) (A) (A) (A) (A) (A) (A) (A) (A) (A) (A) (A)
                 (A) (A) (A) (A) (A) (A) (A) (A) (A)
       Virtual   (A) (A) (A) (A) (A) (A) (A) (A) (A) (A) (A) (A)
                 (A) (A) (A) (A) (A) (A) (A) (A) (A) (A) (A) (A)
                 (A) (A) (A) (A) (A) (A) (A) (A) (A) (A) (A) (A)
                 (A) (A) (A) (A) (A) (A) (A) (A) (A) (A) (A) (A)
                 (A) (A) (A) (A) (A) (A) (A) (A) (A) (A) (A) (A)
                 (A) (A) (A) (A) (A) (A) (A) (A) (A) (A) (A) (A)
                 (A) (A) (A) (A) (A) (A) (A) (A) (A) (A) (A) (A)
                 (A) (A) (A) (A) (A) (A) (A) (A) (A) (A) (A) (A)
                 (A) (A) (A) (A) (A) (A) (A) (A) (A) (A) (A) (A)
                 (A) (A) (A) (A) (A) (A) (A) (A) (A) (A) (A) (A)
                 (A) (A) (A) (A) (A) (A) (A) (A) (A) (A) (A) (A)
                 (A) (A) (A) (A) (A) (A) (A) (A) (A) (A)
 The electronic state of the initial guess is 1-A.
 Requested convergence on RMS density matrix=1.00D-04 within 128 cycles.
 Requested convergence on MAX density matrix=1.00D-02.
 Requested convergence on             energy=1.00D-02.
 No special actions if energy rises.
 SCF Done:  E(RB+HF-LYP) =  -2750.19787910     A.U. after    7 cycles
             Convg  =    0.6146D-04             -V/T =  2.0029
             S**2   =   0.0000

 **********************************************************************

            Population analysis using the SCF density.

 **********************************************************************

 Orbital symmetries:
       Occupied  (A) (A) (A) (A) (A) (A) (A) (A) (A) (A) (A) (A)
                 (A) (A) (A) (A) (A) (A) (A) (A) (A) (A) (A) (A)
                 (A) (A) (A) (A) (A) (A) (A) (A) (A) (A) (A) (A)
                 (A) (A) (A) (A) (A) (A) (A) (A) (A) (A) (A) (A)
                 (A) (A) (A) (A) (A) (A) (A) (A) (A)
       Virtual   (A) (A) (A) (A) (A) (A) (A) (A) (A) (A) (A) (A)
                 (A) (A) (A) (A) (A) (A) (A) (A) (A) (A) (A) (A)
                 (A) (A) (A) (A) (A) (A) (A) (A) (A) (A) (A) (A)
                 (A) (A) (A) (A) (A) (A) (A) (A) (A) (A) (A) (A)
                 (A) (A) (A) (A) (A) (A) (A) (A) (A) (A) (A) (A)
                 (A) (A) (A) (A) (A) (A) (A) (A) (A) (A) (A) (A)
                 (A) (A) (A) (A) (A) (A) (A) (A) (A) (A) (A) (A)
                 (A) (A) (A) (A) (A) (A) (A) (A) (A) (A) (A) (A)
                 (A) (A) (A) (A) (A) (A) (A) (A) (A) (A) (A) (A)
                 (A) (A) (A) (A) (A) (A) (A) (A) (A) (A) (A) (A)
                 (A) (A) (A) (A) (A) (A) (A) (A) (A) (A) (A) (A)
                 (A) (A) (A) (A) (A) (A) (A) (A) (A) (A)
 The electronic state is 1-A.
 Alpha  occ. eigenvalues -- -145.54445-145.49696-145.46284 -77.24440 -19.21821
 Alpha  occ. eigenvalues --  -19.21258 -19.20868 -19.20695 -19.20297 -15.61305
 Alpha  occ. eigenvalues --  -15.56497 -15.53194 -12.74536 -12.74443 -12.74434
 Alpha  occ. eigenvalues --  -12.69708 -12.69683 -12.69625 -12.66430 -12.66418
 Alpha  occ. eigenvalues --  -12.66245  -6.69515  -4.85924  -4.85840  -4.85330
 Alpha  occ. eigenvalues --   -1.98417  -1.93679  -1.90549  -1.26081  -1.25903
 Alpha  occ. eigenvalues --   -1.25555  -1.21806  -1.21195  -1.21081  -1.18458
 Alpha  occ. eigenvalues --   -1.18292  -1.18019  -1.06928  -1.03493  -1.01163
 Alpha  occ. eigenvalues --   -0.99570  -0.84592  -0.62305  -0.50979  -0.50112
 Alpha  occ. eigenvalues --   -0.47448  -0.44504  -0.44195  -0.42648  -0.41940
 Alpha  occ. eigenvalues --   -0.40761  -0.38758  -0.37802  -0.37527  -0.31539
 Alpha  occ. eigenvalues --   -0.30270  -0.29484
 Alpha virt. eigenvalues --   -0.22202  -0.17987  -0.15355  -0.13644  -0.12565
 Alpha virt. eigenvalues --   -0.11292  -0.10065  -0.08765  -0.08446  -0.07266
 Alpha virt. eigenvalues --   -0.07171  -0.05937  -0.05675  -0.05615  -0.05081
 Alpha virt. eigenvalues --   -0.04865  -0.04484  -0.04263  -0.04198  -0.03814
 Alpha virt. eigenvalues --   -0.03537  -0.03412  -0.03252  -0.03151  -0.02648
 Alpha virt. eigenvalues --   -0.02323  -0.01456  -0.00878   0.00739   0.01354
 Alpha virt. eigenvalues --    0.01747   0.02970   0.03110   0.03793   0.04232
 Alpha virt. eigenvalues --    0.04753   0.04920   0.05226   0.05931   0.06744
 Alpha virt. eigenvalues --    0.07085   0.07577   0.07987   0.08768   0.09206
 Alpha virt. eigenvalues --    0.09675   0.10415   0.10713   0.11255   0.12242
 Alpha virt. eigenvalues --    0.12801   0.14008   0.15766   0.16486   0.16913
 Alpha virt. eigenvalues --    0.18182   0.18561   0.19883   0.21172   0.21844
 Alpha virt. eigenvalues --    0.23108   0.23619   0.24014   0.24217   0.27197
 Alpha virt. eigenvalues --    0.28739   0.30301   0.30613   0.31991   0.32572
 Alpha virt. eigenvalues --    0.33421   0.35799   0.37483   0.38771   0.40094
 Alpha virt. eigenvalues --    0.40805   0.41803   0.44692   0.46912   0.52939
 Alpha virt. eigenvalues --    0.56103   0.61536   0.64521   0.66293   0.69841
 Alpha virt. eigenvalues --    0.75735   0.83306   0.88742   0.91192   0.96976
 Alpha virt. eigenvalues --    1.08036   1.12803   1.14165   1.15702   1.16240
 Alpha virt. eigenvalues --    1.17325   1.18529   1.19665   1.19888   1.20931
 Alpha virt. eigenvalues --    1.22250   1.24223   1.25058   1.27574   1.31157
 Alpha virt. eigenvalues --    1.39718   1.48180   1.53296   1.55248   1.55952
 Alpha virt. eigenvalues --    1.61219   1.65749   1.69206   1.72232   1.75130
 Alpha virt. eigenvalues --    1.76530   1.76755   1.77820   1.79510   1.80883
 Alpha virt. eigenvalues --    1.82831   1.84783   1.87868   1.89037   1.91775
 Alpha virt. eigenvalues --    1.91882   1.98273   1.99987   2.02776   2.08349
 Alpha virt. eigenvalues --    2.21289   2.23304   2.32697   2.57524   2.66939
 Alpha virt. eigenvalues --    3.06152   3.52952   3.99954   4.03920   4.06855
 Alpha virt. eigenvalues --    4.12117   4.14657
          Condensed to atoms (all electrons):
              1          2          3          4          5          6
     1  O    8.484546  -0.030692   0.000605  -0.001121  -0.014788   0.100943
     2  O   -0.030692   8.490913   0.000187  -0.001102  -0.002597   0.106389
     3  O    0.000605   0.000187   8.851182   0.011413  -0.286851   0.022475
     4  O   -0.001121  -0.001102   0.011413   9.103058  -0.265862   0.089119
     5  P   -0.014788  -0.002597  -0.286851  -0.265862  15.361198  -0.116541
     6  Ca   0.100943   0.106389   0.022475   0.089119  -0.116541  18.302274
     7  Ca   0.106177   0.097039  -0.002409  -0.002376   0.026270  -0.038888
     8  O    0.007494  -0.003312   0.114334   0.037482  -0.628772   0.090116
     9  Ca   0.000084  -0.000881   0.149238   0.090719   0.026457  -0.010517
              7          8          9
     1  O    0.106177   0.007494   0.000084
     2  O    0.097039  -0.003312  -0.000881
     3  O   -0.002409   0.114334   0.149238
     4  O   -0.002376   0.037482   0.090719
     5  P    0.026270  -0.628772   0.026457
     6  Ca  -0.038888   0.090116  -0.010517
     7  Ca  18.275355   0.056737   0.006083
     8  O    0.056737   9.314210   0.024963
     9  Ca   0.006083   0.024963  18.302034
 Mulliken atomic charges:
              1
     1  O   -0.653247
     2  O   -0.655944
     3  O   -0.860173
     4  O   -1.061333
     5  P    0.901486
     6  Ca   1.454630
     7  Ca   1.476013
     8  O   -1.013253
     9  Ca   1.411820
 Sum of Mulliken charges=   1.00000
 Atomic charges with hydrogens summed into heavy atoms:
              1
     1  O   -0.653247
     2  O   -0.655944
     3  O   -0.860173
     4  O   -1.061333
     5  P    0.901486
     6  Ca   1.454630
     7  Ca   1.476013
     8  O   -1.013253
     9  Ca   1.411820
 Sum of Mulliken charges=   1.00000
 Electronic spatial extent (au):  <R**2>=  2679.5764
 Charge=     1.0000 electrons
 Dipole moment (field-independent basis, Debye):
    X=    -6.9212    Y=     1.1525    Z=     4.6547  Tot=     8.4201
 Quadrupole moment (field-independent basis, Debye-Ang):
   XX=   -19.3749   YY=   -60.5483   ZZ=   -78.4350
   XY=   -41.8865   XZ=   -14.9328   YZ=    -4.6334
 Traceless Quadrupole moment (field-independent basis, Debye-Ang):
   XX=    33.4112   YY=    -7.7622   ZZ=   -25.6490
   XY=   -41.8865   XZ=   -14.9328   YZ=    -4.6334
 Octapole moment (field-independent basis, Debye-Ang**2):
  XXX=  -230.2145  YYY=    22.6223  ZZZ=    19.9875  XYY=    58.9884
  XXY=   -50.2609  XXZ=    63.8660  XZZ=   -12.9550  YZZ=     0.6653
  YYZ=     4.2234  XYZ=   -25.4618
 Hexadecapole moment (field-independent basis, Debye-Ang**3):
 XXXX= -1347.2845 YYYY=  -502.0543 ZZZZ=  -265.9108 XXXY=  -490.0535
 XXXZ=  -166.9663 YYYX=  -119.9579 YYYZ=   -27.3496 ZZZX=   -52.9130
 ZZZY=   -24.8314 XXYY=  -415.1302 XXZZ=  -387.2392 YYZZ=  -136.9509
 XXYZ=   -14.5178 YYXZ=    -7.2506 ZZXY=   -41.3964
 N-N= 9.916944677755D+02 E-N=-8.485418210301D+03  KE= 2.742185473156D+03
 Merz-Kollman atomic radii used.
 Read replacement radii for each type of atom:
 Rad(20) =   1.188000000000D+00
 Atom Element Radius
    1     8    1.40
    2     8    1.40
    3     8    1.40
    4     8    1.40
    5    15    1.80
    6    20    1.19
    7    20    1.19
    8     8    1.40
    9    20    1.19

 **********************************************************************

            Electrostatic Properties Using The SCF Density

 **********************************************************************

       Atomic Center    1 is at   2.919711  0.752249 -0.499181
       Atomic Center    2 is at   2.550461  0.853049  1.021859
       Atomic Center    3 is at  -2.234789 -1.476300  0.049959
       Atomic Center    4 is at  -1.430479  0.876230 -0.483831
       Atomic Center    5 is at  -1.116929 -0.811340 -0.883681
       Atomic Center    6 is at   0.796662  1.500549 -0.259021
       Atomic Center    7 is at   2.491771 -1.270011  0.335989
       Atomic Center    8 is at   0.330851 -0.933311 -0.167851
       Atomic Center    9 is at  -3.305039  0.349200  0.617409
     807 points will be used for fitting atomic charges
 Fitting point charges to eletrostatic potential
 Charges from ESP fit, RMS=   0.00729 RRMS=   0.04744:
 Charge=   1.00000 Dipole=    -7.4013     1.2522     4.8291 Tot=     8.9257
              1
     1  O   -0.765092
     2  O   -0.814446
     3  O   -0.690621
     4  O   -1.124006
     5  P    0.338207
     6  Ca   1.682551
     7  Ca   1.668799
     8  O   -0.872765
     9  Ca   1.577374
 -----------------------------------------------------------------

              Electrostatic Properties (Atomic Units)

 -----------------------------------------------------------------
    Center     Electric         -------- Electric Field --------
               Potential          X             Y             Z
 -----------------------------------------------------------------
    1 Atom    -22.259808
    2 Atom    -22.264271
    3 Atom    -22.260632
    4 Atom    -22.242227
    5 Atom    -53.964440
    6 Atom    -80.077808
    7 Atom    -80.042928
    8 Atom    -22.246085
    9 Atom    -79.998187
 -----------------------------------------------------------------
 1\1\GINC-N021\SP\RB3LYP\6-31+G(d,p)\Ca3O5P1(1+)\TIMN\12-Jun-2015\0\\# 
 b3lyp/6-31+G(d,p) int=ultrafine pop=(ReadRadii,MK)\\mol_17.28.18.pdbcc
 c_plusQ.z58540.zip.xyz\\1,1\O,0,2.91971,0.75225,-0.49918\O,0,2.55046,0
 .85305,1.02186\O,0,-2.23479,-1.4763,0.04996\O,0,-1.43048,0.87623,-0.48
 383\P,0,-1.11693,-0.81134,-0.88368\Ca,0,0.79666,1.50055,-0.25902\Ca,0,
 2.49177,-1.27001,0.33599\O,0,0.33085,-0.93331,-0.16785\Ca,0,-3.30504,0
 .3492,0.61741\\Version=EM64T-G03RevE.01\State=1-A\HF=-2750.1978791\RMS
 D=6.146e-05\Thermal=0.\Dipole=-2.7230179,0.4534381,1.8313192\PG=C01 [X
 (Ca3O5P1)]\\@


 ... A MOLECULAR SYSTEM ... (PASSES) ... FROM ONE STATE OF EQUILIBRIUM 
 TO ANOTHER ... BY MEANS OF ALL POSSIBLE INTERMEDIATE PATHS, 
 BUT THE PATH MOST ECONOMICAL OF ENERGY WILL BE THE MORE OFTEN TRAVELED.

                      -- HENRY EYRING, 1945
 Job cpu time:  0 days  0 hours  1 minutes 43.1 seconds.
 File lengths (MBytes):  RWF=     36 Int=      0 D2E=      0 Chk=     11 Scr=      1
 Normal termination of Gaussian 03 at Fri Jun 12 18:08:14 2015.
