 Entering Gaussian System, Link 0=/home/timn/tmp/g03.e01/g03
 Input=mol_17.26.3.pdbcccc_plusQ.z58391.zip.xyz.gjf
 Output=mol_17.26.3.pdbcccc_plusQ.z58391.zip.xyz.out
 Initial command:
 /home/timn/tmp/g03.e01/l1.exe /home/timn/tmp/g03.e01/Gau-17425.inp -scrdir=/home/timn/tmp/g03.e01/
 Default is to use a total of   2 processors:
                                2 via shared-memory
                                1 via Linda
 Entering Link 1 = /home/timn/tmp/g03.e01/l1.exe PID=     17426.
  
 Copyright (c) 1988,1990,1992,1993,1995,1998,2003,2004,2007, Gaussian, Inc.
                  All Rights Reserved.
  
 This is the Gaussian(R) 03 program.  It is based on the
 the Gaussian(R) 98 system (copyright 1998, Gaussian, Inc.),
 the Gaussian(R) 94 system (copyright 1995, Gaussian, Inc.),
 the Gaussian 92(TM) system (copyright 1992, Gaussian, Inc.),
 the Gaussian 90(TM) system (copyright 1990, Gaussian, Inc.),
 the Gaussian 88(TM) system (copyright 1988, Gaussian, Inc.),
 the Gaussian 86(TM) system (copyright 1986, Carnegie Mellon
 University), and the Gaussian 82(TM) system (copyright 1983,
 Carnegie Mellon University). Gaussian is a federally registered
 trademark of Gaussian, Inc.
  
 This software contains proprietary and confidential information,
 including trade secrets, belonging to Gaussian, Inc.
  
 This software is provided under written license and may be
 used, copied, transmitted, or stored only in accord with that
 written license.
  
 The following legend is applicable only to US Government
 contracts under FAR:
  
                    RESTRICTED RIGHTS LEGEND
  
 Use, reproduction and disclosure by the US Government is
 subject to restrictions as set forth in subparagraphs (a)
 and (c) of the Commercial Computer Software - Restricted
 Rights clause in FAR 52.227-19.
  
 Gaussian, Inc.
 340 Quinnipiac St., Bldg. 40, Wallingford CT 06492
  
  
 ---------------------------------------------------------------
 Warning -- This program may not be used in any manner that
 competes with the business of Gaussian, Inc. or will provide
 assistance to any competitor of Gaussian, Inc.  The licensee
 of this program is prohibited from giving any competitor of
 Gaussian, Inc. access to this program.  By using this program,
 the user acknowledges that Gaussian, Inc. is engaged in the
 business of creating and licensing software in the field of
 computational chemistry and represents and warrants to the
 licensee that it is not a competitor of Gaussian, Inc. and that
 it will not use this program in any manner prohibited above.
 ---------------------------------------------------------------
  

 Cite this work as:
 Gaussian 03, Revision E.01,
 M. J. Frisch, G. W. Trucks, H. B. Schlegel, G. E. Scuseria, 
 M. A. Robb, J. R. Cheeseman, J. A. Montgomery, Jr., T. Vreven, 
 K. N. Kudin, J. C. Burant, J. M. Millam, S. S. Iyengar, J. Tomasi, 
 V. Barone, B. Mennucci, M. Cossi, G. Scalmani, N. Rega, 
 G. A. Petersson, H. Nakatsuji, M. Hada, M. Ehara, K. Toyota, 
 R. Fukuda, J. Hasegawa, M. Ishida, T. Nakajima, Y. Honda, O. Kitao, 
 H. Nakai, M. Klene, X. Li, J. E. Knox, H. P. Hratchian, J. B. Cross, 
 V. Bakken, C. Adamo, J. Jaramillo, R. Gomperts, R. E. Stratmann, 
 O. Yazyev, A. J. Austin, R. Cammi, C. Pomelli, J. W. Ochterski, 
 P. Y. Ayala, K. Morokuma, G. A. Voth, P. Salvador, J. J. Dannenberg, 
 V. G. Zakrzewski, S. Dapprich, A. D. Daniels, M. C. Strain, 
 O. Farkas, D. K. Malick, A. D. Rabuck, K. Raghavachari, 
 J. B. Foresman, J. V. Ortiz, Q. Cui, A. G. Baboul, S. Clifford, 
 J. Cioslowski, B. B. Stefanov, G. Liu, A. Liashenko, P. Piskorz, 
 I. Komaromi, R. L. Martin, D. J. Fox, T. Keith, M. A. Al-Laham, 
 C. Y. Peng, A. Nanayakkara, M. Challacombe, P. M. W. Gill, 
 B. Johnson, W. Chen, M. W. Wong, C. Gonzalez, and J. A. Pople, 
 Gaussian, Inc., Wallingford CT, 2004.
 
 ******************************************
 Gaussian 03:  EM64T-G03RevE.01 11-Sep-2007
                12-Jun-2015 
 ******************************************
 %nproc=2
 Will use up to    2 processors via shared memory.
 Default route:  MP2=Direct MaxDisk=2000MB
 ----------------------------------------------------
 # b3lyp/6-31+G(d,p) int=ultrafine pop=(ReadRadii,MK)
 ----------------------------------------------------

 Warning!  SCF SP cutoffs with diffuse functions may be unreliable.
 Consider SCF=Tight

 1/38=1/1;
 2/17=6,18=5,40=1/2;
 3/5=1,6=6,7=111,11=2,16=1,25=1,30=1,74=-5,75=5/1,2,3;
 4//1;
 5/5=2,32=1,38=5/2;
 6/7=2,8=2,9=2,10=2,15=8,20=101,28=1/1,2;
 99/5=1,9=1/99;
 ----------------------------------------
 mol_17.26.3.pdbcccc_plusQ.z58391.zip.xyz
 ----------------------------------------
 Symbolic Z-matrix:
 Charge =  1 Multiplicity = 1
 O                     2.06022   0.00084  -0.10126 
 O                     1.62722  -0.00798   1.36532 
 O                    -0.66874   1.251     0.98585 
 P                    -0.0204   -0.01047   1.84213 
 Ca                    0.72175   1.69052  -0.83455 
 O                    -0.66886  -1.26215   0.97166 
 O                    -0.51006   0.00988  -1.75459 
 Ca                    0.72203  -1.6808   -0.85333 
 Ca                   -2.1644    0.00149  -0.28051 
 
                          Input orientation:                          
 ---------------------------------------------------------------------
 Center     Atomic     Atomic              Coordinates (Angstroms)
 Number     Number      Type              X           Y           Z
 ---------------------------------------------------------------------
    1          8             0        2.060220    0.000840   -0.101260
    2          8             0        1.627220   -0.007980    1.365320
    3          8             0       -0.668740    1.251000    0.985850
    4         15             0       -0.020400   -0.010470    1.842130
    5         20             0        0.721750    1.690520   -0.834550
    6          8             0       -0.668860   -1.262150    0.971660
    7          8             0       -0.510060    0.009880   -1.754590
    8         20             0        0.722030   -1.680800   -0.853330
    9         20             0       -2.164400    0.001490   -0.280510
 ---------------------------------------------------------------------
                    Distance matrix (angstroms):
                    1          2          3          4          5
     1  O    0.000000
     2  O    1.529191   0.000000
     3  O    3.192480   2.645838   0.000000
     4  P    2.847081   1.715228   1.656764   0.000000
     5  Ca   2.276891   2.923047   2.332487   3.257111   0.000000
     6  O    3.192832   2.645731   2.513190   1.656780   3.730208
     7  O    3.056128   3.781815   3.012569   3.629955   2.277802
     8  Ca   2.276900   2.922346   3.729916   3.256794   3.371372
     9  Ca   4.228421   4.133428   2.324208   3.017032   3.389638
                    6          7          8          9
     6  O    0.000000
     7  O    3.012593   0.000000
     8  Ca   2.332473   2.277875   0.000000
     9  Ca   2.324082   2.215812   3.389646   0.000000
 Stoichiometry    Ca3O5P(1+)
 Framework group  C1[X(Ca3O5P)]
 Deg. of freedom    21
 Full point group                 C1
 Largest Abelian subgroup         C1      NOp   1
 Largest concise Abelian subgroup C1      NOp   1
                         Standard orientation:                         
 ---------------------------------------------------------------------
 Center     Atomic     Atomic              Coordinates (Angstroms)
 Number     Number      Type              X           Y           Z
 ---------------------------------------------------------------------
    1          8             0        2.060221    0.000835   -0.101260
    2          8             0        1.627221   -0.007983    1.365320
    3          8             0       -0.668735    1.251003    0.985850
    4         15             0       -0.020399   -0.010469    1.842130
    5         20             0        0.721756    1.690519   -0.834550
    6          8             0       -0.668862   -1.262147    0.971660
    7          8             0       -0.510059    0.009883   -1.754590
    8         20             0        0.722027   -1.680801   -0.853330
    9         20             0       -2.164399    0.001497   -0.280510
 ---------------------------------------------------------------------
 Rotational constants (GHZ):      0.9144453      0.7988610      0.7956090
 Standard basis: 6-31+G(d,p) (6D, 7F)
 There are   199 symmetry adapted basis functions of A   symmetry.
 Integral buffers will be    131072 words long.
 Raffenetti 2 integral format.
 Two-electron integral symmetry is turned on.
   199 basis functions,   456 primitive gaussians,   199 cartesian basis functions
    57 alpha electrons       57 beta electrons
       nuclear repulsion energy      1092.4461417720 Hartrees.
 NAtoms=    9 NActive=    9 NUniq=    9 SFac= 7.50D-01 NAtFMM=   80 NAOKFM=F Big=F
 One-electron integrals computed using PRISM.
 NBasis=   199 RedAO= T  NBF=   199
 NBsUse=   199 1.00D-06 NBFU=   199
 Harris functional with IExCor=  402 diagonalized for initial guess.
 ExpMin= 7.10D-03 ExpMax= 3.53D+04 ExpMxC= 5.30D+03 IAcc=3 IRadAn=         5 AccDes= 0.00D+00
 HarFok:  IExCor= 402 AccDes= 0.00D+00 IRadAn=         5 IDoV=1
 ScaDFX=  1.000000  1.000000  1.000000  1.000000
 Initial guess orbital symmetries:
       Occupied  (A) (A) (A) (A) (A) (A) (A) (A) (A) (A) (A) (A)
                 (A) (A) (A) (A) (A) (A) (A) (A) (A) (A) (A) (A)
                 (A) (A) (A) (A) (A) (A) (A) (A) (A) (A) (A) (A)
                 (A) (A) (A) (A) (A) (A) (A) (A) (A) (A) (A) (A)
                 (A) (A) (A) (A) (A) (A) (A) (A) (A)
       Virtual   (A) (A) (A) (A) (A) (A) (A) (A) (A) (A) (A) (A)
                 (A) (A) (A) (A) (A) (A) (A) (A) (A) (A) (A) (A)
                 (A) (A) (A) (A) (A) (A) (A) (A) (A) (A) (A) (A)
                 (A) (A) (A) (A) (A) (A) (A) (A) (A) (A) (A) (A)
                 (A) (A) (A) (A) (A) (A) (A) (A) (A) (A) (A) (A)
                 (A) (A) (A) (A) (A) (A) (A) (A) (A) (A) (A) (A)
                 (A) (A) (A) (A) (A) (A) (A) (A) (A) (A) (A) (A)
                 (A) (A) (A) (A) (A) (A) (A) (A) (A) (A) (A) (A)
                 (A) (A) (A) (A) (A) (A) (A) (A) (A) (A) (A) (A)
                 (A) (A) (A) (A) (A) (A) (A) (A) (A) (A) (A) (A)
                 (A) (A) (A) (A) (A) (A) (A) (A) (A) (A) (A) (A)
                 (A) (A) (A) (A) (A) (A) (A) (A) (A) (A)
 The electronic state of the initial guess is 1-A.
 Requested convergence on RMS density matrix=1.00D-04 within 128 cycles.
 Requested convergence on MAX density matrix=1.00D-02.
 Requested convergence on             energy=1.00D-02.
 No special actions if energy rises.
 SCF Done:  E(RB+HF-LYP) =  -2750.21012827     A.U. after    8 cycles
             Convg  =    0.8006D-04             -V/T =  2.0029
             S**2   =   0.0000

 **********************************************************************

            Population analysis using the SCF density.

 **********************************************************************

 Orbital symmetries:
       Occupied  (A) (A) (A) (A) (A) (A) (A) (A) (A) (A) (A) (A)
                 (A) (A) (A) (A) (A) (A) (A) (A) (A) (A) (A) (A)
                 (A) (A) (A) (A) (A) (A) (A) (A) (A) (A) (A) (A)
                 (A) (A) (A) (A) (A) (A) (A) (A) (A) (A) (A) (A)
                 (A) (A) (A) (A) (A) (A) (A) (A) (A)
       Virtual   (A) (A) (A) (A) (A) (A) (A) (A) (A) (A) (A) (A)
                 (A) (A) (A) (A) (A) (A) (A) (A) (A) (A) (A) (A)
                 (A) (A) (A) (A) (A) (A) (A) (A) (A) (A) (A) (A)
                 (A) (A) (A) (A) (A) (A) (A) (A) (A) (A) (A) (A)
                 (A) (A) (A) (A) (A) (A) (A) (A) (A) (A) (A) (A)
                 (A) (A) (A) (A) (A) (A) (A) (A) (A) (A) (A) (A)
                 (A) (A) (A) (A) (A) (A) (A) (A) (A) (A) (A) (A)
                 (A) (A) (A) (A) (A) (A) (A) (A) (A) (A) (A) (A)
                 (A) (A) (A) (A) (A) (A) (A) (A) (A) (A) (A) (A)
                 (A) (A) (A) (A) (A) (A) (A) (A) (A) (A) (A) (A)
                 (A) (A) (A) (A) (A) (A) (A) (A) (A) (A) (A) (A)
                 (A) (A) (A) (A) (A) (A) (A) (A) (A) (A)
 The electronic state is 1-A.
 Alpha  occ. eigenvalues -- -145.50878-145.49977-145.49974 -77.26615 -19.28659
 Alpha  occ. eigenvalues --  -19.25247 -19.22899 -19.22898 -19.16859 -15.57716
 Alpha  occ. eigenvalues --  -15.56795 -15.56793 -12.70922 -12.70887 -12.70842
 Alpha  occ. eigenvalues --  -12.69993 -12.69993 -12.69966 -12.69966 -12.69941
 Alpha  occ. eigenvalues --  -12.69940  -6.71713  -4.88133  -4.88010  -4.87486
 Alpha  occ. eigenvalues --   -1.95024  -1.94084  -1.94030  -1.23110  -1.22774
 Alpha  occ. eigenvalues --   -1.22387  -1.22272  -1.21604  -1.21581  -1.21355
 Alpha  occ. eigenvalues --   -1.21288  -1.20981  -1.13395  -1.06848  -1.02234
 Alpha  occ. eigenvalues --   -0.93404  -0.91712  -0.64996  -0.55620  -0.52562
 Alpha  occ. eigenvalues --   -0.51430  -0.48100  -0.46969  -0.44008  -0.42105
 Alpha  occ. eigenvalues --   -0.39435  -0.38481  -0.37007  -0.36050  -0.35629
 Alpha  occ. eigenvalues --   -0.35469  -0.32662
 Alpha virt. eigenvalues --   -0.20695  -0.18355  -0.17807  -0.13806  -0.12910
 Alpha virt. eigenvalues --   -0.11312  -0.10841  -0.09447  -0.09265  -0.08194
 Alpha virt. eigenvalues --   -0.07390  -0.06437  -0.06182  -0.05880  -0.04928
 Alpha virt. eigenvalues --   -0.04870  -0.04853  -0.04719  -0.04373  -0.04014
 Alpha virt. eigenvalues --   -0.03938  -0.03681  -0.03235  -0.03051  -0.02634
 Alpha virt. eigenvalues --   -0.01962  -0.01941  -0.00643   0.01044   0.01711
 Alpha virt. eigenvalues --    0.01807   0.02571   0.03695   0.03999   0.04403
 Alpha virt. eigenvalues --    0.05329   0.05876   0.06020   0.06113   0.06217
 Alpha virt. eigenvalues --    0.06916   0.07105   0.07178   0.07465   0.07991
 Alpha virt. eigenvalues --    0.09565   0.09838   0.10626   0.10639   0.11487
 Alpha virt. eigenvalues --    0.12564   0.14088   0.14996   0.15600   0.16928
 Alpha virt. eigenvalues --    0.19368   0.20482   0.20805   0.21231   0.22497
 Alpha virt. eigenvalues --    0.23379   0.23814   0.24446   0.25305   0.26127
 Alpha virt. eigenvalues --    0.27603   0.30176   0.32486   0.32746   0.34302
 Alpha virt. eigenvalues --    0.34549   0.35382   0.36509   0.38355   0.38830
 Alpha virt. eigenvalues --    0.38839   0.42814   0.43591   0.46630   0.51102
 Alpha virt. eigenvalues --    0.53781   0.60036   0.61908   0.62214   0.65529
 Alpha virt. eigenvalues --    0.79111   0.86458   0.87037   0.92128   0.95122
 Alpha virt. eigenvalues --    1.10622   1.12096   1.13854   1.14929   1.16143
 Alpha virt. eigenvalues --    1.18858   1.18954   1.20639   1.21343   1.22927
 Alpha virt. eigenvalues --    1.23572   1.24922   1.26491   1.32087   1.32170
 Alpha virt. eigenvalues --    1.38037   1.49665   1.51841   1.55787   1.57812
 Alpha virt. eigenvalues --    1.61551   1.67702   1.69655   1.70091   1.71658
 Alpha virt. eigenvalues --    1.76312   1.78251   1.79821   1.84531   1.85776
 Alpha virt. eigenvalues --    1.87750   1.88691   1.90844   1.92755   1.93607
 Alpha virt. eigenvalues --    1.95965   1.96567   1.99104   2.01840   2.09531
 Alpha virt. eigenvalues --    2.17123   2.20322   2.36259   2.52200   2.57231
 Alpha virt. eigenvalues --    3.06273   3.51486   4.01900   4.10224   4.14149
 Alpha virt. eigenvalues --    4.21343   4.38503
          Condensed to atoms (all electrons):
              1          2          3          4          5          6
     1  O    8.469868  -0.087368   0.009185   0.040606   0.104484   0.009219
     2  O   -0.087368   8.633782   0.025363  -0.151641  -0.025901   0.025349
     3  O    0.009185   0.025363   8.964756  -0.138644   0.037825   0.031507
     4  P    0.040606  -0.151641  -0.138644  14.388417   0.019563  -0.138711
     5  Ca   0.104484  -0.025901   0.037825   0.019563  18.350186   0.005429
     6  O    0.009219   0.025349   0.031507  -0.138711   0.005429   8.964762
     7  O    0.023385  -0.011788   0.020335  -0.024214   0.116708   0.020347
     8  Ca   0.104468  -0.025868   0.005427   0.019619  -0.038532   0.037856
     9  Ca  -0.023454   0.062695   0.093031  -0.065618  -0.059870   0.093038
              7          8          9
     1  O    0.023385   0.104468  -0.023454
     2  O   -0.011788  -0.025868   0.062695
     3  O    0.020335   0.005427   0.093031
     4  P   -0.024214   0.019619  -0.065618
     5  Ca   0.116708  -0.038532  -0.059870
     6  O    0.020347   0.037856   0.093038
     7  O    8.854646   0.116686   0.142580
     8  Ca   0.116686  18.350171  -0.059885
     9  Ca   0.142580  -0.059885  18.396987
 Mulliken atomic charges:
              1
     1  O   -0.650394
     2  O   -0.444623
     3  O   -1.048785
     4  P    1.050623
     5  Ca   1.490109
     6  O   -1.048798
     7  O   -1.258685
     8  Ca   1.490058
     9  Ca   1.420494
 Sum of Mulliken charges=   1.00000
 Atomic charges with hydrogens summed into heavy atoms:
              1
     1  O   -0.650394
     2  O   -0.444623
     3  O   -1.048785
     4  P    1.050623
     5  Ca   1.490109
     6  O   -1.048798
     7  O   -1.258685
     8  Ca   1.490058
     9  Ca   1.420494
 Sum of Mulliken charges=   1.00000
 Electronic spatial extent (au):  <R**2>=  1758.2723
 Charge=     1.0000 electrons
 Dipole moment (field-independent basis, Debye):
    X=    -5.1109    Y=     0.0478    Z=    -8.2820  Tot=     9.7322
 Quadrupole moment (field-independent basis, Debye-Ang):
   XX=   -52.5632   YY=   -42.2270   ZZ=   -90.6121
   XY=     0.0467   XZ=    -8.8083   YZ=     0.2702
 Traceless Quadrupole moment (field-independent basis, Debye-Ang):
   XX=     9.2375   YY=    19.5738   ZZ=   -28.8113
   XY=     0.0467   XZ=    -8.8083   YZ=     0.2702
 Octapole moment (field-independent basis, Debye-Ang**2):
  XXX=  -118.9211  YYY=     1.0663  ZZZ=    -9.5289  XYY=    43.0822
  XXY=     0.1630  XXZ=   -30.3927  XZZ=    17.2120  YZZ=    -0.6364
  YYZ=   -61.9818  XYZ=     0.1460
 Hexadecapole moment (field-independent basis, Debye-Ang**3):
 XXXX=  -580.3167 YYYY=  -389.6419 ZZZZ=  -821.8221 XXXY=     0.0052
 XXXZ=    -2.5867 YYYX=     0.4201 YYYZ=     0.8883 ZZZX=   -49.1227
 ZZZY=     1.5838 XXYY=  -182.6360 XXZZ=  -244.0956 YYZZ=  -181.7398
 XXYZ=     0.3638 YYXZ=   -25.4305 ZZXY=    -0.0062
 N-N= 1.092446141772D+03 E-N=-8.685891832658D+03  KE= 2.742245183397D+03
 Merz-Kollman atomic radii used.
 Read replacement radii for each type of atom:
 Rad(20) =   1.188000000000D+00
 Atom Element Radius
    1     8    1.40
    2     8    1.40
    3     8    1.40
    4    15    1.80
    5    20    1.19
    6     8    1.40
    7     8    1.40
    8    20    1.19
    9    20    1.19

 **********************************************************************

            Electrostatic Properties Using The SCF Density

 **********************************************************************

       Atomic Center    1 is at   2.060221  0.000835 -0.101260
       Atomic Center    2 is at   1.627221 -0.007983  1.365320
       Atomic Center    3 is at  -0.668735  1.251003  0.985850
       Atomic Center    4 is at  -0.020399 -0.010469  1.842130
       Atomic Center    5 is at   0.721756  1.690519 -0.834550
       Atomic Center    6 is at  -0.668862 -1.262147  0.971660
       Atomic Center    7 is at  -0.510059  0.009883 -1.754590
       Atomic Center    8 is at   0.722027 -1.680801 -0.853330
       Atomic Center    9 is at  -2.164399  0.001497 -0.280510
     736 points will be used for fitting atomic charges
 Fitting point charges to eletrostatic potential
 Charges from ESP fit, RMS=   0.00503 RRMS=   0.03145:
 Charge=   1.00000 Dipole=    -5.1400     0.0446    -8.3750 Tot=     9.8266
              1
     1  O   -0.768554
     2  O   -0.227996
     3  O   -0.910999
     4  P    0.396331
     5  Ca   1.695564
     6  O   -0.910204
     7  O   -1.636652
     8  Ca   1.695376
     9  Ca   1.667135
 -----------------------------------------------------------------

              Electrostatic Properties (Atomic Units)

 -----------------------------------------------------------------
    Center     Electric         -------- Electric Field --------
               Potential          X             Y             Z
 -----------------------------------------------------------------
    1 Atom    -22.209809
    2 Atom    -22.182573
    3 Atom    -22.238457
    4 Atom    -53.952862
    5 Atom    -80.040647
    6 Atom    -22.238472
    7 Atom    -22.309415
    8 Atom    -80.040647
    9 Atom    -80.032547
 -----------------------------------------------------------------
 1\1\GINC-N028\SP\RB3LYP\6-31+G(d,p)\Ca3O5P1(1+)\TIMN\12-Jun-2015\0\\# 
 b3lyp/6-31+G(d,p) int=ultrafine pop=(ReadRadii,MK)\\mol_17.26.3.pdbccc
 c_plusQ.z58391.zip.xyz\\1,1\O,0,2.06022,0.00084,-0.10126\O,0,1.62722,-
 0.00798,1.36532\O,0,-0.66874,1.251,0.98585\P,0,-0.0204,-0.01047,1.8421
 3\Ca,0,0.72175,1.69052,-0.83455\O,0,-0.66886,-1.26215,0.97166\O,0,-0.5
 1006,0.00988,-1.75459\Ca,0,0.72203,-1.6808,-0.85333\Ca,0,-2.1644,0.001
 49,-0.28051\\Version=EM64T-G03RevE.01\State=1-A\HF=-2750.2101283\RMSD=
 8.006e-05\Thermal=0.\Dipole=-2.0107654,0.0187853,-3.2584077\PG=C01 [X(
 Ca3O5P1)]\\@


 What some people mistake for the high cost
 of living is really the cost of living high.
                              -- Doug Larson
 Job cpu time:  0 days  0 hours  2 minutes 12.5 seconds.
 File lengths (MBytes):  RWF=     36 Int=      0 D2E=      0 Chk=     11 Scr=      1
 Normal termination of Gaussian 03 at Fri Jun 12 18:01:03 2015.
