 Entering Gaussian System, Link 0=/home/timn/tmp/g03.e01/g03
 Input=mol_16.4.8.pdbc_plusQ.out.z51613.zip.xyz.gjf
 Output=mol_16.4.8.pdbc_plusQ.out.z51613.zip.xyz.out
 Initial command:
 /home/timn/tmp/g03.e01/l1.exe /home/timn/tmp/g03.e01/Gau-14412.inp -scrdir=/home/timn/tmp/g03.e01/
 Default is to use a total of   2 processors:
                                2 via shared-memory
                                1 via Linda
 Entering Link 1 = /home/timn/tmp/g03.e01/l1.exe PID=     14413.
  
 Copyright (c) 1988,1990,1992,1993,1995,1998,2003,2004,2007, Gaussian, Inc.
                  All Rights Reserved.
  
 This is the Gaussian(R) 03 program.  It is based on the
 the Gaussian(R) 98 system (copyright 1998, Gaussian, Inc.),
 the Gaussian(R) 94 system (copyright 1995, Gaussian, Inc.),
 the Gaussian 92(TM) system (copyright 1992, Gaussian, Inc.),
 the Gaussian 90(TM) system (copyright 1990, Gaussian, Inc.),
 the Gaussian 88(TM) system (copyright 1988, Gaussian, Inc.),
 the Gaussian 86(TM) system (copyright 1986, Carnegie Mellon
 University), and the Gaussian 82(TM) system (copyright 1983,
 Carnegie Mellon University). Gaussian is a federally registered
 trademark of Gaussian, Inc.
  
 This software contains proprietary and confidential information,
 including trade secrets, belonging to Gaussian, Inc.
  
 This software is provided under written license and may be
 used, copied, transmitted, or stored only in accord with that
 written license.
  
 The following legend is applicable only to US Government
 contracts under FAR:
  
                    RESTRICTED RIGHTS LEGEND
  
 Use, reproduction and disclosure by the US Government is
 subject to restrictions as set forth in subparagraphs (a)
 and (c) of the Commercial Computer Software - Restricted
 Rights clause in FAR 52.227-19.
  
 Gaussian, Inc.
 340 Quinnipiac St., Bldg. 40, Wallingford CT 06492
  
  
 ---------------------------------------------------------------
 Warning -- This program may not be used in any manner that
 competes with the business of Gaussian, Inc. or will provide
 assistance to any competitor of Gaussian, Inc.  The licensee
 of this program is prohibited from giving any competitor of
 Gaussian, Inc. access to this program.  By using this program,
 the user acknowledges that Gaussian, Inc. is engaged in the
 business of creating and licensing software in the field of
 computational chemistry and represents and warrants to the
 licensee that it is not a competitor of Gaussian, Inc. and that
 it will not use this program in any manner prohibited above.
 ---------------------------------------------------------------
  

 Cite this work as:
 Gaussian 03, Revision E.01,
 M. J. Frisch, G. W. Trucks, H. B. Schlegel, G. E. Scuseria, 
 M. A. Robb, J. R. Cheeseman, J. A. Montgomery, Jr., T. Vreven, 
 K. N. Kudin, J. C. Burant, J. M. Millam, S. S. Iyengar, J. Tomasi, 
 V. Barone, B. Mennucci, M. Cossi, G. Scalmani, N. Rega, 
 G. A. Petersson, H. Nakatsuji, M. Hada, M. Ehara, K. Toyota, 
 R. Fukuda, J. Hasegawa, M. Ishida, T. Nakajima, Y. Honda, O. Kitao, 
 H. Nakai, M. Klene, X. Li, J. E. Knox, H. P. Hratchian, J. B. Cross, 
 V. Bakken, C. Adamo, J. Jaramillo, R. Gomperts, R. E. Stratmann, 
 O. Yazyev, A. J. Austin, R. Cammi, C. Pomelli, J. W. Ochterski, 
 P. Y. Ayala, K. Morokuma, G. A. Voth, P. Salvador, J. J. Dannenberg, 
 V. G. Zakrzewski, S. Dapprich, A. D. Daniels, M. C. Strain, 
 O. Farkas, D. K. Malick, A. D. Rabuck, K. Raghavachari, 
 J. B. Foresman, J. V. Ortiz, Q. Cui, A. G. Baboul, S. Clifford, 
 J. Cioslowski, B. B. Stefanov, G. Liu, A. Liashenko, P. Piskorz, 
 I. Komaromi, R. L. Martin, D. J. Fox, T. Keith, M. A. Al-Laham, 
 C. Y. Peng, A. Nanayakkara, M. Challacombe, P. M. W. Gill, 
 B. Johnson, W. Chen, M. W. Wong, C. Gonzalez, and J. A. Pople, 
 Gaussian, Inc., Wallingford CT, 2004.
 
 ******************************************
 Gaussian 03:  EM64T-G03RevE.01 11-Sep-2007
                12-Jun-2015 
 ******************************************
 %nproc=2
 Will use up to    2 processors via shared memory.
 Default route:  MP2=Direct MaxDisk=2000MB
 ----------------------------------------------------
 # b3lyp/6-31+G(d,p) int=ultrafine pop=(ReadRadii,MK)
 ----------------------------------------------------

 Warning!  SCF SP cutoffs with diffuse functions may be unreliable.
 Consider SCF=Tight

 1/38=1/1;
 2/17=6,18=5,40=1/2;
 3/5=1,6=6,7=111,11=2,16=1,25=1,30=1,74=-5,75=5/1,2,3;
 4//1;
 5/5=2,32=1,38=5/2;
 6/7=2,8=2,9=2,10=2,15=8,20=101,28=1/1,2;
 99/5=1,9=1/99;
 ----------------------------------------
 mol_16.4.8.pdbc_plusQ.out.z51613.zip.xyz
 ----------------------------------------
 Symbolic Z-matrix:
 Charge =  1 Multiplicity = 1
 O                    -1.44392   1.27183  -0.0009 
 P                    -2.31985  -0.00275   0.00004 
 O                    -1.44073  -1.27515   0.00079 
 Ca                    0.76408  -1.85731  -0.0006 
 O                     1.71215   0.00198   0.78706 
 O                     1.71431   0.00225  -0.78531 
 Ca                    0.75909   1.859    -0.00009 
 
                          Input orientation:                          
 ---------------------------------------------------------------------
 Center     Atomic     Atomic              Coordinates (Angstroms)
 Number     Number      Type              X           Y           Z
 ---------------------------------------------------------------------
    1          8             0       -1.443920    1.271830   -0.000900
    2         15             0       -2.319850   -0.002750    0.000040
    3          8             0       -1.440730   -1.275150    0.000790
    4         20             0        0.764080   -1.857310   -0.000600
    5          8             0        1.712150    0.001980    0.787060
    6          8             0        1.714310    0.002250   -0.785310
    7         20             0        0.759090    1.859000   -0.000090
 ---------------------------------------------------------------------
                    Distance matrix (angstroms):
                    1          2          3          4          5
     1  O    0.000000
     2  P    1.546547   0.000000
     3  O    2.546983   1.546562   0.000000
     4  Ca   3.829723   3.598613   2.280373   0.000000
     5  O    3.492016   4.108095   3.491409   2.230741   0.000000
     6  O    3.493072   4.109896   3.493420   2.230845   1.572372
     7  Ca   2.279917   3.598053   3.829113   3.716313   2.230796
                    6          7
     6  O    0.000000
     7  Ca   2.230815   0.000000
 Stoichiometry    Ca2O4P(1+)
 Framework group  C1[X(Ca2O4P)]
 Deg. of freedom    15
 Full point group                 C1
 Largest Abelian subgroup         C1      NOp   1
 Largest concise Abelian subgroup C1      NOp   1
                         Standard orientation:                         
 ---------------------------------------------------------------------
 Center     Atomic     Atomic              Coordinates (Angstroms)
 Number     Number      Type              X           Y           Z
 ---------------------------------------------------------------------
    1          8             0       -1.443936    1.271816   -0.000899
    2         15             0       -2.319851   -0.002774    0.000041
    3          8             0       -1.440717   -1.275164    0.000791
    4         20             0        0.764099   -1.857300   -0.000599
    5          8             0        1.712148    0.002001    0.787061
    6          8             0        1.714308    0.002271   -0.785309
    7         20             0        0.759068    1.859010   -0.000089
 ---------------------------------------------------------------------
 Rotational constants (GHZ):      1.4538498      1.2851823      0.7206271
 Standard basis: 6-31+G(d,p) (6D, 7F)
 There are   153 symmetry adapted basis functions of A   symmetry.
 Integral buffers will be    131072 words long.
 Raffenetti 2 integral format.
 Two-electron integral symmetry is turned on.
   153 basis functions,   344 primitive gaussians,   153 cartesian basis functions
    43 alpha electrons       43 beta electrons
       nuclear repulsion energy       602.1500869369 Hartrees.
 NAtoms=    7 NActive=    7 NUniq=    7 SFac= 7.50D-01 NAtFMM=   80 NAOKFM=F Big=F
 One-electron integrals computed using PRISM.
 NBasis=   153 RedAO= T  NBF=   153
 NBsUse=   153 1.00D-06 NBFU=   153
 Harris functional with IExCor=  402 diagonalized for initial guess.
 ExpMin= 7.10D-03 ExpMax= 3.53D+04 ExpMxC= 5.30D+03 IAcc=3 IRadAn=         5 AccDes= 0.00D+00
 HarFok:  IExCor= 402 AccDes= 0.00D+00 IRadAn=         5 IDoV=1
 ScaDFX=  1.000000  1.000000  1.000000  1.000000
 Initial guess orbital symmetries:
       Occupied  (A) (A) (A) (A) (A) (A) (A) (A) (A) (A) (A) (A)
                 (A) (A) (A) (A) (A) (A) (A) (A) (A) (A) (A) (A)
                 (A) (A) (A) (A) (A) (A) (A) (A) (A) (A) (A) (A)
                 (A) (A) (A) (A) (A) (A) (A)
       Virtual   (A) (A) (A) (A) (A) (A) (A) (A) (A) (A) (A) (A)
                 (A) (A) (A) (A) (A) (A) (A) (A) (A) (A) (A) (A)
                 (A) (A) (A) (A) (A) (A) (A) (A) (A) (A) (A) (A)
                 (A) (A) (A) (A) (A) (A) (A) (A) (A) (A) (A) (A)
                 (A) (A) (A) (A) (A) (A) (A) (A) (A) (A) (A) (A)
                 (A) (A) (A) (A) (A) (A) (A) (A) (A) (A) (A) (A)
                 (A) (A) (A) (A) (A) (A) (A) (A) (A) (A) (A) (A)
                 (A) (A) (A) (A) (A) (A) (A) (A) (A) (A) (A) (A)
                 (A) (A) (A) (A) (A) (A) (A) (A) (A) (A) (A) (A)
                 (A) (A)
 The electronic state of the initial guess is 1-A.
 Requested convergence on RMS density matrix=1.00D-04 within 128 cycles.
 Requested convergence on MAX density matrix=1.00D-02.
 Requested convergence on             energy=1.00D-02.
 No special actions if energy rises.
 SCF Done:  E(RB+HF-LYP) =  -1997.33372438     A.U. after    6 cycles
             Convg  =    0.4427D-04             -V/T =  2.0031
             S**2   =   0.0000

 **********************************************************************

            Population analysis using the SCF density.

 **********************************************************************

 Orbital symmetries:
       Occupied  (A) (A) (A) (A) (A) (A) (A) (A) (A) (A) (A) (A)
                 (A) (A) (A) (A) (A) (A) (A) (A) (A) (A) (A) (A)
                 (A) (A) (A) (A) (A) (A) (A) (A) (A) (A) (A) (A)
                 (A) (A) (A) (A) (A) (A) (A)
       Virtual   (A) (A) (A) (A) (A) (A) (A) (A) (A) (A) (A) (A)
                 (A) (A) (A) (A) (A) (A) (A) (A) (A) (A) (A) (A)
                 (A) (A) (A) (A) (A) (A) (A) (A) (A) (A) (A) (A)
                 (A) (A) (A) (A) (A) (A) (A) (A) (A) (A) (A) (A)
                 (A) (A) (A) (A) (A) (A) (A) (A) (A) (A) (A) (A)
                 (A) (A) (A) (A) (A) (A) (A) (A) (A) (A) (A) (A)
                 (A) (A) (A) (A) (A) (A) (A) (A) (A) (A) (A) (A)
                 (A) (A) (A) (A) (A) (A) (A) (A) (A) (A) (A) (A)
                 (A) (A) (A) (A) (A) (A) (A) (A) (A) (A) (A) (A)
                 (A) (A)
 The electronic state is 1-A.
 Alpha  occ. eigenvalues -- -145.53247-145.53244 -77.30160 -19.27964 -19.27939
 Alpha  occ. eigenvalues --  -19.25625 -19.25549 -15.60094 -15.60091 -12.73309
 Alpha  occ. eigenvalues --  -12.73305 -12.73291 -12.73287 -12.73208 -12.73204
 Alpha  occ. eigenvalues --   -6.75642  -4.92082  -4.91866  -4.91422  -1.97236
 Alpha  occ. eigenvalues --   -1.97209  -1.25765  -1.24805  -1.24792  -1.24725
 Alpha  occ. eigenvalues --   -1.24724  -1.24302  -1.13924  -1.08555  -1.08251
 Alpha  occ. eigenvalues --   -0.89520  -0.67704  -0.57281  -0.52823  -0.52600
 Alpha  occ. eigenvalues --   -0.48993  -0.47945  -0.46120  -0.45762  -0.43901
 Alpha  occ. eigenvalues --   -0.40699  -0.37190  -0.34166
 Alpha virt. eigenvalues --   -0.20456  -0.19851  -0.19631  -0.14480  -0.11367
 Alpha virt. eigenvalues --   -0.11280  -0.10319  -0.09666  -0.09042  -0.07375
 Alpha virt. eigenvalues --   -0.07215  -0.06431  -0.05961  -0.05215  -0.04857
 Alpha virt. eigenvalues --   -0.04431  -0.04389  -0.04082  -0.03999  -0.03873
 Alpha virt. eigenvalues --   -0.03337  -0.02377   0.00222   0.01111   0.02011
 Alpha virt. eigenvalues --    0.02949   0.03326   0.03644   0.04213   0.05048
 Alpha virt. eigenvalues --    0.05146   0.05190   0.06782   0.07028   0.07278
 Alpha virt. eigenvalues --    0.07477   0.08123   0.08218   0.12231   0.13582
 Alpha virt. eigenvalues --    0.14152   0.14769   0.16275   0.16814   0.16922
 Alpha virt. eigenvalues --    0.18689   0.20334   0.21716   0.24408   0.26748
 Alpha virt. eigenvalues --    0.28311   0.29467   0.31799   0.32149   0.32488
 Alpha virt. eigenvalues --    0.36022   0.36752   0.40437   0.43970   0.45544
 Alpha virt. eigenvalues --    0.48015   0.56601   0.57823   0.60213   0.65644
 Alpha virt. eigenvalues --    0.71359   0.87013   0.90195   0.94376   1.03575
 Alpha virt. eigenvalues --    1.05863   1.07985   1.08399   1.12008   1.12334
 Alpha virt. eigenvalues --    1.14815   1.15160   1.17893   1.20707   1.23939
 Alpha virt. eigenvalues --    1.28610   1.38346   1.43005   1.46782   1.50562
 Alpha virt. eigenvalues --    1.50924   1.58070   1.66233   1.68016   1.70618
 Alpha virt. eigenvalues --    1.71272   1.75758   1.80031   1.81216   1.82384
 Alpha virt. eigenvalues --    1.84418   1.85984   1.86058   1.92955   2.09473
 Alpha virt. eigenvalues --    2.16199   2.16965   2.53547   2.67520   3.00301
 Alpha virt. eigenvalues --    3.38474   3.83795   3.90578   3.97507   4.05863
          Condensed to atoms (all electrons):
              1          2          3          4          5          6
     1  O    8.815638  -0.094646  -0.085955   0.002344   0.002556   0.002548
     2  P   -0.094646  14.567260  -0.094291  -0.019090  -0.004373  -0.004402
     3  O   -0.085955  -0.094291   8.814980   0.067447   0.002578   0.002515
     4  Ca   0.002344  -0.019090   0.067447  18.210022   0.105785   0.106144
     5  O    0.002556  -0.004373   0.002578   0.105785   8.516575  -0.059757
     6  O    0.002548  -0.004402   0.002515   0.106144  -0.059757   8.514768
     7  Ca   0.067455  -0.019124   0.002343  -0.016661   0.105864   0.106050
              7
     1  O    0.067455
     2  P   -0.019124
     3  O    0.002343
     4  Ca  -0.016661
     5  O    0.105864
     6  O    0.106050
     7  Ca  18.210098
 Mulliken atomic charges:
              1
     1  O   -0.709941
     2  P    0.668667
     3  O   -0.709616
     4  Ca   1.544009
     5  O   -0.669228
     6  O   -0.667865
     7  Ca   1.543974
 Sum of Mulliken charges=   1.00000
 Atomic charges with hydrogens summed into heavy atoms:
              1
     1  O   -0.709941
     2  P    0.668667
     3  O   -0.709616
     4  Ca   1.544009
     5  O   -0.669228
     6  O   -0.667865
     7  Ca   1.543974
 Sum of Mulliken charges=   1.00000
 Electronic spatial extent (au):  <R**2>=  1378.2323
 Charge=     1.0000 electrons
 Dipole moment (field-independent basis, Debye):
    X=     3.1420    Y=    -0.0005    Z=    -0.0156  Tot=     3.1420
 Quadrupole moment (field-independent basis, Debye-Ang):
   XX=   -66.5036   YY=    -8.8826   ZZ=   -58.2533
   XY=    -0.0751   XZ=    -0.0194   YZ=     0.0165
 Traceless Quadrupole moment (field-independent basis, Debye-Ang):
   XX=   -21.9571   YY=    35.6639   ZZ=   -13.7068
   XY=    -0.0751   XZ=    -0.0194   YZ=     0.0165
 Octapole moment (field-independent basis, Debye-Ang**2):
  XXX=    -6.9125  YYY=     0.2378  ZZZ=    -0.0298  XYY=    70.8641
  XXY=    -0.2022  XXZ=    -0.0200  XZZ=    -1.4156  YZZ=    -0.0021
  YYZ=    -0.0209  XYZ=    -0.0040
 Hexadecapole moment (field-independent basis, Debye-Ang**3):
 XXXX=  -942.8473 YYYY=  -329.5363 ZZZZ=  -103.9569 XXXY=    -0.3176
 XXXZ=    -0.0105 YYYX=    -0.4019 YYYZ=     0.0655 ZZZX=    -0.0459
 ZZZY=     0.0244 XXYY=  -220.7158 XXZZ=  -174.4710 YYZZ=  -103.3825
 XXYZ=     0.0286 YYXZ=    -0.0156 ZZXY=    -0.0772
 N-N= 6.021500869369D+02 E-N=-5.923734730446D+03  KE= 1.991110717051D+03
 Merz-Kollman atomic radii used.
 Read replacement radii for each type of atom:
 Rad(20) =   1.188000000000D+00
 Atom Element Radius
    1     8    1.40
    2    15    1.80
    3     8    1.40
    4    20    1.19
    5     8    1.40
    6     8    1.40
    7    20    1.19

 **********************************************************************

            Electrostatic Properties Using The SCF Density

 **********************************************************************

       Atomic Center    1 is at  -1.443936  1.271816 -0.000899
       Atomic Center    2 is at  -2.319851 -0.002774  0.000041
       Atomic Center    3 is at  -1.440717 -1.275164  0.000791
       Atomic Center    4 is at   0.764099 -1.857300 -0.000599
       Atomic Center    5 is at   1.712148  0.002001  0.787061
       Atomic Center    6 is at   1.714308  0.002271 -0.785309
       Atomic Center    7 is at   0.759068  1.859010 -0.000089
     712 points will be used for fitting atomic charges
 Fitting point charges to eletrostatic potential
 Charges from ESP fit, RMS=   0.00428 RRMS=   0.02804:
 Charge=   1.00000 Dipole=     2.9955    -0.0006    -0.0158 Tot=     2.9956
              1
     1  O   -0.751949
     2  P    0.633824
     3  O   -0.751564
     4  Ca   1.722139
     5  O   -0.787829
     6  O   -0.786768
     7  Ca   1.722147
 -----------------------------------------------------------------

              Electrostatic Properties (Atomic Units)

 -----------------------------------------------------------------
    Center     Electric         -------- Electric Field --------
               Potential          X             Y             Z
 -----------------------------------------------------------------
    1 Atom    -22.184464
    2 Atom    -53.916364
    3 Atom    -22.183784
    4 Atom    -80.007923
    5 Atom    -22.215219
    6 Atom    -22.212852
    7 Atom    -80.008003
 -----------------------------------------------------------------
 1\1\GINC-N030\SP\RB3LYP\6-31+G(d,p)\Ca2O4P1(1+)\TIMN\12-Jun-2015\0\\# 
 b3lyp/6-31+G(d,p) int=ultrafine pop=(ReadRadii,MK)\\mol_16.4.8.pdbc_pl
 usQ.out.z51613.zip.xyz\\1,1\O,0,-1.44392,1.27183,-0.0009\P,0,-2.31985,
 -0.00275,0.00004\O,0,-1.44073,-1.27515,0.00079\Ca,0,0.76408,-1.85731,-
 0.0006\O,0,1.71215,0.00198,0.78706\O,0,1.71431,0.00225,-0.78531\Ca,0,0
 .75909,1.859,-0.00009\\Version=EM64T-G03RevE.01\State=1-A\HF=-1997.333
 7244\RMSD=4.427e-05\Thermal=0.\Dipole=1.2361482,-0.0002169,-0.0061273\
 PG=C01 [X(Ca2O4P1)]\\@


 WHAT, THEN, IS TIME?  IF NO ONE ASKS ME, I KNOW WHAT IT IS.
 IF I WISH TO EXPLAIN WHAT IT IS TO HIM WHO ASKS ME, I DO NOT KNOW.
                                   -- ST. AUGUSTINE (FIFTH CENTURY)
 Job cpu time:  0 days  0 hours  0 minutes 44.1 seconds.
 File lengths (MBytes):  RWF=     28 Int=      0 D2E=      0 Chk=     10 Scr=      1
 Normal termination of Gaussian 03 at Fri Jun 12 17:48:59 2015.
