 Entering Gaussian System, Link 0=/home/timn/tmp/g03.e01/g03
 Input=mol_17.27.45.pdbcccc_plusQ.z58511.zip.xyz.gjf
 Output=mol_17.27.45.pdbcccc_plusQ.z58511.zip.xyz.out
 Initial command:
 /home/timn/tmp/g03.e01/l1.exe /home/timn/tmp/g03.e01/Gau-14551.inp -scrdir=/home/timn/tmp/g03.e01/
 Default is to use a total of   2 processors:
                                2 via shared-memory
                                1 via Linda
 Entering Link 1 = /home/timn/tmp/g03.e01/l1.exe PID=     14552.
  
 Copyright (c) 1988,1990,1992,1993,1995,1998,2003,2004,2007, Gaussian, Inc.
                  All Rights Reserved.
  
 This is the Gaussian(R) 03 program.  It is based on the
 the Gaussian(R) 98 system (copyright 1998, Gaussian, Inc.),
 the Gaussian(R) 94 system (copyright 1995, Gaussian, Inc.),
 the Gaussian 92(TM) system (copyright 1992, Gaussian, Inc.),
 the Gaussian 90(TM) system (copyright 1990, Gaussian, Inc.),
 the Gaussian 88(TM) system (copyright 1988, Gaussian, Inc.),
 the Gaussian 86(TM) system (copyright 1986, Carnegie Mellon
 University), and the Gaussian 82(TM) system (copyright 1983,
 Carnegie Mellon University). Gaussian is a federally registered
 trademark of Gaussian, Inc.
  
 This software contains proprietary and confidential information,
 including trade secrets, belonging to Gaussian, Inc.
  
 This software is provided under written license and may be
 used, copied, transmitted, or stored only in accord with that
 written license.
  
 The following legend is applicable only to US Government
 contracts under FAR:
  
                    RESTRICTED RIGHTS LEGEND
  
 Use, reproduction and disclosure by the US Government is
 subject to restrictions as set forth in subparagraphs (a)
 and (c) of the Commercial Computer Software - Restricted
 Rights clause in FAR 52.227-19.
  
 Gaussian, Inc.
 340 Quinnipiac St., Bldg. 40, Wallingford CT 06492
  
  
 ---------------------------------------------------------------
 Warning -- This program may not be used in any manner that
 competes with the business of Gaussian, Inc. or will provide
 assistance to any competitor of Gaussian, Inc.  The licensee
 of this program is prohibited from giving any competitor of
 Gaussian, Inc. access to this program.  By using this program,
 the user acknowledges that Gaussian, Inc. is engaged in the
 business of creating and licensing software in the field of
 computational chemistry and represents and warrants to the
 licensee that it is not a competitor of Gaussian, Inc. and that
 it will not use this program in any manner prohibited above.
 ---------------------------------------------------------------
  

 Cite this work as:
 Gaussian 03, Revision E.01,
 M. J. Frisch, G. W. Trucks, H. B. Schlegel, G. E. Scuseria, 
 M. A. Robb, J. R. Cheeseman, J. A. Montgomery, Jr., T. Vreven, 
 K. N. Kudin, J. C. Burant, J. M. Millam, S. S. Iyengar, J. Tomasi, 
 V. Barone, B. Mennucci, M. Cossi, G. Scalmani, N. Rega, 
 G. A. Petersson, H. Nakatsuji, M. Hada, M. Ehara, K. Toyota, 
 R. Fukuda, J. Hasegawa, M. Ishida, T. Nakajima, Y. Honda, O. Kitao, 
 H. Nakai, M. Klene, X. Li, J. E. Knox, H. P. Hratchian, J. B. Cross, 
 V. Bakken, C. Adamo, J. Jaramillo, R. Gomperts, R. E. Stratmann, 
 O. Yazyev, A. J. Austin, R. Cammi, C. Pomelli, J. W. Ochterski, 
 P. Y. Ayala, K. Morokuma, G. A. Voth, P. Salvador, J. J. Dannenberg, 
 V. G. Zakrzewski, S. Dapprich, A. D. Daniels, M. C. Strain, 
 O. Farkas, D. K. Malick, A. D. Rabuck, K. Raghavachari, 
 J. B. Foresman, J. V. Ortiz, Q. Cui, A. G. Baboul, S. Clifford, 
 J. Cioslowski, B. B. Stefanov, G. Liu, A. Liashenko, P. Piskorz, 
 I. Komaromi, R. L. Martin, D. J. Fox, T. Keith, M. A. Al-Laham, 
 C. Y. Peng, A. Nanayakkara, M. Challacombe, P. M. W. Gill, 
 B. Johnson, W. Chen, M. W. Wong, C. Gonzalez, and J. A. Pople, 
 Gaussian, Inc., Wallingford CT, 2004.
 
 ******************************************
 Gaussian 03:  EM64T-G03RevE.01 11-Sep-2007
                12-Jun-2015 
 ******************************************
 %nproc=2
 Will use up to    2 processors via shared memory.
 Default route:  MP2=Direct MaxDisk=2000MB
 ----------------------------------------------------
 # b3lyp/6-31+G(d,p) int=ultrafine pop=(ReadRadii,MK)
 ----------------------------------------------------

 Warning!  SCF SP cutoffs with diffuse functions may be unreliable.
 Consider SCF=Tight

 1/38=1/1;
 2/17=6,18=5,40=1/2;
 3/5=1,6=6,7=111,11=2,16=1,25=1,30=1,74=-5,75=5/1,2,3;
 4//1;
 5/5=2,32=1,38=5/2;
 6/7=2,8=2,9=2,10=2,15=8,20=101,28=1/1,2;
 99/5=1,9=1/99;
 -----------------------------------------
 mol_17.27.45.pdbcccc_plusQ.z58511.zip.xyz
 -----------------------------------------
 Symbolic Z-matrix:
 Charge =  1 Multiplicity = 1
 O                    -0.86696   2.31353  -0.00231 
 P                     3.15857  -0.98772  -0.00066 
 Ca                    1.22615   2.32026   0.00081 
 O                     1.95712   0.08735   0.00043 
 Ca                    0.33904  -1.78294  -0.00104 
 O                    -1.48113  -1.04723  -1.20105 
 O                    -2.05328  -1.72777   0.00401 
 O                    -1.47673  -1.04279   1.20294 
 Ca                   -2.36573   0.77024  -0.00088 
 
                          Input orientation:                          
 ---------------------------------------------------------------------
 Center     Atomic     Atomic              Coordinates (Angstroms)
 Number     Number      Type              X           Y           Z
 ---------------------------------------------------------------------
    1          8             0       -0.866960    2.313530   -0.002310
    2         15             0        3.158570   -0.987720   -0.000660
    3         20             0        1.226150    2.320260    0.000810
    4          8             0        1.957120    0.087350    0.000430
    5         20             0        0.339040   -1.782940   -0.001040
    6          8             0       -1.481130   -1.047230   -1.201050
    7          8             0       -2.053280   -1.727770    0.004010
    8          8             0       -1.476730   -1.042790    1.202940
    9         20             0       -2.365730    0.770240   -0.000880
 ---------------------------------------------------------------------
                    Distance matrix (angstroms):
                    1          2          3          4          5
     1  O    0.000000
     2  P    5.206068   0.000000
     3  Ca   2.093123   3.831055   0.000000
     4  O    3.596013   1.612222   2.349512   0.000000
     5  Ca   4.270305   2.929526   4.198002   2.473089   0.000000
     6  O    3.620620   4.792838   4.484844   3.814759   2.300937
     7  O    4.211829   5.264131   5.209723   4.402043   2.392961
     8  O    3.617918   4.789331   4.478926   3.809800   2.300959
     9  Ca   2.151292   5.797268   3.912054   4.376457   3.719477
                    6          7          8          9
     6  O    0.000000
     7  O    1.497551   0.000000
     8  O    2.403998   1.496342   0.000000
     9  Ca   2.350771   2.517479   2.350868   0.000000
 Stoichiometry    Ca3O5P(1+)
 Framework group  C1[X(Ca3O5P)]
 Deg. of freedom    21
 Full point group                 C1
 Largest Abelian subgroup         C1      NOp   1
 Largest concise Abelian subgroup C1      NOp   1
                         Standard orientation:                         
 ---------------------------------------------------------------------
 Center     Atomic     Atomic              Coordinates (Angstroms)
 Number     Number      Type              X           Y           Z
 ---------------------------------------------------------------------
    1          8             0       -0.866956    2.313530   -0.002311
    2         15             0        3.158569   -0.987725   -0.000661
    3         20             0        1.226154    2.320257    0.000809
    4          8             0        1.957121    0.087346    0.000429
    5         20             0        0.339038   -1.782942   -0.001041
    6          8             0       -1.481131   -1.047229   -1.201051
    7          8             0       -2.053282   -1.727768    0.004009
    8          8             0       -1.476731   -1.042789    1.202939
    9         20             0       -2.365728    0.770242   -0.000881
 ---------------------------------------------------------------------
 Rotational constants (GHZ):      0.8275441      0.5916048      0.3682151
 Standard basis: 6-31+G(d,p) (6D, 7F)
 There are   199 symmetry adapted basis functions of A   symmetry.
 Integral buffers will be    131072 words long.
 Raffenetti 2 integral format.
 Two-electron integral symmetry is turned on.
   199 basis functions,   456 primitive gaussians,   199 cartesian basis functions
    57 alpha electrons       57 beta electrons
       nuclear repulsion energy       953.5090039965 Hartrees.
 NAtoms=    9 NActive=    9 NUniq=    9 SFac= 7.50D-01 NAtFMM=   80 NAOKFM=F Big=F
 One-electron integrals computed using PRISM.
 NBasis=   199 RedAO= T  NBF=   199
 NBsUse=   199 1.00D-06 NBFU=   199
 Harris functional with IExCor=  402 diagonalized for initial guess.
 ExpMin= 7.10D-03 ExpMax= 3.53D+04 ExpMxC= 5.30D+03 IAcc=3 IRadAn=         5 AccDes= 0.00D+00
 HarFok:  IExCor= 402 AccDes= 0.00D+00 IRadAn=         5 IDoV=1
 ScaDFX=  1.000000  1.000000  1.000000  1.000000
 Initial guess orbital symmetries:
       Occupied  (A) (A) (A) (A) (A) (A) (A) (A) (A) (A) (A) (A)
                 (A) (A) (A) (A) (A) (A) (A) (A) (A) (A) (A) (A)
                 (A) (A) (A) (A) (A) (A) (A) (A) (A) (A) (A) (A)
                 (A) (A) (A) (A) (A) (A) (A) (A) (A) (A) (A) (A)
                 (A) (A) (A) (A) (A) (A) (A) (A) (A)
       Virtual   (A) (A) (A) (A) (A) (A) (A) (A) (A) (A) (A) (A)
                 (A) (A) (A) (A) (A) (A) (A) (A) (A) (A) (A) (A)
                 (A) (A) (A) (A) (A) (A) (A) (A) (A) (A) (A) (A)
                 (A) (A) (A) (A) (A) (A) (A) (A) (A) (A) (A) (A)
                 (A) (A) (A) (A) (A) (A) (A) (A) (A) (A) (A) (A)
                 (A) (A) (A) (A) (A) (A) (A) (A) (A) (A) (A) (A)
                 (A) (A) (A) (A) (A) (A) (A) (A) (A) (A) (A) (A)
                 (A) (A) (A) (A) (A) (A) (A) (A) (A) (A) (A) (A)
                 (A) (A) (A) (A) (A) (A) (A) (A) (A) (A) (A) (A)
                 (A) (A) (A) (A) (A) (A) (A) (A) (A) (A) (A) (A)
                 (A) (A) (A) (A) (A) (A) (A) (A) (A) (A) (A) (A)
                 (A) (A) (A) (A) (A) (A) (A) (A) (A) (A)
 The electronic state of the initial guess is 1-A.
 Requested convergence on RMS density matrix=1.00D-04 within 128 cycles.
 Requested convergence on MAX density matrix=1.00D-02.
 Requested convergence on             energy=1.00D-02.
 No special actions if energy rises.
 EnCoef did     9 forward-backward iterations
 EnCoef did   100 forward-backward iterations
 EnCoef did     2 forward-backward iterations
 SCF Done:  E(RB+HF-LYP) =  -2750.00572177     A.U. after    9 cycles
             Convg  =    0.6991D-04             -V/T =  2.0029
             S**2   =   0.0000

 **********************************************************************

            Population analysis using the SCF density.

 **********************************************************************

 Orbital symmetries:
       Occupied  (A) (A) (A) (A) (A) (A) (A) (A) (A) (A) (A) (A)
                 (A) (A) (A) (A) (A) (A) (A) (A) (A) (A) (A) (A)
                 (A) (A) (A) (A) (A) (A) (A) (A) (A) (A) (A) (A)
                 (A) (A) (A) (A) (A) (A) (A) (A) (A) (A) (A) (A)
                 (A) (A) (A) (A) (A) (A) (A) (A) (A)
       Virtual   (A) (A) (A) (A) (A) (A) (A) (A) (A) (A) (A) (A)
                 (A) (A) (A) (A) (A) (A) (A) (A) (A) (A) (A) (A)
                 (A) (A) (A) (A) (A) (A) (A) (A) (A) (A) (A) (A)
                 (A) (A) (A) (A) (A) (A) (A) (A) (A) (A) (A) (A)
                 (A) (A) (A) (A) (A) (A) (A) (A) (A) (A) (A) (A)
                 (A) (A) (A) (A) (A) (A) (A) (A) (A) (A) (A) (A)
                 (A) (A) (A) (A) (A) (A) (A) (A) (A) (A) (A) (A)
                 (A) (A) (A) (A) (A) (A) (A) (A) (A) (A) (A) (A)
                 (A) (A) (A) (A) (A) (A) (A) (A) (A) (A) (A) (A)
                 (A) (A) (A) (A) (A) (A) (A) (A) (A) (A) (A) (A)
                 (A) (A) (A) (A) (A) (A) (A) (A) (A) (A) (A) (A)
                 (A) (A) (A) (A) (A) (A) (A) (A) (A) (A)
 The electronic state is 1-A.
 Alpha  occ. eigenvalues -- -145.51939-145.50682-145.46430 -77.26358 -19.36119
 Alpha  occ. eigenvalues --  -19.31674 -19.26544 -19.26538 -19.13769 -15.58783
 Alpha  occ. eigenvalues --  -15.57517 -15.53293 -12.72033 -12.71980 -12.71846
 Alpha  occ. eigenvalues --  -12.70741 -12.70729 -12.70619 -12.66513 -12.66501
 Alpha  occ. eigenvalues --  -12.66377  -6.72695  -4.89462  -4.88937  -4.87935
 Alpha  occ. eigenvalues --   -1.95919  -1.94693  -1.90581  -1.25078  -1.23720
 Alpha  occ. eigenvalues --   -1.23590  -1.22782  -1.22424  -1.22283  -1.19910
 Alpha  occ. eigenvalues --   -1.18225  -1.18007  -1.16262  -1.12505  -1.02325
 Alpha  occ. eigenvalues --   -0.87907  -0.87093  -0.69268  -0.56374  -0.54782
 Alpha  occ. eigenvalues --   -0.54236  -0.52921  -0.51848  -0.51436  -0.42536
 Alpha  occ. eigenvalues --   -0.40388  -0.38158  -0.34942  -0.34145  -0.32114
 Alpha  occ. eigenvalues --   -0.32016  -0.31527
 Alpha virt. eigenvalues --   -0.25940  -0.20482  -0.16642  -0.15029  -0.13102
 Alpha virt. eigenvalues --   -0.12645  -0.12033  -0.10726  -0.10202  -0.09024
 Alpha virt. eigenvalues --   -0.08311  -0.07326  -0.06601  -0.06377  -0.06206
 Alpha virt. eigenvalues --   -0.05401  -0.05040  -0.04963  -0.04687  -0.04348
 Alpha virt. eigenvalues --   -0.04308  -0.04019  -0.03851  -0.03783  -0.03248
 Alpha virt. eigenvalues --   -0.02971  -0.02628  -0.02590  -0.02482  -0.01959
 Alpha virt. eigenvalues --    0.00773   0.01185   0.01259   0.01699   0.03334
 Alpha virt. eigenvalues --    0.03747   0.03993   0.04673   0.04942   0.05933
 Alpha virt. eigenvalues --    0.07234   0.07805   0.07883   0.08325   0.08754
 Alpha virt. eigenvalues --    0.08895   0.09765   0.09984   0.10733   0.11150
 Alpha virt. eigenvalues --    0.11750   0.12634   0.14902   0.14990   0.15741
 Alpha virt. eigenvalues --    0.16340   0.16777   0.17686   0.18845   0.19437
 Alpha virt. eigenvalues --    0.20460   0.20755   0.22583   0.24404   0.26242
 Alpha virt. eigenvalues --    0.27156   0.27935   0.28417   0.29902   0.32095
 Alpha virt. eigenvalues --    0.32518   0.34141   0.34903   0.35670   0.36595
 Alpha virt. eigenvalues --    0.37731   0.38281   0.41020   0.47275   0.49348
 Alpha virt. eigenvalues --    0.50767   0.53216   0.55288   0.57339   0.65811
 Alpha virt. eigenvalues --    0.68261   0.70721   0.76457   0.86363   0.92033
 Alpha virt. eigenvalues --    0.98669   1.03957   1.07859   1.11048   1.11915
 Alpha virt. eigenvalues --    1.12372   1.12931   1.14243   1.15502   1.16949
 Alpha virt. eigenvalues --    1.20837   1.21928   1.22902   1.24345   1.26846
 Alpha virt. eigenvalues --    1.29971   1.39830   1.40904   1.43549   1.47689
 Alpha virt. eigenvalues --    1.51517   1.58629   1.63055   1.64324   1.70765
 Alpha virt. eigenvalues --    1.73137   1.74660   1.77788   1.80891   1.81608
 Alpha virt. eigenvalues --    1.83838   1.84070   1.84509   1.84761   1.85089
 Alpha virt. eigenvalues --    1.89409   1.90353   1.96241   1.98185   2.01286
 Alpha virt. eigenvalues --    2.22613   2.22865   2.44297   2.46504   3.05215
 Alpha virt. eigenvalues --    3.06787   3.36735   3.83886   3.96579   4.06171
 Alpha virt. eigenvalues --    4.06960   4.31364
          Condensed to atoms (all electrons):
              1          2          3          4          5          6
     1  O    8.790100  -0.001839   0.235050   0.007537   0.013310   0.006651
     2  P   -0.001839  15.151268  -0.008875  -0.385454   0.183021  -0.005734
     3  Ca   0.235050  -0.008875  18.267648   0.038093   0.002687   0.007575
     4  O    0.007537  -0.385454   0.038093   9.076509  -0.040584   0.004040
     5  Ca   0.013310   0.183021   0.002687  -0.040584  18.332511   0.092499
     6  O    0.006651  -0.005734   0.007575   0.004040   0.092499   8.410407
     7  O   -0.005441   0.006874  -0.004683  -0.003370   0.034105   0.040303
     8  O    0.006668  -0.005748   0.007615   0.004089   0.092272   0.008625
     9  Ca   0.166404   0.004009  -0.009727   0.002855  -0.028476   0.069852
              7          8          9
     1  O   -0.005441   0.006668   0.166404
     2  P    0.006874  -0.005748   0.004009
     3  Ca  -0.004683   0.007615  -0.009727
     4  O   -0.003370   0.004089   0.002855
     5  Ca   0.034105   0.092272  -0.028476
     6  O    0.040303   0.008625   0.069852
     7  O    7.949982   0.040501   0.019582
     8  O    0.040501   8.410272   0.069788
     9  Ca   0.019582   0.069788  18.283157
 Mulliken atomic charges:
              1
     1  O   -1.218440
     2  P    0.062478
     3  Ca   1.464616
     4  O   -0.703715
     5  Ca   1.318655
     6  O   -0.634216
     7  O   -0.077853
     8  O   -0.634082
     9  Ca   1.422557
 Sum of Mulliken charges=   1.00000
 Atomic charges with hydrogens summed into heavy atoms:
              1
     1  O   -1.218440
     2  P    0.062478
     3  Ca   1.464616
     4  O   -0.703715
     5  Ca   1.318655
     6  O   -0.634216
     7  O   -0.077853
     8  O   -0.634082
     9  Ca   1.422557
 Sum of Mulliken charges=   1.00000
 Electronic spatial extent (au):  <R**2>=  2655.0596
 Charge=     1.0000 electrons
 Dipole moment (field-independent basis, Debye):
    X=     4.3831    Y=     3.0758    Z=     0.0014  Tot=     5.3547
 Quadrupole moment (field-independent basis, Debye-Ang):
   XX=   -50.7374   YY=   -54.7606   ZZ=   -82.1296
   XY=     5.2826   XZ=     0.0015   YZ=     0.0440
 Traceless Quadrupole moment (field-independent basis, Debye-Ang):
   XX=    11.8051   YY=     7.7819   ZZ=   -19.5870
   XY=     5.2826   XZ=     0.0015   YZ=     0.0440
 Octapole moment (field-independent basis, Debye-Ang**2):
  XXX=  -119.9471  YYY=     8.3012  ZZZ=    -0.0175  XYY=    81.1204
  XXY=    69.2621  XXZ=     0.0135  XZZ=    12.2256  YZZ=    12.7787
  YYZ=     0.1327  XYZ=     0.0253
 Hexadecapole moment (field-independent basis, Debye-Ang**3):
 XXXX= -1628.9707 YYYY= -1066.5824 ZZZZ=  -206.9257 XXXY=   -71.2235
 XXXZ=     0.0077 YYYX=   233.3724 YYYZ=     0.3018 ZZZX=     0.0396
 ZZZY=     0.0865 XXYY=  -442.5424 XXZZ=  -324.5680 YYZZ=  -234.4750
 XXYZ=    -0.0630 YYXZ=    -0.0391 ZZXY=    -3.1333
 N-N= 9.535090039965D+02 E-N=-8.407227630068D+03  KE= 2.742171631021D+03
 Merz-Kollman atomic radii used.
 Read replacement radii for each type of atom:
 Rad(20) =   1.188000000000D+00
 Atom Element Radius
    1     8    1.40
    2    15    1.80
    3    20    1.19
    4     8    1.40
    5    20    1.19
    6     8    1.40
    7     8    1.40
    8     8    1.40
    9    20    1.19

 **********************************************************************

            Electrostatic Properties Using The SCF Density

 **********************************************************************

       Atomic Center    1 is at  -0.866956  2.313530 -0.002311
       Atomic Center    2 is at   3.158569 -0.987725 -0.000661
       Atomic Center    3 is at   1.226154  2.320257  0.000809
       Atomic Center    4 is at   1.957121  0.087346  0.000429
       Atomic Center    5 is at   0.339038 -1.782942 -0.001041
       Atomic Center    6 is at  -1.481131 -1.047229 -1.201051
       Atomic Center    7 is at  -2.053282 -1.727768  0.004009
       Atomic Center    8 is at  -1.476731 -1.042789  1.202939
       Atomic Center    9 is at  -2.365728  0.770242 -0.000881
     913 points will be used for fitting atomic charges
 Fitting point charges to eletrostatic potential
 Charges from ESP fit, RMS=   0.00817 RRMS=   0.05591:
 Charge=   1.00000 Dipole=     4.3498     2.9785     0.0036 Tot=     5.2718
              1
     1  O   -1.576413
     2  P    0.005365
     3  Ca   1.679697
     4  O   -0.696299
     5  Ca   1.450164
     6  O   -0.740466
     7  O   -0.091524
     8  O   -0.739771
     9  Ca   1.709247
 -----------------------------------------------------------------

              Electrostatic Properties (Atomic Units)

 -----------------------------------------------------------------
    Center     Electric         -------- Electric Field --------
               Potential          X             Y             Z
 -----------------------------------------------------------------
    1 Atom    -22.345261
    2 Atom    -53.945681
    3 Atom    -80.024405
    4 Atom    -22.149157
    5 Atom    -80.033284
    6 Atom    -22.206677
    7 Atom    -22.125990
    8 Atom    -22.206748
    9 Atom    -80.079995
 -----------------------------------------------------------------
 1\1\GINC-N032\SP\RB3LYP\6-31+G(d,p)\Ca3O5P1(1+)\TIMN\12-Jun-2015\0\\# 
 b3lyp/6-31+G(d,p) int=ultrafine pop=(ReadRadii,MK)\\mol_17.27.45.pdbcc
 cc_plusQ.z58511.zip.xyz\\1,1\O,0,-0.86696,2.31353,-0.00231\P,0,3.15857
 ,-0.98772,-0.00066\Ca,0,1.22615,2.32026,0.00081\O,0,1.95712,0.08735,0.
 00043\Ca,0,0.33904,-1.78294,-0.00104\O,0,-1.48113,-1.04723,-1.20105\O,
 0,-2.05328,-1.72777,0.00401\O,0,-1.47673,-1.04279,1.20294\Ca,0,-2.3657
 3,0.77024,-0.00088\\Version=EM64T-G03RevE.01\State=1-A\HF=-2750.005721
 8\RMSD=6.991e-05\Thermal=0.\Dipole=1.7244592,1.2101129,0.0005555\PG=C0
 1 [X(Ca3O5P1)]\\@


 THERE ARE PEOPLE SO ADDICTED TO EXAGERATING THEY
 CAN'T TELL THE TRUTH WITHOUT LYING. -- FORTUNE COOKIE
 Job cpu time:  0 days  0 hours  2 minutes 10.1 seconds.
 File lengths (MBytes):  RWF=     36 Int=      0 D2E=      0 Chk=     11 Scr=      1
 Normal termination of Gaussian 03 at Fri Jun 12 18:06:45 2015.
