 Entering Gaussian System, Link 0=/home/timn/tmp/g03.e01/g03
 Input=mol_17.25.47.pdbc_plusQ.z58352.zip.xyz.gjf
 Output=mol_17.25.47.pdbc_plusQ.z58352.zip.xyz.out
 Initial command:
 /home/timn/tmp/g03.e01/l1.exe /home/timn/tmp/g03.e01/Gau-18454.inp -scrdir=/home/timn/tmp/g03.e01/
 Default is to use a total of   2 processors:
                                2 via shared-memory
                                1 via Linda
 Entering Link 1 = /home/timn/tmp/g03.e01/l1.exe PID=     18455.
  
 Copyright (c) 1988,1990,1992,1993,1995,1998,2003,2004,2007, Gaussian, Inc.
                  All Rights Reserved.
  
 This is the Gaussian(R) 03 program.  It is based on the
 the Gaussian(R) 98 system (copyright 1998, Gaussian, Inc.),
 the Gaussian(R) 94 system (copyright 1995, Gaussian, Inc.),
 the Gaussian 92(TM) system (copyright 1992, Gaussian, Inc.),
 the Gaussian 90(TM) system (copyright 1990, Gaussian, Inc.),
 the Gaussian 88(TM) system (copyright 1988, Gaussian, Inc.),
 the Gaussian 86(TM) system (copyright 1986, Carnegie Mellon
 University), and the Gaussian 82(TM) system (copyright 1983,
 Carnegie Mellon University). Gaussian is a federally registered
 trademark of Gaussian, Inc.
  
 This software contains proprietary and confidential information,
 including trade secrets, belonging to Gaussian, Inc.
  
 This software is provided under written license and may be
 used, copied, transmitted, or stored only in accord with that
 written license.
  
 The following legend is applicable only to US Government
 contracts under FAR:
  
                    RESTRICTED RIGHTS LEGEND
  
 Use, reproduction and disclosure by the US Government is
 subject to restrictions as set forth in subparagraphs (a)
 and (c) of the Commercial Computer Software - Restricted
 Rights clause in FAR 52.227-19.
  
 Gaussian, Inc.
 340 Quinnipiac St., Bldg. 40, Wallingford CT 06492
  
  
 ---------------------------------------------------------------
 Warning -- This program may not be used in any manner that
 competes with the business of Gaussian, Inc. or will provide
 assistance to any competitor of Gaussian, Inc.  The licensee
 of this program is prohibited from giving any competitor of
 Gaussian, Inc. access to this program.  By using this program,
 the user acknowledges that Gaussian, Inc. is engaged in the
 business of creating and licensing software in the field of
 computational chemistry and represents and warrants to the
 licensee that it is not a competitor of Gaussian, Inc. and that
 it will not use this program in any manner prohibited above.
 ---------------------------------------------------------------
  

 Cite this work as:
 Gaussian 03, Revision E.01,
 M. J. Frisch, G. W. Trucks, H. B. Schlegel, G. E. Scuseria, 
 M. A. Robb, J. R. Cheeseman, J. A. Montgomery, Jr., T. Vreven, 
 K. N. Kudin, J. C. Burant, J. M. Millam, S. S. Iyengar, J. Tomasi, 
 V. Barone, B. Mennucci, M. Cossi, G. Scalmani, N. Rega, 
 G. A. Petersson, H. Nakatsuji, M. Hada, M. Ehara, K. Toyota, 
 R. Fukuda, J. Hasegawa, M. Ishida, T. Nakajima, Y. Honda, O. Kitao, 
 H. Nakai, M. Klene, X. Li, J. E. Knox, H. P. Hratchian, J. B. Cross, 
 V. Bakken, C. Adamo, J. Jaramillo, R. Gomperts, R. E. Stratmann, 
 O. Yazyev, A. J. Austin, R. Cammi, C. Pomelli, J. W. Ochterski, 
 P. Y. Ayala, K. Morokuma, G. A. Voth, P. Salvador, J. J. Dannenberg, 
 V. G. Zakrzewski, S. Dapprich, A. D. Daniels, M. C. Strain, 
 O. Farkas, D. K. Malick, A. D. Rabuck, K. Raghavachari, 
 J. B. Foresman, J. V. Ortiz, Q. Cui, A. G. Baboul, S. Clifford, 
 J. Cioslowski, B. B. Stefanov, G. Liu, A. Liashenko, P. Piskorz, 
 I. Komaromi, R. L. Martin, D. J. Fox, T. Keith, M. A. Al-Laham, 
 C. Y. Peng, A. Nanayakkara, M. Challacombe, P. M. W. Gill, 
 B. Johnson, W. Chen, M. W. Wong, C. Gonzalez, and J. A. Pople, 
 Gaussian, Inc., Wallingford CT, 2004.
 
 ******************************************
 Gaussian 03:  EM64T-G03RevE.01 11-Sep-2007
                12-Jun-2015 
 ******************************************
 %nproc=2
 Will use up to    2 processors via shared memory.
 Default route:  MP2=Direct MaxDisk=2000MB
 ----------------------------------------------------
 # b3lyp/6-31+G(d,p) int=ultrafine pop=(ReadRadii,MK)
 ----------------------------------------------------

 Warning!  SCF SP cutoffs with diffuse functions may be unreliable.
 Consider SCF=Tight

 1/38=1/1;
 2/17=6,18=5,40=1/2;
 3/5=1,6=6,7=111,11=2,16=1,25=1,30=1,74=-5,75=5/1,2,3;
 4//1;
 5/5=2,32=1,38=5/2;
 6/7=2,8=2,9=2,10=2,15=8,20=101,28=1/1,2;
 99/5=1,9=1/99;
 --------------------------------------
 mol_17.25.47.pdbc_plusQ.z58352.zip.xyz
 --------------------------------------
 Symbolic Z-matrix:
 Charge =  1 Multiplicity = 1
 O                     1.95321  -1.099     0.82844 
 O                    -0.52258  -0.17131   1.30299 
 P                     0.57437  -0.60114   0.27993 
 O                    -2.81158   0.81896  -0.55363 
 O                    -0.07244  -1.56303  -0.7365 
 O                     1.00652   0.83434  -0.44317 
 Ca                   -2.31811  -1.23229  -0.17655 
 Ca                    3.1831    0.27264  -0.3687 
 Ca                   -1.11702   1.88252   0.17606 
 
                          Input orientation:                          
 ---------------------------------------------------------------------
 Center     Atomic     Atomic              Coordinates (Angstroms)
 Number     Number      Type              X           Y           Z
 ---------------------------------------------------------------------
    1          8             0        1.953210   -1.099000    0.828440
    2          8             0       -0.522580   -0.171310    1.302990
    3         15             0        0.574370   -0.601140    0.279930
    4          8             0       -2.811580    0.818960   -0.553630
    5          8             0       -0.072440   -1.563030   -0.736500
    6          8             0        1.006520    0.834340   -0.443170
    7         20             0       -2.318110   -1.232290   -0.176550
    8         20             0        3.183100    0.272640   -0.368700
    9         20             0       -1.117020    1.882520    0.176060
 ---------------------------------------------------------------------
                    Distance matrix (angstroms):
                    1          2          3          4          5
     1  O    0.000000
     2  O    2.686139   0.000000
     3  P    1.565224   1.560354   0.000000
     4  O    5.319014   3.109211   3.765125   0.000000
     5  O    2.601465   2.509787   1.541663   3.634585   0.000000
     6  O    2.500203   2.529536   1.664401   3.819728   2.645294
     7  Ca   4.389982   2.557077   2.995524   2.143205   2.337941
     8  Ca   2.197082   4.089462   2.826603   6.022363   3.755463
     9  Ca   4.329131   2.416929   3.006685   2.129587   3.714260
                    6          7          8          9
     6  O    0.000000
     7  Ca   3.923673   0.000000
     8  Ca   2.249123   5.706579   0.000000
     9  Ca   2.447764   3.356932   4.623798   0.000000
 Stoichiometry    Ca3O5P(1+)
 Framework group  C1[X(Ca3O5P)]
 Deg. of freedom    21
 Full point group                 C1
 Largest Abelian subgroup         C1      NOp   1
 Largest concise Abelian subgroup C1      NOp   1
                         Standard orientation:                         
 ---------------------------------------------------------------------
 Center     Atomic     Atomic              Coordinates (Angstroms)
 Number     Number      Type              X           Y           Z
 ---------------------------------------------------------------------
    1          8             0        1.953210   -1.099001    0.828438
    2          8             0       -0.522580   -0.171310    1.302988
    3         15             0        0.574370   -0.601140    0.279928
    4          8             0       -2.811580    0.818961   -0.553632
    5          8             0       -0.072441   -1.563030   -0.736502
    6          8             0        1.006520    0.834340   -0.443172
    7         20             0       -2.318110   -1.232289   -0.176552
    8         20             0        3.183100    0.272639   -0.368702
    9         20             0       -1.117019    1.882521    0.176058
 ---------------------------------------------------------------------
 Rotational constants (GHZ):      1.3945608      0.5302789      0.4264648
 Standard basis: 6-31+G(d,p) (6D, 7F)
 There are   199 symmetry adapted basis functions of A   symmetry.
 Integral buffers will be    131072 words long.
 Raffenetti 2 integral format.
 Two-electron integral symmetry is turned on.
   199 basis functions,   456 primitive gaussians,   199 cartesian basis functions
    57 alpha electrons       57 beta electrons
       nuclear repulsion energy      1034.5848332112 Hartrees.
 NAtoms=    9 NActive=    9 NUniq=    9 SFac= 7.50D-01 NAtFMM=   80 NAOKFM=F Big=F
 One-electron integrals computed using PRISM.
 NBasis=   199 RedAO= T  NBF=   199
 NBsUse=   199 1.00D-06 NBFU=   199
 Harris functional with IExCor=  402 diagonalized for initial guess.
 ExpMin= 7.10D-03 ExpMax= 3.53D+04 ExpMxC= 5.30D+03 IAcc=3 IRadAn=         5 AccDes= 0.00D+00
 HarFok:  IExCor= 402 AccDes= 0.00D+00 IRadAn=         5 IDoV=1
 ScaDFX=  1.000000  1.000000  1.000000  1.000000
 Initial guess orbital symmetries:
       Occupied  (A) (A) (A) (A) (A) (A) (A) (A) (A) (A) (A) (A)
                 (A) (A) (A) (A) (A) (A) (A) (A) (A) (A) (A) (A)
                 (A) (A) (A) (A) (A) (A) (A) (A) (A) (A) (A) (A)
                 (A) (A) (A) (A) (A) (A) (A) (A) (A) (A) (A) (A)
                 (A) (A) (A) (A) (A) (A) (A) (A) (A)
       Virtual   (A) (A) (A) (A) (A) (A) (A) (A) (A) (A) (A) (A)
                 (A) (A) (A) (A) (A) (A) (A) (A) (A) (A) (A) (A)
                 (A) (A) (A) (A) (A) (A) (A) (A) (A) (A) (A) (A)
                 (A) (A) (A) (A) (A) (A) (A) (A) (A) (A) (A) (A)
                 (A) (A) (A) (A) (A) (A) (A) (A) (A) (A) (A) (A)
                 (A) (A) (A) (A) (A) (A) (A) (A) (A) (A) (A) (A)
                 (A) (A) (A) (A) (A) (A) (A) (A) (A) (A) (A) (A)
                 (A) (A) (A) (A) (A) (A) (A) (A) (A) (A) (A) (A)
                 (A) (A) (A) (A) (A) (A) (A) (A) (A) (A) (A) (A)
                 (A) (A) (A) (A) (A) (A) (A) (A) (A) (A) (A) (A)
                 (A) (A) (A) (A) (A) (A) (A) (A) (A) (A) (A) (A)
                 (A) (A) (A) (A) (A) (A) (A) (A) (A) (A)
 The electronic state of the initial guess is 1-A.
 Requested convergence on RMS density matrix=1.00D-04 within 128 cycles.
 Requested convergence on MAX density matrix=1.00D-02.
 Requested convergence on             energy=1.00D-02.
 No special actions if energy rises.
 EnCoef did     4 forward-backward iterations
 EnCoef did     3 forward-backward iterations
 EnCoef did     3 forward-backward iterations
 EnCoef did   100 forward-backward iterations
 SCF Done:  E(RB+HF-LYP) =  -2750.27056961     A.U. after    8 cycles
             Convg  =    0.8282D-04             -V/T =  2.0026
             S**2   =   0.0000

 **********************************************************************

            Population analysis using the SCF density.

 **********************************************************************

 Orbital symmetries:
       Occupied  (A) (A) (A) (A) (A) (A) (A) (A) (A) (A) (A) (A)
                 (A) (A) (A) (A) (A) (A) (A) (A) (A) (A) (A) (A)
                 (A) (A) (A) (A) (A) (A) (A) (A) (A) (A) (A) (A)
                 (A) (A) (A) (A) (A) (A) (A) (A) (A) (A) (A) (A)
                 (A) (A) (A) (A) (A) (A) (A) (A) (A)
       Virtual   (A) (A) (A) (A) (A) (A) (A) (A) (A) (A) (A) (A)
                 (A) (A) (A) (A) (A) (A) (A) (A) (A) (A) (A) (A)
                 (A) (A) (A) (A) (A) (A) (A) (A) (A) (A) (A) (A)
                 (A) (A) (A) (A) (A) (A) (A) (A) (A) (A) (A) (A)
                 (A) (A) (A) (A) (A) (A) (A) (A) (A) (A) (A) (A)
                 (A) (A) (A) (A) (A) (A) (A) (A) (A) (A) (A) (A)
                 (A) (A) (A) (A) (A) (A) (A) (A) (A) (A) (A) (A)
                 (A) (A) (A) (A) (A) (A) (A) (A) (A) (A) (A) (A)
                 (A) (A) (A) (A) (A) (A) (A) (A) (A) (A) (A) (A)
                 (A) (A) (A) (A) (A) (A) (A) (A) (A) (A) (A) (A)
                 (A) (A) (A) (A) (A) (A) (A) (A) (A) (A) (A) (A)
                 (A) (A) (A) (A) (A) (A) (A) (A) (A) (A)
 The electronic state is 1-A.
 Alpha  occ. eigenvalues -- -145.54089-145.50138-145.48984 -77.31047 -19.24173
 Alpha  occ. eigenvalues --  -19.23665 -19.21875 -19.20858 -19.18152 -15.60967
 Alpha  occ. eigenvalues --  -15.56957 -15.55841 -12.74195 -12.74123 -12.74089
 Alpha  occ. eigenvalues --  -12.70186 -12.70170 -12.70046 -12.69067 -12.69040
 Alpha  occ. eigenvalues --  -12.68929  -6.75425  -4.91866  -4.91747  -4.91703
 Alpha  occ. eigenvalues --   -1.98106  -1.94075  -1.93083  -1.25865  -1.25687
 Alpha  occ. eigenvalues --   -1.25374  -1.22135  -1.21674  -1.21368  -1.20846
 Alpha  occ. eigenvalues --   -1.20702  -1.20181  -1.12642  -1.04545  -1.03635
 Alpha  occ. eigenvalues --   -1.02498  -0.91222  -0.62572  -0.53999  -0.53448
 Alpha  occ. eigenvalues --   -0.52601  -0.46919  -0.44710  -0.44008  -0.42395
 Alpha  occ. eigenvalues --   -0.41901  -0.39387  -0.37986  -0.37089  -0.36215
 Alpha  occ. eigenvalues --   -0.34523  -0.34269
 Alpha virt. eigenvalues --   -0.21873  -0.18261  -0.16950  -0.13037  -0.12212
 Alpha virt. eigenvalues --   -0.10147  -0.09970  -0.09102  -0.08416  -0.07738
 Alpha virt. eigenvalues --   -0.07114  -0.06525  -0.05536  -0.05309  -0.04908
 Alpha virt. eigenvalues --   -0.04589  -0.04187  -0.04045  -0.03937  -0.03823
 Alpha virt. eigenvalues --   -0.03621  -0.03244  -0.03087  -0.02612  -0.01676
 Alpha virt. eigenvalues --   -0.01006  -0.00213   0.00896   0.01472   0.02239
 Alpha virt. eigenvalues --    0.02522   0.03023   0.03792   0.04211   0.04291
 Alpha virt. eigenvalues --    0.04724   0.04851   0.05567   0.05730   0.06698
 Alpha virt. eigenvalues --    0.07079   0.07585   0.07907   0.08082   0.09331
 Alpha virt. eigenvalues --    0.09701   0.10056   0.10390   0.10707   0.12199
 Alpha virt. eigenvalues --    0.12599   0.14287   0.15386   0.16448   0.17393
 Alpha virt. eigenvalues --    0.17780   0.18087   0.18917   0.21155   0.21872
 Alpha virt. eigenvalues --    0.22642   0.23468   0.24020   0.24814   0.25725
 Alpha virt. eigenvalues --    0.26555   0.27072   0.29006   0.30330   0.31242
 Alpha virt. eigenvalues --    0.31791   0.33962   0.34813   0.37012   0.38812
 Alpha virt. eigenvalues --    0.41608   0.46321   0.50217   0.51137   0.54831
 Alpha virt. eigenvalues --    0.56119   0.57299   0.59578   0.63719   0.68436
 Alpha virt. eigenvalues --    0.76884   0.87197   0.93020   0.98360   0.99414
 Alpha virt. eigenvalues --    1.06279   1.11530   1.13203   1.16194   1.16400
 Alpha virt. eigenvalues --    1.19225   1.19728   1.20019   1.20884   1.21645
 Alpha virt. eigenvalues --    1.24360   1.26170   1.27376   1.29107   1.29432
 Alpha virt. eigenvalues --    1.33434   1.41622   1.49299   1.53944   1.59358
 Alpha virt. eigenvalues --    1.67829   1.69139   1.70252   1.70805   1.73336
 Alpha virt. eigenvalues --    1.74571   1.76368   1.77272   1.81037   1.82031
 Alpha virt. eigenvalues --    1.82744   1.85123   1.85387   1.88686   1.89870
 Alpha virt. eigenvalues --    1.93103   1.98883   2.00034   2.03570   2.08995
 Alpha virt. eigenvalues --    2.14587   2.21041   2.46244   2.66751   2.73202
 Alpha virt. eigenvalues --    2.79101   3.48545   3.94433   4.02867   4.06440
 Alpha virt. eigenvalues --    4.09724   4.14015
          Condensed to atoms (all electrons):
              1          2          3          4          5          6
     1  O    8.839040  -0.037721   0.140840  -0.000425  -0.098280  -0.110607
     2  O   -0.037721   9.015703   0.068287   0.016830  -0.137045  -0.010677
     3  P    0.140840   0.068287  12.657481  -0.000731   0.240450   0.055977
     4  O   -0.000425   0.016830  -0.000731   8.986979   0.001085  -0.001419
     5  O   -0.098280  -0.137045   0.240450   0.001085   8.802679   0.026324
     6  O   -0.110607  -0.010677   0.055977  -0.001419   0.026324   9.057547
     7  Ca   0.013211   0.041686   0.015574   0.168270   0.069107  -0.000484
     8  Ca   0.131596   0.006400   0.008583   0.000815  -0.002593   0.065022
     9  Ca   0.003962   0.076907   0.013005   0.167705  -0.011934   0.041618
              7          8          9
     1  O    0.013211   0.131596   0.003962
     2  O    0.041686   0.006400   0.076907
     3  P    0.015574   0.008583   0.013005
     4  O    0.168270   0.000815   0.167705
     5  O    0.069107  -0.002593  -0.011934
     6  O   -0.000484   0.065022   0.041618
     7  Ca  18.273666   0.001106  -0.017529
     8  Ca   0.001106  18.210339  -0.005644
     9  Ca  -0.017529  -0.005644  18.278027
 Mulliken atomic charges:
              1
     1  O   -0.881615
     2  O   -1.040369
     3  P    1.800534
     4  O   -1.339109
     5  O   -0.889793
     6  O   -1.123300
     7  Ca   1.435395
     8  Ca   1.584376
     9  Ca   1.453882
 Sum of Mulliken charges=   1.00000
 Atomic charges with hydrogens summed into heavy atoms:
              1
     1  O   -0.881615
     2  O   -1.040369
     3  P    1.800534
     4  O   -1.339109
     5  O   -0.889793
     6  O   -1.123300
     7  Ca   1.435395
     8  Ca   1.584376
     9  Ca   1.453882
 Sum of Mulliken charges=   1.00000
 Electronic spatial extent (au):  <R**2>=  2340.4969
 Charge=     1.0000 electrons
 Dipole moment (field-independent basis, Debye):
    X=    14.3826    Y=     4.6893    Z=    -0.7325  Tot=    15.1455
 Quadrupole moment (field-independent basis, Debye-Ang):
   XX=   -12.3453   YY=   -49.2852   ZZ=   -83.3840
   XY=    32.0015   XZ=   -20.3450   YZ=     7.3290
 Traceless Quadrupole moment (field-independent basis, Debye-Ang):
   XX=    35.9929   YY=    -0.9470   ZZ=   -35.0459
   XY=    32.0015   XZ=   -20.3450   YZ=     7.3290
 Octapole moment (field-independent basis, Debye-Ang**2):
  XXX=   317.3919  YYY=    64.6277  ZZZ=   -10.6184  XYY=   -51.2872
  XXY=   -45.6559  XXZ=   -19.9805  XZZ=    13.9887  YZZ=     7.6561
  YYZ=    10.3310  XYZ=   -11.2062
 Hexadecapole moment (field-independent basis, Debye-Ang**3):
 XXXX=  -928.1365 YYYY=  -467.1488 ZZZZ=  -244.6594 XXXY=   402.1949
 XXXZ=  -228.0164 YYYX=    40.4046 YYYZ=    20.8059 ZZZX=   -37.2673
 ZZZY=    15.7875 XXYY=  -295.2445 XXZZ=  -308.6808 YYZZ=  -138.2681
 XXYZ=    50.6306 YYXZ=   -25.1501 ZZXY=    26.5991
 N-N= 1.034584833211D+03 E-N=-8.573503380483D+03  KE= 2.743056760562D+03
 Merz-Kollman atomic radii used.
 Read replacement radii for each type of atom:
 Rad(20) =   1.188000000000D+00
 Atom Element Radius
    1     8    1.40
    2     8    1.40
    3    15    1.80
    4     8    1.40
    5     8    1.40
    6     8    1.40
    7    20    1.19
    8    20    1.19
    9    20    1.19

 **********************************************************************

            Electrostatic Properties Using The SCF Density

 **********************************************************************

       Atomic Center    1 is at   1.953210 -1.099001  0.828438
       Atomic Center    2 is at  -0.522580 -0.171310  1.302988
       Atomic Center    3 is at   0.574370 -0.601140  0.279928
       Atomic Center    4 is at  -2.811580  0.818961 -0.553632
       Atomic Center    5 is at  -0.072441 -1.563030 -0.736502
       Atomic Center    6 is at   1.006520  0.834340 -0.443172
       Atomic Center    7 is at  -2.318110 -1.232289 -0.176552
       Atomic Center    8 is at   3.183100  0.272639 -0.368702
       Atomic Center    9 is at  -1.117019  1.882521  0.176058
     742 points will be used for fitting atomic charges
 Fitting point charges to eletrostatic potential
 Charges from ESP fit, RMS=   0.00403 RRMS=   0.02507:
 Charge=   1.00000 Dipole=    14.3817     4.7685    -0.6654 Tot=    15.1662
              1
     1  O   -0.905645
     2  O   -1.042646
     3  P    1.608022
     4  O   -1.650442
     5  O   -0.964018
     6  O   -1.228943
     7  Ca   1.683771
     8  Ca   1.775307
     9  Ca   1.724594
 -----------------------------------------------------------------

              Electrostatic Properties (Atomic Units)

 -----------------------------------------------------------------
    Center     Electric         -------- Electric Field --------
               Potential          X             Y             Z
 -----------------------------------------------------------------
    1 Atom    -22.214309
    2 Atom    -22.292775
    3 Atom    -53.892642
    4 Atom    -22.643362
    5 Atom    -22.283815
    6 Atom    -22.223612
    7 Atom    -80.110010
    8 Atom    -79.933426
    9 Atom    -80.090617
 -----------------------------------------------------------------
 1\1\GINC-N021\SP\RB3LYP\6-31+G(d,p)\Ca3O5P1(1+)\TIMN\12-Jun-2015\0\\# 
 b3lyp/6-31+G(d,p) int=ultrafine pop=(ReadRadii,MK)\\mol_17.25.47.pdbc_
 plusQ.z58352.zip.xyz\\1,1\O,0,1.95321,-1.099,0.82844\O,0,-0.52258,-0.1
 7131,1.30299\P,0,0.57437,-0.60114,0.27993\O,0,-2.81158,0.81896,-0.5536
 3\O,0,-0.07244,-1.56303,-0.7365\O,0,1.00652,0.83434,-0.44317\Ca,0,-2.3
 1811,-1.23229,-0.17655\Ca,0,3.1831,0.27264,-0.3687\Ca,0,-1.11702,1.882
 52,0.17606\\Version=EM64T-G03RevE.01\State=1-A\HF=-2750.2705696\RMSD=8
 .282e-05\Thermal=0.\Dipole=5.6585544,1.8449282,-0.2881976\PG=C01 [X(Ca
 3O5P1)]\\@


 ACTORS ARE SO FORTUNATE.  THEY CAN CHOOSE WHETHER
 THEY WILL APPEAR IN A TRAGEDY OR IN COMEDY,
 WHETHER THEY WILL SUFFER OF MAKE MERRY,
 LAUGH OR SHED TEARS.  BUT IN REAL LIFE IT IS DIFFERENT.
 MOST MEN AND WOMEN ARE FORCED TO PERFORM
 PARTS FOR WHICH THEY HAVE NO QUALIFICATIONS.
 THE WORLD IS A STAGE, BUT THE PLAY IS BADLY CAST.

                                   -- OSCAR WILDE
 Job cpu time:  0 days  0 hours  2 minutes  5.7 seconds.
 File lengths (MBytes):  RWF=     36 Int=      0 D2E=      0 Chk=     11 Scr=      1
 Normal termination of Gaussian 03 at Fri Jun 12 17:58:26 2015.
