 Entering Gaussian System, Link 0=/home/timn/tmp/g03.e01/g03
 Input=mol_17.29.30.pdb_plusQ.z58612.zip.xyz.gjf
 Output=mol_17.29.30.pdb_plusQ.z58612.zip.xyz.out
 Initial command:
 /home/timn/tmp/g03.e01/l1.exe /home/timn/tmp/g03.e01/Gau-15742.inp -scrdir=/home/timn/tmp/g03.e01/
 Default is to use a total of   2 processors:
                                2 via shared-memory
                                1 via Linda
 Entering Link 1 = /home/timn/tmp/g03.e01/l1.exe PID=     15743.
  
 Copyright (c) 1988,1990,1992,1993,1995,1998,2003,2004,2007, Gaussian, Inc.
                  All Rights Reserved.
  
 This is the Gaussian(R) 03 program.  It is based on the
 the Gaussian(R) 98 system (copyright 1998, Gaussian, Inc.),
 the Gaussian(R) 94 system (copyright 1995, Gaussian, Inc.),
 the Gaussian 92(TM) system (copyright 1992, Gaussian, Inc.),
 the Gaussian 90(TM) system (copyright 1990, Gaussian, Inc.),
 the Gaussian 88(TM) system (copyright 1988, Gaussian, Inc.),
 the Gaussian 86(TM) system (copyright 1986, Carnegie Mellon
 University), and the Gaussian 82(TM) system (copyright 1983,
 Carnegie Mellon University). Gaussian is a federally registered
 trademark of Gaussian, Inc.
  
 This software contains proprietary and confidential information,
 including trade secrets, belonging to Gaussian, Inc.
  
 This software is provided under written license and may be
 used, copied, transmitted, or stored only in accord with that
 written license.
  
 The following legend is applicable only to US Government
 contracts under FAR:
  
                    RESTRICTED RIGHTS LEGEND
  
 Use, reproduction and disclosure by the US Government is
 subject to restrictions as set forth in subparagraphs (a)
 and (c) of the Commercial Computer Software - Restricted
 Rights clause in FAR 52.227-19.
  
 Gaussian, Inc.
 340 Quinnipiac St., Bldg. 40, Wallingford CT 06492
  
  
 ---------------------------------------------------------------
 Warning -- This program may not be used in any manner that
 competes with the business of Gaussian, Inc. or will provide
 assistance to any competitor of Gaussian, Inc.  The licensee
 of this program is prohibited from giving any competitor of
 Gaussian, Inc. access to this program.  By using this program,
 the user acknowledges that Gaussian, Inc. is engaged in the
 business of creating and licensing software in the field of
 computational chemistry and represents and warrants to the
 licensee that it is not a competitor of Gaussian, Inc. and that
 it will not use this program in any manner prohibited above.
 ---------------------------------------------------------------
  

 Cite this work as:
 Gaussian 03, Revision E.01,
 M. J. Frisch, G. W. Trucks, H. B. Schlegel, G. E. Scuseria, 
 M. A. Robb, J. R. Cheeseman, J. A. Montgomery, Jr., T. Vreven, 
 K. N. Kudin, J. C. Burant, J. M. Millam, S. S. Iyengar, J. Tomasi, 
 V. Barone, B. Mennucci, M. Cossi, G. Scalmani, N. Rega, 
 G. A. Petersson, H. Nakatsuji, M. Hada, M. Ehara, K. Toyota, 
 R. Fukuda, J. Hasegawa, M. Ishida, T. Nakajima, Y. Honda, O. Kitao, 
 H. Nakai, M. Klene, X. Li, J. E. Knox, H. P. Hratchian, J. B. Cross, 
 V. Bakken, C. Adamo, J. Jaramillo, R. Gomperts, R. E. Stratmann, 
 O. Yazyev, A. J. Austin, R. Cammi, C. Pomelli, J. W. Ochterski, 
 P. Y. Ayala, K. Morokuma, G. A. Voth, P. Salvador, J. J. Dannenberg, 
 V. G. Zakrzewski, S. Dapprich, A. D. Daniels, M. C. Strain, 
 O. Farkas, D. K. Malick, A. D. Rabuck, K. Raghavachari, 
 J. B. Foresman, J. V. Ortiz, Q. Cui, A. G. Baboul, S. Clifford, 
 J. Cioslowski, B. B. Stefanov, G. Liu, A. Liashenko, P. Piskorz, 
 I. Komaromi, R. L. Martin, D. J. Fox, T. Keith, M. A. Al-Laham, 
 C. Y. Peng, A. Nanayakkara, M. Challacombe, P. M. W. Gill, 
 B. Johnson, W. Chen, M. W. Wong, C. Gonzalez, and J. A. Pople, 
 Gaussian, Inc., Wallingford CT, 2004.
 
 ******************************************
 Gaussian 03:  EM64T-G03RevE.01 11-Sep-2007
                12-Jun-2015 
 ******************************************
 %nproc=2
 Will use up to    2 processors via shared memory.
 Default route:  MP2=Direct MaxDisk=2000MB
 ----------------------------------------------------
 # b3lyp/6-31+G(d,p) int=ultrafine pop=(ReadRadii,MK)
 ----------------------------------------------------

 Warning!  SCF SP cutoffs with diffuse functions may be unreliable.
 Consider SCF=Tight

 1/38=1/1;
 2/17=6,18=5,40=1/2;
 3/5=1,6=6,7=111,11=2,16=1,25=1,30=1,74=-5,75=5/1,2,3;
 4//1;
 5/5=2,32=1,38=5/2;
 6/7=2,8=2,9=2,10=2,15=8,20=101,28=1/1,2;
 99/5=1,9=1/99;
 -------------------------------------
 mol_17.29.30.pdb_plusQ.z58612.zip.xyz
 -------------------------------------
 Symbolic Z-matrix:
 Charge =  1 Multiplicity = 1
 Ca                    2.01597  -1.74548  -0.0189 
 O                     2.87558   0.17631   0.25501 
 Ca                    1.71392   1.94599   0.10547 
 P                    -0.44521  -0.06903  -0.94459 
 O                    -2.11365  -0.30006  -1.2144 
 O                    -3.11428   0.67191  -0.62367 
 O                    -0.25131  -1.36329   0.08485 
 Ca                   -2.18421  -0.27268   1.15248 
 O                    -0.42577   1.125     0.17172 
 
                          Input orientation:                          
 ---------------------------------------------------------------------
 Center     Atomic     Atomic              Coordinates (Angstroms)
 Number     Number      Type              X           Y           Z
 ---------------------------------------------------------------------
    1         20             0        2.015970   -1.745480   -0.018900
    2          8             0        2.875580    0.176310    0.255010
    3         20             0        1.713920    1.945990    0.105470
    4         15             0       -0.445210   -0.069030   -0.944590
    5          8             0       -2.113650   -0.300060   -1.214400
    6          8             0       -3.114280    0.671910   -0.623670
    7          8             0       -0.251310   -1.363290    0.084850
    8         20             0       -2.184210   -0.272680    1.152480
    9          8             0       -0.425770    1.125000    0.171720
 ---------------------------------------------------------------------
                    Distance matrix (angstroms):
                    1          2          3          4          5
     1  Ca   0.000000
     2  O    2.123024   0.000000
     3  Ca   3.705894   2.122165   0.000000
     4  P    3.118460   3.539333   3.134450   0.000000
     5  O    4.535661   5.222883   4.630020   1.705832   0.000000
     6  O    5.703419   6.074218   5.046428   2.788533   1.514909
     7  O    2.301606   3.489522   3.848881   1.665068   2.507353
     8  Ca   4.602476   5.158345   4.605881   2.731904   2.368090
     9  O    3.773339   3.435966   2.292747   1.634697   2.607885
                    6          7          8          9
     6  O    0.000000
     7  O    3.583383   0.000000
     8  Ca   2.216301   2.462796   0.000000
     9  O    2.840074   2.495911   2.451022   0.000000
 Stoichiometry    Ca3O5P(1+)
 Framework group  C1[X(Ca3O5P)]
 Deg. of freedom    21
 Full point group                 C1
 Largest Abelian subgroup         C1      NOp   1
 Largest concise Abelian subgroup C1      NOp   1
                         Standard orientation:                         
 ---------------------------------------------------------------------
 Center     Atomic     Atomic              Coordinates (Angstroms)
 Number     Number      Type              X           Y           Z
 ---------------------------------------------------------------------
    1         20             0        2.015970   -1.745481   -0.018902
    2          8             0        2.875580    0.176308    0.255008
    3         20             0        1.713920    1.945989    0.105468
    4         15             0       -0.445210   -0.069031   -0.944592
    5          8             0       -2.113650   -0.300061   -1.214402
    6          8             0       -3.114280    0.671910   -0.623672
    7          8             0       -0.251310   -1.363291    0.084848
    8         20             0       -2.184210   -0.272681    1.152478
    9          8             0       -0.425770    1.124999    0.171718
 ---------------------------------------------------------------------
 Rotational constants (GHZ):      1.1282224      0.5308818      0.4302231
 Standard basis: 6-31+G(d,p) (6D, 7F)
 There are   199 symmetry adapted basis functions of A   symmetry.
 Integral buffers will be    131072 words long.
 Raffenetti 2 integral format.
 Two-electron integral symmetry is turned on.
   199 basis functions,   456 primitive gaussians,   199 cartesian basis functions
    57 alpha electrons       57 beta electrons
       nuclear repulsion energy      1004.8718519177 Hartrees.
 NAtoms=    9 NActive=    9 NUniq=    9 SFac= 7.50D-01 NAtFMM=   80 NAOKFM=F Big=F
 One-electron integrals computed using PRISM.
 NBasis=   199 RedAO= T  NBF=   199
 NBsUse=   199 1.00D-06 NBFU=   199
 Harris functional with IExCor=  402 diagonalized for initial guess.
 ExpMin= 7.10D-03 ExpMax= 3.53D+04 ExpMxC= 5.30D+03 IAcc=3 IRadAn=         5 AccDes= 0.00D+00
 HarFok:  IExCor= 402 AccDes= 0.00D+00 IRadAn=         5 IDoV=1
 ScaDFX=  1.000000  1.000000  1.000000  1.000000
 Initial guess orbital symmetries:
       Occupied  (A) (A) (A) (A) (A) (A) (A) (A) (A) (A) (A) (A)
                 (A) (A) (A) (A) (A) (A) (A) (A) (A) (A) (A) (A)
                 (A) (A) (A) (A) (A) (A) (A) (A) (A) (A) (A) (A)
                 (A) (A) (A) (A) (A) (A) (A) (A) (A) (A) (A) (A)
                 (A) (A) (A) (A) (A) (A) (A) (A) (A)
       Virtual   (A) (A) (A) (A) (A) (A) (A) (A) (A) (A) (A) (A)
                 (A) (A) (A) (A) (A) (A) (A) (A) (A) (A) (A) (A)
                 (A) (A) (A) (A) (A) (A) (A) (A) (A) (A) (A) (A)
                 (A) (A) (A) (A) (A) (A) (A) (A) (A) (A) (A) (A)
                 (A) (A) (A) (A) (A) (A) (A) (A) (A) (A) (A) (A)
                 (A) (A) (A) (A) (A) (A) (A) (A) (A) (A) (A) (A)
                 (A) (A) (A) (A) (A) (A) (A) (A) (A) (A) (A) (A)
                 (A) (A) (A) (A) (A) (A) (A) (A) (A) (A) (A) (A)
                 (A) (A) (A) (A) (A) (A) (A) (A) (A) (A) (A) (A)
                 (A) (A) (A) (A) (A) (A) (A) (A) (A) (A) (A) (A)
                 (A) (A) (A) (A) (A) (A) (A) (A) (A) (A) (A) (A)
                 (A) (A) (A) (A) (A) (A) (A) (A) (A) (A)
 The electronic state of the initial guess is 1-A.
 Requested convergence on RMS density matrix=1.00D-04 within 128 cycles.
 Requested convergence on MAX density matrix=1.00D-02.
 Requested convergence on             energy=1.00D-02.
 No special actions if energy rises.
 EnCoef did     4 forward-backward iterations
 EnCoef did     1 forward-backward iterations
 SCF Done:  E(RB+HF-LYP) =  -2750.11774720     A.U. after    9 cycles
             Convg  =    0.4753D-04             -V/T =  2.0029
             S**2   =   0.0000

 **********************************************************************

            Population analysis using the SCF density.

 **********************************************************************

 Orbital symmetries:
       Occupied  (A) (A) (A) (A) (A) (A) (A) (A) (A) (A) (A) (A)
                 (A) (A) (A) (A) (A) (A) (A) (A) (A) (A) (A) (A)
                 (A) (A) (A) (A) (A) (A) (A) (A) (A) (A) (A) (A)
                 (A) (A) (A) (A) (A) (A) (A) (A) (A) (A) (A) (A)
                 (A) (A) (A) (A) (A) (A) (A) (A) (A)
       Virtual   (A) (A) (A) (A) (A) (A) (A) (A) (A) (A) (A) (A)
                 (A) (A) (A) (A) (A) (A) (A) (A) (A) (A) (A) (A)
                 (A) (A) (A) (A) (A) (A) (A) (A) (A) (A) (A) (A)
                 (A) (A) (A) (A) (A) (A) (A) (A) (A) (A) (A) (A)
                 (A) (A) (A) (A) (A) (A) (A) (A) (A) (A) (A) (A)
                 (A) (A) (A) (A) (A) (A) (A) (A) (A) (A) (A) (A)
                 (A) (A) (A) (A) (A) (A) (A) (A) (A) (A) (A) (A)
                 (A) (A) (A) (A) (A) (A) (A) (A) (A) (A) (A) (A)
                 (A) (A) (A) (A) (A) (A) (A) (A) (A) (A) (A) (A)
                 (A) (A) (A) (A) (A) (A) (A) (A) (A) (A) (A) (A)
                 (A) (A) (A) (A) (A) (A) (A) (A) (A) (A) (A) (A)
                 (A) (A) (A) (A) (A) (A) (A) (A) (A) (A)
 The electronic state is 1-A.
 Alpha  occ. eigenvalues -- -145.52033-145.50135-145.50000 -77.26819 -19.27042
 Alpha  occ. eigenvalues --  -19.23364 -19.23088 -19.21555 -19.13356 -15.58792
 Alpha  occ. eigenvalues --  -15.57007 -15.56883 -12.72010 -12.72001 -12.71911
 Alpha  occ. eigenvalues --  -12.70262 -12.70187 -12.70136 -12.70077 -12.70066
 Alpha  occ. eigenvalues --  -12.69948  -6.72118  -4.88491  -4.88433  -4.87948
 Alpha  occ. eigenvalues --   -1.95846  -1.94210  -1.94096  -1.24337  -1.23295
 Alpha  occ. eigenvalues --   -1.22958  -1.22081  -1.21964  -1.21852  -1.21618
 Alpha  occ. eigenvalues --   -1.21250  -1.20760  -1.12242  -1.06810  -1.02504
 Alpha  occ. eigenvalues --   -0.89736  -0.87636  -0.64499  -0.53851  -0.52077
 Alpha  occ. eigenvalues --   -0.51864  -0.46762  -0.45784  -0.42947  -0.42776
 Alpha  occ. eigenvalues --   -0.38460  -0.35819  -0.33768  -0.32243  -0.31972
 Alpha  occ. eigenvalues --   -0.31709  -0.30413
 Alpha virt. eigenvalues --   -0.20011  -0.18998  -0.18428  -0.12841  -0.12140
 Alpha virt. eigenvalues --   -0.11161  -0.10331  -0.10084  -0.09328  -0.08690
 Alpha virt. eigenvalues --   -0.07751  -0.07644  -0.07113  -0.06323  -0.05694
 Alpha virt. eigenvalues --   -0.05062  -0.04873  -0.04575  -0.04310  -0.04195
 Alpha virt. eigenvalues --   -0.03961  -0.03756  -0.03499  -0.03189  -0.03140
 Alpha virt. eigenvalues --   -0.02920  -0.01605  -0.00999   0.00062   0.01438
 Alpha virt. eigenvalues --    0.01914   0.02493   0.03482   0.03936   0.04125
 Alpha virt. eigenvalues --    0.04578   0.05241   0.05531   0.06147   0.06403
 Alpha virt. eigenvalues --    0.06685   0.07098   0.07686   0.08303   0.08718
 Alpha virt. eigenvalues --    0.09585   0.09962   0.10047   0.11189   0.12146
 Alpha virt. eigenvalues --    0.12638   0.13356   0.13920   0.15350   0.17088
 Alpha virt. eigenvalues --    0.18505   0.19214   0.20265   0.21191   0.21670
 Alpha virt. eigenvalues --    0.22685   0.23722   0.24067   0.25037   0.26022
 Alpha virt. eigenvalues --    0.26230   0.26841   0.28287   0.28696   0.31193
 Alpha virt. eigenvalues --    0.31772   0.34727   0.38050   0.38408   0.40011
 Alpha virt. eigenvalues --    0.40328   0.42817   0.45598   0.49164   0.52336
 Alpha virt. eigenvalues --    0.53182   0.57990   0.59050   0.64371   0.67549
 Alpha virt. eigenvalues --    0.71073   0.74271   0.86304   0.90750   0.91940
 Alpha virt. eigenvalues --    0.96080   1.09628   1.12169   1.14427   1.15823
 Alpha virt. eigenvalues --    1.16278   1.17817   1.19675   1.20743   1.21861
 Alpha virt. eigenvalues --    1.23112   1.24842   1.26836   1.27471   1.30777
 Alpha virt. eigenvalues --    1.33370   1.45924   1.48251   1.54967   1.56466
 Alpha virt. eigenvalues --    1.60560   1.64723   1.68833   1.74922   1.75874
 Alpha virt. eigenvalues --    1.78276   1.79150   1.81833   1.82591   1.83636
 Alpha virt. eigenvalues --    1.84093   1.84625   1.85917   1.88474   1.91500
 Alpha virt. eigenvalues --    1.92983   1.95329   1.95834   2.00520   2.03252
 Alpha virt. eigenvalues --    2.24035   2.25466   2.38475   2.52928   2.58733
 Alpha virt. eigenvalues --    3.09613   3.50833   3.95613   3.98349   4.09408
 Alpha virt. eigenvalues --    4.10621   4.28683
          Condensed to atoms (all electrons):
              1          2          3          4          5          6
     1  Ca  18.286986   0.223325  -0.013763  -0.065362   0.006910   0.004612
     2  O    0.223325   8.760989   0.220494  -0.056794   0.003885   0.000376
     3  Ca  -0.013763   0.220494  18.278181  -0.017915   0.004225   0.001011
     4  P   -0.065362  -0.056794  -0.017915  15.326797  -0.097200  -0.083716
     5  O    0.006910   0.003885   0.004225  -0.097200   8.411714   0.066898
     6  O    0.004612   0.000376   0.001011  -0.083716   0.066898   8.316125
     7  O    0.107358   0.011983   0.015105  -0.457624   0.004477   0.023851
     8  Ca  -0.015402   0.001507  -0.011544   0.031616   0.058616   0.153572
     9  O    0.025868   0.012693   0.093972  -0.359122   0.032318   0.009840
              7          8          9
     1  Ca   0.107358  -0.015402   0.025868
     2  O    0.011983   0.001507   0.012693
     3  Ca   0.015105  -0.011544   0.093972
     4  P   -0.457624   0.031616  -0.359122
     5  O    0.004477   0.058616   0.032318
     6  O    0.023851   0.153572   0.009840
     7  O    9.110733   0.053150   0.079572
     8  Ca   0.053150  18.293240   0.034939
     9  O    0.079572   0.034939   9.007769
 Mulliken atomic charges:
              1
     1  Ca   1.439467
     2  O   -1.178457
     3  Ca   1.430234
     4  P    0.779321
     5  O   -0.491844
     6  O   -0.492570
     7  O   -0.948607
     8  Ca   1.400306
     9  O   -0.937850
 Sum of Mulliken charges=   1.00000
 Atomic charges with hydrogens summed into heavy atoms:
              1
     1  Ca   1.439467
     2  O   -1.178457
     3  Ca   1.430234
     4  P    0.779321
     5  O   -0.491844
     6  O   -0.492570
     7  O   -0.948607
     8  Ca   1.400306
     9  O   -0.937850
 Sum of Mulliken charges=   1.00000
 Electronic spatial extent (au):  <R**2>=  2430.5380
 Charge=     1.0000 electrons
 Dipole moment (field-independent basis, Debye):
    X=     4.9649    Y=    -1.7051    Z=     8.6779  Tot=    10.1422
 Quadrupole moment (field-independent basis, Debye-Ang):
   XX=   -75.2052   YY=   -34.6978   ZZ=   -68.0822
   XY=     4.4013   XZ=   -29.7843   YZ=    -0.7723
 Traceless Quadrupole moment (field-independent basis, Debye-Ang):
   XX=   -15.8768   YY=    24.6306   ZZ=    -8.7538
   XY=     4.4013   XZ=   -29.7843   YZ=    -0.7723
 Octapole moment (field-independent basis, Debye-Ang**2):
  XXX=   -31.3392  YYY=    20.0272  ZZZ=    41.4045  XYY=   113.4038
  XXY=   -46.9056  XXZ=    63.0474  XZZ=   -20.1584  YZZ=    -3.2117
  YYZ=     9.4417  XYZ=     7.1824
 Hexadecapole moment (field-independent basis, Debye-Ang**3):
 XXXX= -2125.3005 YYYY=  -429.0714 ZZZZ=  -293.0730 XXXY=     4.0886
 XXXZ=  -255.2409 YYYX=    25.3109 YYYZ=     6.0257 ZZZX=   -85.6714
 ZZZY=    -5.1865 XXYY=  -199.1086 XXZZ=  -304.6817 YYZZ=  -144.6686
 XXYZ=    -3.4539 YYXZ=   -16.8865 ZZXY=     8.2691
 N-N= 1.004871851918D+03 E-N=-8.510924022067D+03  KE= 2.742148686873D+03
 Merz-Kollman atomic radii used.
 Read replacement radii for each type of atom:
 Rad(20) =   1.188000000000D+00
 Atom Element Radius
    1    20    1.19
    2     8    1.40
    3    20    1.19
    4    15    1.80
    5     8    1.40
    6     8    1.40
    7     8    1.40
    8    20    1.19
    9     8    1.40

 **********************************************************************

            Electrostatic Properties Using The SCF Density

 **********************************************************************

       Atomic Center    1 is at   2.015970 -1.745481 -0.018902
       Atomic Center    2 is at   2.875580  0.176308  0.255008
       Atomic Center    3 is at   1.713920  1.945989  0.105468
       Atomic Center    4 is at  -0.445210 -0.069031 -0.944592
       Atomic Center    5 is at  -2.113650 -0.300061 -1.214402
       Atomic Center    6 is at  -3.114280  0.671910 -0.623672
       Atomic Center    7 is at  -0.251310 -1.363291  0.084848
       Atomic Center    8 is at  -2.184210 -0.272681  1.152478
       Atomic Center    9 is at  -0.425770  1.124999  0.171718
     765 points will be used for fitting atomic charges
 Fitting point charges to eletrostatic potential
 Charges from ESP fit, RMS=   0.00703 RRMS=   0.04466:
 Charge=   1.00000 Dipole=     5.0061    -1.8990     8.7396 Tot=    10.2492
              1
     1  Ca   1.707860
     2  O   -1.555491
     3  Ca   1.690535
     4  P    0.130868
     5  O   -0.129477
     6  O   -0.614884
     7  O   -1.004373
     8  Ca   1.636703
     9  O   -0.861739
 -----------------------------------------------------------------

              Electrostatic Properties (Atomic Units)

 -----------------------------------------------------------------
    Center     Electric         -------- Electric Field --------
               Potential          X             Y             Z
 -----------------------------------------------------------------
    1 Atom    -80.040613
    2 Atom    -22.326702
    3 Atom    -80.039476
    4 Atom    -53.945313
    5 Atom    -22.200156
    6 Atom    -22.259508
    7 Atom    -22.228790
    8 Atom    -80.021287
    9 Atom    -22.231477
 -----------------------------------------------------------------
 1\1\GINC-N035\SP\RB3LYP\6-31+G(d,p)\Ca3O5P1(1+)\TIMN\12-Jun-2015\0\\# 
 b3lyp/6-31+G(d,p) int=ultrafine pop=(ReadRadii,MK)\\mol_17.29.30.pdb_p
 lusQ.z58612.zip.xyz\\1,1\Ca,0,2.01597,-1.74548,-0.0189\O,0,2.87558,0.1
 7631,0.25501\Ca,0,1.71392,1.94599,0.10547\P,0,-0.44521,-0.06903,-0.944
 59\O,0,-2.11365,-0.30006,-1.2144\O,0,-3.11428,0.67191,-0.62367\O,0,-0.
 25131,-1.36329,0.08485\Ca,0,-2.18421,-0.27268,1.15248\O,0,-0.42577,1.1
 25,0.17172\\Version=EM64T-G03RevE.01\State=1-A\HF=-2750.1177472\RMSD=4
 .753e-05\Thermal=0.\Dipole=1.9533613,-0.6708315,3.4141386\PG=C01 [X(Ca
 3O5P1)]\\@


 A SUCCESSFUL PURSUIT OF SCIENCE MAKES A MAN THE
 BENEFACTOR OF ALL MANKIND OF EVERY AGE.
   --  JOSEPH PRIESTLEY, "EXPERIMENTS AND
 OBSERVATIONS ON DIFFERENT KINDS OF AIR", 1774
 Job cpu time:  0 days  0 hours  2 minutes 17.3 seconds.
 File lengths (MBytes):  RWF=     36 Int=      0 D2E=      0 Chk=     11 Scr=      1
 Normal termination of Gaussian 03 at Fri Jun 12 18:13:04 2015.
