 Entering Gaussian System, Link 0=/home/timn/tmp/g03.e01/g03
 Input=mol_17.27.7.pdbcc_plusQ.z58528.zip.xyz.gjf
 Output=mol_17.27.7.pdbcc_plusQ.z58528.zip.xyz.out
 Initial command:
 /home/timn/tmp/g03.e01/l1.exe /home/timn/tmp/g03.e01/Gau-17729.inp -scrdir=/home/timn/tmp/g03.e01/
 Default is to use a total of   2 processors:
                                2 via shared-memory
                                1 via Linda
 Entering Link 1 = /home/timn/tmp/g03.e01/l1.exe PID=     17730.
  
 Copyright (c) 1988,1990,1992,1993,1995,1998,2003,2004,2007, Gaussian, Inc.
                  All Rights Reserved.
  
 This is the Gaussian(R) 03 program.  It is based on the
 the Gaussian(R) 98 system (copyright 1998, Gaussian, Inc.),
 the Gaussian(R) 94 system (copyright 1995, Gaussian, Inc.),
 the Gaussian 92(TM) system (copyright 1992, Gaussian, Inc.),
 the Gaussian 90(TM) system (copyright 1990, Gaussian, Inc.),
 the Gaussian 88(TM) system (copyright 1988, Gaussian, Inc.),
 the Gaussian 86(TM) system (copyright 1986, Carnegie Mellon
 University), and the Gaussian 82(TM) system (copyright 1983,
 Carnegie Mellon University). Gaussian is a federally registered
 trademark of Gaussian, Inc.
  
 This software contains proprietary and confidential information,
 including trade secrets, belonging to Gaussian, Inc.
  
 This software is provided under written license and may be
 used, copied, transmitted, or stored only in accord with that
 written license.
  
 The following legend is applicable only to US Government
 contracts under FAR:
  
                    RESTRICTED RIGHTS LEGEND
  
 Use, reproduction and disclosure by the US Government is
 subject to restrictions as set forth in subparagraphs (a)
 and (c) of the Commercial Computer Software - Restricted
 Rights clause in FAR 52.227-19.
  
 Gaussian, Inc.
 340 Quinnipiac St., Bldg. 40, Wallingford CT 06492
  
  
 ---------------------------------------------------------------
 Warning -- This program may not be used in any manner that
 competes with the business of Gaussian, Inc. or will provide
 assistance to any competitor of Gaussian, Inc.  The licensee
 of this program is prohibited from giving any competitor of
 Gaussian, Inc. access to this program.  By using this program,
 the user acknowledges that Gaussian, Inc. is engaged in the
 business of creating and licensing software in the field of
 computational chemistry and represents and warrants to the
 licensee that it is not a competitor of Gaussian, Inc. and that
 it will not use this program in any manner prohibited above.
 ---------------------------------------------------------------
  

 Cite this work as:
 Gaussian 03, Revision E.01,
 M. J. Frisch, G. W. Trucks, H. B. Schlegel, G. E. Scuseria, 
 M. A. Robb, J. R. Cheeseman, J. A. Montgomery, Jr., T. Vreven, 
 K. N. Kudin, J. C. Burant, J. M. Millam, S. S. Iyengar, J. Tomasi, 
 V. Barone, B. Mennucci, M. Cossi, G. Scalmani, N. Rega, 
 G. A. Petersson, H. Nakatsuji, M. Hada, M. Ehara, K. Toyota, 
 R. Fukuda, J. Hasegawa, M. Ishida, T. Nakajima, Y. Honda, O. Kitao, 
 H. Nakai, M. Klene, X. Li, J. E. Knox, H. P. Hratchian, J. B. Cross, 
 V. Bakken, C. Adamo, J. Jaramillo, R. Gomperts, R. E. Stratmann, 
 O. Yazyev, A. J. Austin, R. Cammi, C. Pomelli, J. W. Ochterski, 
 P. Y. Ayala, K. Morokuma, G. A. Voth, P. Salvador, J. J. Dannenberg, 
 V. G. Zakrzewski, S. Dapprich, A. D. Daniels, M. C. Strain, 
 O. Farkas, D. K. Malick, A. D. Rabuck, K. Raghavachari, 
 J. B. Foresman, J. V. Ortiz, Q. Cui, A. G. Baboul, S. Clifford, 
 J. Cioslowski, B. B. Stefanov, G. Liu, A. Liashenko, P. Piskorz, 
 I. Komaromi, R. L. Martin, D. J. Fox, T. Keith, M. A. Al-Laham, 
 C. Y. Peng, A. Nanayakkara, M. Challacombe, P. M. W. Gill, 
 B. Johnson, W. Chen, M. W. Wong, C. Gonzalez, and J. A. Pople, 
 Gaussian, Inc., Wallingford CT, 2004.
 
 ******************************************
 Gaussian 03:  EM64T-G03RevE.01 11-Sep-2007
                12-Jun-2015 
 ******************************************
 %nproc=2
 Will use up to    2 processors via shared memory.
 Default route:  MP2=Direct MaxDisk=2000MB
 ----------------------------------------------------
 # b3lyp/6-31+G(d,p) int=ultrafine pop=(ReadRadii,MK)
 ----------------------------------------------------

 Warning!  SCF SP cutoffs with diffuse functions may be unreliable.
 Consider SCF=Tight

 1/38=1/1;
 2/17=6,18=5,40=1/2;
 3/5=1,6=6,7=111,11=2,16=1,25=1,30=1,74=-5,75=5/1,2,3;
 4//1;
 5/5=2,32=1,38=5/2;
 6/7=2,8=2,9=2,10=2,15=8,20=101,28=1/1,2;
 99/5=1,9=1/99;
 --------------------------------------
 mol_17.27.7.pdbcc_plusQ.z58528.zip.xyz
 --------------------------------------
 Symbolic Z-matrix:
 Charge =  1 Multiplicity = 1
 O                    -3.09816  -0.21748  -0.00743 
 O                    -1.77057   0.45946   0.0098 
 P                    -1.91597   2.06936  -0.00562 
 O                    -0.47237   2.56712   0.00241 
 Ca                    1.82458   2.19332   0.00255 
 O                     2.72415   0.30079  -0.00154 
 Ca                    2.27607  -1.81997  -0.00302 
 O                     0.29951  -2.67274  -0.0001 
 Ca                   -1.7367   -2.10023   0.00344 
 
                          Input orientation:                          
 ---------------------------------------------------------------------
 Center     Atomic     Atomic              Coordinates (Angstroms)
 Number     Number      Type              X           Y           Z
 ---------------------------------------------------------------------
    1          8             0       -3.098160   -0.217480   -0.007430
    2          8             0       -1.770570    0.459460    0.009800
    3         15             0       -1.915970    2.069360   -0.005620
    4          8             0       -0.472370    2.567120    0.002410
    5         20             0        1.824580    2.193320    0.002550
    6          8             0        2.724150    0.300790   -0.001540
    7         20             0        2.276070   -1.819970   -0.003020
    8          8             0        0.299510   -2.672740   -0.000100
    9         20             0       -1.736700   -2.100230    0.003440
 ---------------------------------------------------------------------
                    Distance matrix (angstroms):
                    1          2          3          4          5
     1  O    0.000000
     2  O    1.490315   0.000000
     3  P    2.574338   1.616526   0.000000
     4  O    3.827384   2.475401   1.527027   0.000000
     5  Ca   5.481371   3.991419   3.742612   2.327167   0.000000
     6  O    5.845334   4.497534   4.965740   3.918419   2.095450
     7  Ca   5.608060   4.644487   5.718400   5.176921   4.038610
     8  O    4.191959   3.754465   5.234109   5.296408   5.099450
     9  Ca   2.323454   2.559922   4.173452   4.835565   5.578287
                    6          7          8          9
     6  O    0.000000
     7  Ca   2.167579   0.000000
     8  O    3.836765   2.152676   0.000000
     9  Ca   5.065975   4.022550   2.115167   0.000000
 Stoichiometry    Ca3O5P(1+)
 Framework group  C1[X(Ca3O5P)]
 Deg. of freedom    21
 Full point group                 C1
 Largest Abelian subgroup         C1      NOp   1
 Largest concise Abelian subgroup C1      NOp   1
                         Standard orientation:                         
 ---------------------------------------------------------------------
 Center     Atomic     Atomic              Coordinates (Angstroms)
 Number     Number      Type              X           Y           Z
 ---------------------------------------------------------------------
    1          8             0       -3.098153   -0.217569   -0.007432
    2          8             0       -1.770583    0.459409    0.009798
    3         15             0       -1.916029    2.069305   -0.005622
    4          8             0       -0.472443    2.567106    0.002408
    5         20             0        1.824518    2.193372    0.002548
    6          8             0        2.724142    0.300868   -0.001542
    7         20             0        2.276123   -1.819905   -0.003022
    8          8             0        0.299587   -2.672731   -0.000102
    9         20             0       -1.736639   -2.100280    0.003438
 ---------------------------------------------------------------------
 Rotational constants (GHZ):      0.5887485      0.5602710      0.2870799
 Standard basis: 6-31+G(d,p) (6D, 7F)
 There are   199 symmetry adapted basis functions of A   symmetry.
 Integral buffers will be    131072 words long.
 Raffenetti 2 integral format.
 Two-electron integral symmetry is turned on.
   199 basis functions,   456 primitive gaussians,   199 cartesian basis functions
    57 alpha electrons       57 beta electrons
       nuclear repulsion energy       883.0883230655 Hartrees.
 NAtoms=    9 NActive=    9 NUniq=    9 SFac= 7.50D-01 NAtFMM=   80 NAOKFM=F Big=F
 One-electron integrals computed using PRISM.
 NBasis=   199 RedAO= T  NBF=   199
 NBsUse=   199 1.00D-06 NBFU=   199
 Harris functional with IExCor=  402 diagonalized for initial guess.
 ExpMin= 7.10D-03 ExpMax= 3.53D+04 ExpMxC= 5.30D+03 IAcc=3 IRadAn=         5 AccDes= 0.00D+00
 HarFok:  IExCor= 402 AccDes= 0.00D+00 IRadAn=         5 IDoV=1
 ScaDFX=  1.000000  1.000000  1.000000  1.000000
 Initial guess orbital symmetries:
       Occupied  (A) (A) (A) (A) (A) (A) (A) (A) (A) (A) (A) (A)
                 (A) (A) (A) (A) (A) (A) (A) (A) (A) (A) (A) (A)
                 (A) (A) (A) (A) (A) (A) (A) (A) (A) (A) (A) (A)
                 (A) (A) (A) (A) (A) (A) (A) (A) (A) (A) (A) (A)
                 (A) (A) (A) (A) (A) (A) (A) (A) (A)
       Virtual   (A) (A) (A) (A) (A) (A) (A) (A) (A) (A) (A) (A)
                 (A) (A) (A) (A) (A) (A) (A) (A) (A) (A) (A) (A)
                 (A) (A) (A) (A) (A) (A) (A) (A) (A) (A) (A) (A)
                 (A) (A) (A) (A) (A) (A) (A) (A) (A) (A) (A) (A)
                 (A) (A) (A) (A) (A) (A) (A) (A) (A) (A) (A) (A)
                 (A) (A) (A) (A) (A) (A) (A) (A) (A) (A) (A) (A)
                 (A) (A) (A) (A) (A) (A) (A) (A) (A) (A) (A) (A)
                 (A) (A) (A) (A) (A) (A) (A) (A) (A) (A) (A) (A)
                 (A) (A) (A) (A) (A) (A) (A) (A) (A) (A) (A) (A)
                 (A) (A) (A) (A) (A) (A) (A) (A) (A) (A) (A) (A)
                 (A) (A) (A) (A) (A) (A) (A) (A) (A) (A) (A) (A)
                 (A) (A) (A) (A) (A) (A) (A) (A) (A) (A)
 The electronic state of the initial guess is 1-A.
 Requested convergence on RMS density matrix=1.00D-04 within 128 cycles.
 Requested convergence on MAX density matrix=1.00D-02.
 Requested convergence on             energy=1.00D-02.
 No special actions if energy rises.
 EnCoef did     3 forward-backward iterations
 SCF Done:  E(RB+HF-LYP) =  -2750.09246505     A.U. after    8 cycles
             Convg  =    0.5972D-04             -V/T =  2.0029
             S**2   =   0.0000

 **********************************************************************

            Population analysis using the SCF density.

 **********************************************************************

 Orbital symmetries:
       Occupied  (A) (A) (A) (A) (A) (A) (A) (A) (A) (A) (A) (A)
                 (A) (A) (A) (A) (A) (A) (A) (A) (A) (A) (A) (A)
                 (A) (A) (A) (A) (A) (A) (A) (A) (A) (A) (A) (A)
                 (A) (A) (A) (A) (A) (A) (A) (A) (A) (A) (A) (A)
                 (A) (A) (A) (A) (A) (A) (A) (A) (A)
       Virtual   (A) (A) (A) (A) (A) (A) (A) (A) (A) (A) (A) (A)
                 (A) (A) (A) (A) (A) (A) (A) (A) (A) (A) (A) (A)
                 (A) (A) (A) (A) (A) (A) (A) (A) (A) (A) (A) (A)
                 (A) (A) (A) (A) (A) (A) (A) (A) (A) (A) (A) (A)
                 (A) (A) (A) (A) (A) (A) (A) (A) (A) (A) (A) (A)
                 (A) (A) (A) (A) (A) (A) (A) (A) (A) (A) (A) (A)
                 (A) (A) (A) (A) (A) (A) (A) (A) (A) (A) (A) (A)
                 (A) (A) (A) (A) (A) (A) (A) (A) (A) (A) (A) (A)
                 (A) (A) (A) (A) (A) (A) (A) (A) (A) (A) (A) (A)
                 (A) (A) (A) (A) (A) (A) (A) (A) (A) (A) (A) (A)
                 (A) (A) (A) (A) (A) (A) (A) (A) (A) (A) (A) (A)
                 (A) (A) (A) (A) (A) (A) (A) (A) (A) (A)
 The electronic state is 1-A.
 Alpha  occ. eigenvalues -- -145.50662-145.47459-145.42684 -77.33489 -19.36977
 Alpha  occ. eigenvalues --  -19.31115 -19.27991 -19.12633 -19.11144 -15.57544
 Alpha  occ. eigenvalues --  -15.54398 -15.49722 -12.70795 -12.70754 -12.70587
 Alpha  occ. eigenvalues --  -12.67655 -12.67636 -12.67398 -12.62980 -12.62933
 Alpha  occ. eigenvalues --  -12.62710  -6.79088  -4.95428  -4.95346  -4.94872
 Alpha  occ. eigenvalues --   -1.94734  -1.91707  -1.87223  -1.23470  -1.22556
 Alpha  occ. eigenvalues --   -1.22410  -1.21603  -1.19628  -1.19293  -1.18170
 Alpha  occ. eigenvalues --   -1.15280  -1.14996  -1.14350  -1.14027  -0.97082
 Alpha  occ. eigenvalues --   -0.86718  -0.85166  -0.71693  -0.61538  -0.58686
 Alpha  occ. eigenvalues --   -0.57303  -0.50910  -0.50411  -0.45354  -0.39823
 Alpha  occ. eigenvalues --   -0.37350  -0.33370  -0.31121  -0.30965  -0.30917
 Alpha  occ. eigenvalues --   -0.29556  -0.29419
 Alpha virt. eigenvalues --   -0.23206  -0.19197  -0.16692  -0.14315  -0.13441
 Alpha virt. eigenvalues --   -0.11660  -0.10411  -0.09932  -0.09485  -0.08972
 Alpha virt. eigenvalues --   -0.07688  -0.07278  -0.06805  -0.05944  -0.05814
 Alpha virt. eigenvalues --   -0.05472  -0.05041  -0.04860  -0.04695  -0.04190
 Alpha virt. eigenvalues --   -0.03961  -0.03949  -0.03879  -0.03373  -0.03036
 Alpha virt. eigenvalues --   -0.02817  -0.02750  -0.02493  -0.02169  -0.01548
 Alpha virt. eigenvalues --    0.01235   0.01903   0.02312   0.03775   0.04055
 Alpha virt. eigenvalues --    0.04142   0.05202   0.05746   0.06577   0.06634
 Alpha virt. eigenvalues --    0.06867   0.07753   0.08336   0.08809   0.09375
 Alpha virt. eigenvalues --    0.10141   0.10229   0.10499   0.11477   0.12570
 Alpha virt. eigenvalues --    0.13104   0.13258   0.13781   0.13998   0.15616
 Alpha virt. eigenvalues --    0.15828   0.15948   0.16708   0.17209   0.20139
 Alpha virt. eigenvalues --    0.20224   0.20312   0.22953   0.25125   0.27055
 Alpha virt. eigenvalues --    0.28334   0.29199   0.29716   0.30028   0.30610
 Alpha virt. eigenvalues --    0.31105   0.32416   0.33854   0.36355   0.37450
 Alpha virt. eigenvalues --    0.39114   0.41211   0.42338   0.44168   0.50335
 Alpha virt. eigenvalues --    0.52166   0.54807   0.55518   0.62036   0.66347
 Alpha virt. eigenvalues --    0.72399   0.80239   0.83938   0.91022   0.95244
 Alpha virt. eigenvalues --    0.98616   1.00487   1.05382   1.05653   1.09798
 Alpha virt. eigenvalues --    1.14532   1.15023   1.15584   1.17224   1.17314
 Alpha virt. eigenvalues --    1.20044   1.23294   1.25268   1.26549   1.28067
 Alpha virt. eigenvalues --    1.34228   1.37888   1.42359   1.42475   1.46798
 Alpha virt. eigenvalues --    1.50365   1.52579   1.58648   1.62042   1.68399
 Alpha virt. eigenvalues --    1.70103   1.78420   1.81589   1.82309   1.83142
 Alpha virt. eigenvalues --    1.83581   1.84252   1.85133   1.85826   1.87933
 Alpha virt. eigenvalues --    1.88435   1.90369   1.95337   2.01171   2.06491
 Alpha virt. eigenvalues --    2.07393   2.19223   2.25089   2.42161   2.64340
 Alpha virt. eigenvalues --    3.03576   3.39653   3.77285   3.86081   3.95744
 Alpha virt. eigenvalues --    3.99374   4.12317
          Condensed to atoms (all electrons):
              1          2          3          4          5          6
     1  O    8.387721   0.051641  -0.028934   0.011494   0.001416   0.000054
     2  O    0.051641   8.336454  -0.117971   0.033442   0.001155   0.001989
     3  P   -0.028934  -0.117971  14.551023  -0.176965  -0.047295  -0.001685
     4  O    0.011494   0.033442  -0.176965   8.767123   0.058469  -0.001758
     5  Ca   0.001416   0.001155  -0.047295   0.058469  18.289479   0.256349
     6  O    0.000054   0.001989  -0.001685  -0.001758   0.256349   8.824590
     7  Ca  -0.000863  -0.002480   0.043582  -0.010967  -0.016572   0.164580
     8  O   -0.002095   0.008508   0.001871   0.000160   0.004051  -0.005685
     9  Ca   0.088013   0.015255  -0.030145   0.010788   0.008045   0.004419
              7          8          9
     1  O   -0.000863  -0.002095   0.088013
     2  O   -0.002480   0.008508   0.015255
     3  P    0.043582   0.001871  -0.030145
     4  O   -0.010967   0.000160   0.010788
     5  Ca  -0.016572   0.004051   0.008045
     6  O    0.164580  -0.005685   0.004419
     7  Ca  18.296187   0.184157  -0.018963
     8  O    0.184157   8.838834   0.226563
     9  Ca  -0.018963   0.226563  18.281342
 Mulliken atomic charges:
              1
     1  O   -0.508448
     2  O   -0.327994
     3  P    0.806520
     4  O   -0.691786
     5  Ca   1.444903
     6  O   -1.242853
     7  Ca   1.361340
     8  O   -1.256364
     9  Ca   1.414682
 Sum of Mulliken charges=   1.00000
 Atomic charges with hydrogens summed into heavy atoms:
              1
     1  O   -0.508448
     2  O   -0.327994
     3  P    0.806520
     4  O   -0.691786
     5  Ca   1.444903
     6  O   -1.242853
     7  Ca   1.361340
     8  O   -1.256364
     9  Ca   1.414682
 Sum of Mulliken charges=   1.00000
 Electronic spatial extent (au):  <R**2>=  3254.8170
 Charge=     1.0000 electrons
 Dipole moment (field-independent basis, Debye):
    X=     2.2993    Y=     2.6911    Z=     0.0236  Tot=     3.5397
 Quadrupole moment (field-independent basis, Debye-Ang):
   XX=   -56.0614   YY=   -35.4909   ZZ=   -74.3985
   XY=    17.0319   XZ=    -0.0693   YZ=     0.0019
 Traceless Quadrupole moment (field-independent basis, Debye-Ang):
   XX=    -0.7445   YY=    19.8260   ZZ=   -19.0816
   XY=    17.0319   XZ=    -0.0693   YZ=     0.0019
 Octapole moment (field-independent basis, Debye-Ang**2):
  XXX=    36.4033  YYY=    67.2045  ZZZ=     0.1016  XYY=    44.7464
  XXY=   -66.6814  XXZ=     0.2782  XZZ=     2.6428  YZZ=     1.0341
  YYZ=     0.1321  XYZ=     0.2922
 Hexadecapole moment (field-independent basis, Debye-Ang**3):
 XXXX= -2074.4324 YYYY= -1719.1889 ZZZZ=   -87.5684 XXXY=    -7.6301
 XXXZ=    -0.7028 YYYX=   259.3169 YYYZ=     0.1190 ZZZX=    -0.2328
 ZZZY=     0.0841 XXYY=  -173.8556 XXZZ=  -321.3009 YYZZ=  -291.8257
 XXYZ=     0.4518 YYXZ=    -0.3632 ZZXY=    16.3147
 N-N= 8.830883230655D+02 E-N=-8.267803905094D+03  KE= 2.742138187058D+03
 Merz-Kollman atomic radii used.
 Read replacement radii for each type of atom:
 Rad(20) =   1.188000000000D+00
 Atom Element Radius
    1     8    1.40
    2     8    1.40
    3    15    1.80
    4     8    1.40
    5    20    1.19
    6     8    1.40
    7    20    1.19
    8     8    1.40
    9    20    1.19

 **********************************************************************

            Electrostatic Properties Using The SCF Density

 **********************************************************************

       Atomic Center    1 is at  -3.098153 -0.217569 -0.007432
       Atomic Center    2 is at  -1.770583  0.459409  0.009798
       Atomic Center    3 is at  -1.916029  2.069305 -0.005622
       Atomic Center    4 is at  -0.472443  2.567106  0.002408
       Atomic Center    5 is at   1.824518  2.193372  0.002548
       Atomic Center    6 is at   2.724142  0.300868 -0.001542
       Atomic Center    7 is at   2.276123 -1.819905 -0.003022
       Atomic Center    8 is at   0.299587 -2.672731 -0.000102
       Atomic Center    9 is at  -1.736639 -2.100280  0.003438
     908 points will be used for fitting atomic charges
 Fitting point charges to eletrostatic potential
 Charges from ESP fit, RMS=   0.00594 RRMS=   0.04243:
 Charge=   1.00000 Dipole=     2.3494     2.7702     0.0088 Tot=     3.6323
              1
     1  O   -0.572795
     2  O   -0.390561
     3  P    0.797486
     4  O   -0.744467
     5  Ca   1.729204
     6  O   -1.653175
     7  Ca   1.774335
     8  O   -1.663198
     9  Ca   1.723170
 -----------------------------------------------------------------

              Electrostatic Properties (Atomic Units)

 -----------------------------------------------------------------
    Center     Electric         -------- Electric Field --------
               Potential          X             Y             Z
 -----------------------------------------------------------------
    1 Atom    -22.193301
    2 Atom    -22.097173
    3 Atom    -53.883338
    4 Atom    -22.153634
    5 Atom    -80.035087
    6 Atom    -22.339188
    7 Atom    -80.114215
    8 Atom    -22.348785
    9 Atom    -80.066721
 -----------------------------------------------------------------
 1\1\GINC-N028\SP\RB3LYP\6-31+G(d,p)\Ca3O5P1(1+)\TIMN\12-Jun-2015\0\\# 
 b3lyp/6-31+G(d,p) int=ultrafine pop=(ReadRadii,MK)\\mol_17.27.7.pdbcc_
 plusQ.z58528.zip.xyz\\1,1\O,0,-3.09816,-0.21748,-0.00743\O,0,-1.77057,
 0.45946,0.0098\P,0,-1.91597,2.06936,-0.00562\O,0,-0.47237,2.56712,0.00
 241\Ca,0,1.82458,2.19332,0.00255\O,0,2.72415,0.30079,-0.00154\Ca,0,2.2
 7607,-1.81997,-0.00302\O,0,0.29951,-2.67274,-0.0001\Ca,0,-1.7367,-2.10
 023,0.00344\\Version=EM64T-G03RevE.01\State=1-A\HF=-2750.092465\RMSD=5
 .972e-05\Thermal=0.\Dipole=0.9046302,1.0587536,0.0092946\PG=C01 [X(Ca3
 O5P1)]\\@


      TO SUSPECT YOUR OWN MORTALITY IS TO KNOW THE BEGINNING OF TERROR.
      TO LEARN IRREFUTABLY THAT YOU ARE MORTAL IS TO KNOW THE END
      OF TERROR.

                                                  -- JESSICA
                                                     CHILDREN OF DUNE
                                                     BY FRANK HERBERT
 Job cpu time:  0 days  0 hours  1 minutes 49.9 seconds.
 File lengths (MBytes):  RWF=     36 Int=      0 D2E=      0 Chk=     11 Scr=      1
 Normal termination of Gaussian 03 at Fri Jun 12 18:07:59 2015.
