 Entering Gaussian System, Link 0=/home/timn/tmp/g03.e01/g03
 Input=mol_16.4.48.pdbc_plusQ.out.z51598.zip.xyz.gjf
 Output=mol_16.4.48.pdbc_plusQ.out.z51598.zip.xyz.out
 Initial command:
 /home/timn/tmp/g03.e01/l1.exe /home/timn/tmp/g03.e01/Gau-19238.inp -scrdir=/home/timn/tmp/g03.e01/
 Default is to use a total of   2 processors:
                                2 via shared-memory
                                1 via Linda
 Entering Link 1 = /home/timn/tmp/g03.e01/l1.exe PID=     19239.
  
 Copyright (c) 1988,1990,1992,1993,1995,1998,2003,2004,2007, Gaussian, Inc.
                  All Rights Reserved.
  
 This is the Gaussian(R) 03 program.  It is based on the
 the Gaussian(R) 98 system (copyright 1998, Gaussian, Inc.),
 the Gaussian(R) 94 system (copyright 1995, Gaussian, Inc.),
 the Gaussian 92(TM) system (copyright 1992, Gaussian, Inc.),
 the Gaussian 90(TM) system (copyright 1990, Gaussian, Inc.),
 the Gaussian 88(TM) system (copyright 1988, Gaussian, Inc.),
 the Gaussian 86(TM) system (copyright 1986, Carnegie Mellon
 University), and the Gaussian 82(TM) system (copyright 1983,
 Carnegie Mellon University). Gaussian is a federally registered
 trademark of Gaussian, Inc.
  
 This software contains proprietary and confidential information,
 including trade secrets, belonging to Gaussian, Inc.
  
 This software is provided under written license and may be
 used, copied, transmitted, or stored only in accord with that
 written license.
  
 The following legend is applicable only to US Government
 contracts under FAR:
  
                    RESTRICTED RIGHTS LEGEND
  
 Use, reproduction and disclosure by the US Government is
 subject to restrictions as set forth in subparagraphs (a)
 and (c) of the Commercial Computer Software - Restricted
 Rights clause in FAR 52.227-19.
  
 Gaussian, Inc.
 340 Quinnipiac St., Bldg. 40, Wallingford CT 06492
  
  
 ---------------------------------------------------------------
 Warning -- This program may not be used in any manner that
 competes with the business of Gaussian, Inc. or will provide
 assistance to any competitor of Gaussian, Inc.  The licensee
 of this program is prohibited from giving any competitor of
 Gaussian, Inc. access to this program.  By using this program,
 the user acknowledges that Gaussian, Inc. is engaged in the
 business of creating and licensing software in the field of
 computational chemistry and represents and warrants to the
 licensee that it is not a competitor of Gaussian, Inc. and that
 it will not use this program in any manner prohibited above.
 ---------------------------------------------------------------
  

 Cite this work as:
 Gaussian 03, Revision E.01,
 M. J. Frisch, G. W. Trucks, H. B. Schlegel, G. E. Scuseria, 
 M. A. Robb, J. R. Cheeseman, J. A. Montgomery, Jr., T. Vreven, 
 K. N. Kudin, J. C. Burant, J. M. Millam, S. S. Iyengar, J. Tomasi, 
 V. Barone, B. Mennucci, M. Cossi, G. Scalmani, N. Rega, 
 G. A. Petersson, H. Nakatsuji, M. Hada, M. Ehara, K. Toyota, 
 R. Fukuda, J. Hasegawa, M. Ishida, T. Nakajima, Y. Honda, O. Kitao, 
 H. Nakai, M. Klene, X. Li, J. E. Knox, H. P. Hratchian, J. B. Cross, 
 V. Bakken, C. Adamo, J. Jaramillo, R. Gomperts, R. E. Stratmann, 
 O. Yazyev, A. J. Austin, R. Cammi, C. Pomelli, J. W. Ochterski, 
 P. Y. Ayala, K. Morokuma, G. A. Voth, P. Salvador, J. J. Dannenberg, 
 V. G. Zakrzewski, S. Dapprich, A. D. Daniels, M. C. Strain, 
 O. Farkas, D. K. Malick, A. D. Rabuck, K. Raghavachari, 
 J. B. Foresman, J. V. Ortiz, Q. Cui, A. G. Baboul, S. Clifford, 
 J. Cioslowski, B. B. Stefanov, G. Liu, A. Liashenko, P. Piskorz, 
 I. Komaromi, R. L. Martin, D. J. Fox, T. Keith, M. A. Al-Laham, 
 C. Y. Peng, A. Nanayakkara, M. Challacombe, P. M. W. Gill, 
 B. Johnson, W. Chen, M. W. Wong, C. Gonzalez, and J. A. Pople, 
 Gaussian, Inc., Wallingford CT, 2004.
 
 ******************************************
 Gaussian 03:  EM64T-G03RevE.01 11-Sep-2007
                12-Jun-2015 
 ******************************************
 %nproc=2
 Will use up to    2 processors via shared memory.
 Default route:  MP2=Direct MaxDisk=2000MB
 ----------------------------------------------------
 # b3lyp/6-31+G(d,p) int=ultrafine pop=(ReadRadii,MK)
 ----------------------------------------------------

 Warning!  SCF SP cutoffs with diffuse functions may be unreliable.
 Consider SCF=Tight

 1/38=1/1;
 2/17=6,18=5,40=1/2;
 3/5=1,6=6,7=111,11=2,16=1,25=1,30=1,74=-5,75=5/1,2,3;
 4//1;
 5/5=2,32=1,38=5/2;
 6/7=2,8=2,9=2,10=2,15=8,20=101,28=1/1,2;
 99/5=1,9=1/99;
 -----------------------------------------
 mol_16.4.48.pdbc_plusQ.out.z51598.zip.xyz
 -----------------------------------------
 Symbolic Z-matrix:
 Charge =  1 Multiplicity = 1
 Ca                    2.06919  -0.75347   0.00018 
 O                     1.3818    1.46413  -0.00252 
 O                     0.00143  -0.32965   1.19757 
 P                     0.00005   0.79978   0.0004 
 O                    -1.38166   1.46415   0.00112 
 Ca                   -2.06926  -0.75339  -0.00012 
 O                    -0.00149  -0.33108  -1.1971 
 
                          Input orientation:                          
 ---------------------------------------------------------------------
 Center     Atomic     Atomic              Coordinates (Angstroms)
 Number     Number      Type              X           Y           Z
 ---------------------------------------------------------------------
    1         20             0        2.069190   -0.753470    0.000180
    2          8             0        1.381800    1.464130   -0.002520
    3          8             0        0.001430   -0.329650    1.197570
    4         15             0        0.000050    0.799780    0.000400
    5          8             0       -1.381660    1.464150    0.001120
    6         20             0       -2.069260   -0.753390   -0.000120
    7          8             0       -0.001490   -0.331080   -1.197100
 ---------------------------------------------------------------------
                    Distance matrix (angstroms):
                    1          2          3          4          5
     1  Ca   0.000000
     2  O    2.321694   0.000000
     3  O    2.426726   2.561891   0.000000
     4  P    2.587262   1.533167   1.645852   0.000000
     5  O    4.101976   2.763462   2.561669   1.533137   0.000000
     6  Ca   4.138450   4.102099   2.429357   2.587350   2.321697
     7  O    2.428911   2.561892   2.394672   1.647074   2.561923
                    6          7
     6  Ca   0.000000
     7  O    2.426269   0.000000
 Stoichiometry    Ca2O4P(1+)
 Framework group  C1[X(Ca2O4P)]
 Deg. of freedom    15
 Full point group                 C1
 Largest Abelian subgroup         C1      NOp   1
 Largest concise Abelian subgroup C1      NOp   1
                         Standard orientation:                         
 ---------------------------------------------------------------------
 Center     Atomic     Atomic              Coordinates (Angstroms)
 Number     Number      Type              X           Y           Z
 ---------------------------------------------------------------------
    1         20             0        2.069190   -0.753468    0.000183
    2          8             0        1.381799    1.464132   -0.002517
    3          8             0        0.001430   -0.329649    1.197573
    4         15             0        0.000050    0.799781    0.000403
    5          8             0       -1.381661    1.464151    0.001123
    6         20             0       -2.069260   -0.753390   -0.000117
    7          8             0       -0.001490   -0.331079   -1.197097
 ---------------------------------------------------------------------
 Rotational constants (GHZ):      2.7600079      1.1251887      0.9349589
 Standard basis: 6-31+G(d,p) (6D, 7F)
 There are   153 symmetry adapted basis functions of A   symmetry.
 Integral buffers will be    131072 words long.
 Raffenetti 2 integral format.
 Two-electron integral symmetry is turned on.
   153 basis functions,   344 primitive gaussians,   153 cartesian basis functions
    43 alpha electrons       43 beta electrons
       nuclear repulsion energy       666.8312410644 Hartrees.
 NAtoms=    7 NActive=    7 NUniq=    7 SFac= 7.50D-01 NAtFMM=   80 NAOKFM=F Big=F
 One-electron integrals computed using PRISM.
 NBasis=   153 RedAO= T  NBF=   153
 NBsUse=   153 1.00D-06 NBFU=   153
 Harris functional with IExCor=  402 diagonalized for initial guess.
 ExpMin= 7.10D-03 ExpMax= 3.53D+04 ExpMxC= 5.30D+03 IAcc=3 IRadAn=         5 AccDes= 0.00D+00
 HarFok:  IExCor= 402 AccDes= 0.00D+00 IRadAn=         5 IDoV=1
 ScaDFX=  1.000000  1.000000  1.000000  1.000000
 Initial guess orbital symmetries:
       Occupied  (A) (A) (A) (A) (A) (A) (A) (A) (A) (A) (A) (A)
                 (A) (A) (A) (A) (A) (A) (A) (A) (A) (A) (A) (A)
                 (A) (A) (A) (A) (A) (A) (A) (A) (A) (A) (A) (A)
                 (A) (A) (A) (A) (A) (A) (A)
       Virtual   (A) (A) (A) (A) (A) (A) (A) (A) (A) (A) (A) (A)
                 (A) (A) (A) (A) (A) (A) (A) (A) (A) (A) (A) (A)
                 (A) (A) (A) (A) (A) (A) (A) (A) (A) (A) (A) (A)
                 (A) (A) (A) (A) (A) (A) (A) (A) (A) (A) (A) (A)
                 (A) (A) (A) (A) (A) (A) (A) (A) (A) (A) (A) (A)
                 (A) (A) (A) (A) (A) (A) (A) (A) (A) (A) (A) (A)
                 (A) (A) (A) (A) (A) (A) (A) (A) (A) (A) (A) (A)
                 (A) (A) (A) (A) (A) (A) (A) (A) (A) (A) (A) (A)
                 (A) (A) (A) (A) (A) (A) (A) (A) (A) (A) (A) (A)
                 (A) (A)
 The electronic state of the initial guess is 1-A.
 Requested convergence on RMS density matrix=1.00D-04 within 128 cycles.
 Requested convergence on MAX density matrix=1.00D-02.
 Requested convergence on             energy=1.00D-02.
 No special actions if energy rises.
 SCF Done:  E(RB+HF-LYP) =  -1997.39007421     A.U. after    8 cycles
             Convg  =    0.2188D-04             -V/T =  2.0031
             S**2   =   0.0000

 **********************************************************************

            Population analysis using the SCF density.

 **********************************************************************

 Orbital symmetries:
       Occupied  (A) (A) (A) (A) (A) (A) (A) (A) (A) (A) (A) (A)
                 (A) (A) (A) (A) (A) (A) (A) (A) (A) (A) (A) (A)
                 (A) (A) (A) (A) (A) (A) (A) (A) (A) (A) (A) (A)
                 (A) (A) (A) (A) (A) (A) (A)
       Virtual   (A) (A) (A) (A) (A) (A) (A) (A) (A) (A) (A) (A)
                 (A) (A) (A) (A) (A) (A) (A) (A) (A) (A) (A) (A)
                 (A) (A) (A) (A) (A) (A) (A) (A) (A) (A) (A) (A)
                 (A) (A) (A) (A) (A) (A) (A) (A) (A) (A) (A) (A)
                 (A) (A) (A) (A) (A) (A) (A) (A) (A) (A) (A) (A)
                 (A) (A) (A) (A) (A) (A) (A) (A) (A) (A) (A) (A)
                 (A) (A) (A) (A) (A) (A) (A) (A) (A) (A) (A) (A)
                 (A) (A) (A) (A) (A) (A) (A) (A) (A) (A) (A) (A)
                 (A) (A) (A) (A) (A) (A) (A) (A) (A) (A) (A) (A)
                 (A) (A)
 The electronic state is 1-A.
 Alpha  occ. eigenvalues -- -145.57685-145.57684 -77.31325 -19.22605 -19.22602
 Alpha  occ. eigenvalues --  -19.22340 -19.22219 -15.64388 -15.64387 -12.77587
 Alpha  occ. eigenvalues --  -12.77586 -12.77574 -12.77574 -12.77573 -12.77572
 Alpha  occ. eigenvalues --   -6.76046  -4.92394  -4.92387  -4.92310  -2.01220
 Alpha  occ. eigenvalues --   -2.01213  -1.29327  -1.28814  -1.28435  -1.28434
 Alpha  occ. eigenvalues --   -1.28379  -1.28331  -1.12979  -1.05498  -1.03649
 Alpha  occ. eigenvalues --   -1.01660  -0.62390  -0.53169  -0.53130  -0.52451
 Alpha  occ. eigenvalues --   -0.45687  -0.45576  -0.45171  -0.42420  -0.40450
 Alpha  occ. eigenvalues --   -0.39273  -0.37989  -0.35875
 Alpha virt. eigenvalues --   -0.23654  -0.22442  -0.14870  -0.13486  -0.12799
 Alpha virt. eigenvalues --   -0.12505  -0.10777  -0.08512  -0.07910  -0.06633
 Alpha virt. eigenvalues --   -0.05355  -0.05333  -0.04645  -0.04455  -0.04311
 Alpha virt. eigenvalues --   -0.03596  -0.02861  -0.01981  -0.01522  -0.00804
 Alpha virt. eigenvalues --    0.00094   0.00401   0.01147   0.02145   0.02469
 Alpha virt. eigenvalues --    0.02607   0.02882   0.03017   0.03638   0.04699
 Alpha virt. eigenvalues --    0.05034   0.05159   0.06600   0.07260   0.08286
 Alpha virt. eigenvalues --    0.08748   0.11369   0.12089   0.14132   0.14913
 Alpha virt. eigenvalues --    0.15696   0.15788   0.17413   0.17728   0.17935
 Alpha virt. eigenvalues --    0.19650   0.21598   0.22270   0.24354   0.27089
 Alpha virt. eigenvalues --    0.27902   0.29851   0.31743   0.32167   0.32431
 Alpha virt. eigenvalues --    0.35790   0.40325   0.42908   0.44635   0.50840
 Alpha virt. eigenvalues --    0.53431   0.56536   0.57015   0.64778   0.70076
 Alpha virt. eigenvalues --    0.79496   0.90010   0.98092   0.98334   1.10014
 Alpha virt. eigenvalues --    1.12198   1.12859   1.14692   1.16005   1.18969
 Alpha virt. eigenvalues --    1.20106   1.24889   1.24937   1.25840   1.26352
 Alpha virt. eigenvalues --    1.29045   1.44360   1.48595   1.54119   1.68285
 Alpha virt. eigenvalues --    1.70738   1.72885   1.73116   1.76255   1.78222
 Alpha virt. eigenvalues --    1.78681   1.80779   1.81665   1.82254   1.82891
 Alpha virt. eigenvalues --    1.91084   1.95754   1.98543   2.14289   2.15015
 Alpha virt. eigenvalues --    2.25190   2.53173   2.59771   2.74552   2.81952
 Alpha virt. eigenvalues --    3.47289   4.00167   4.02604   4.12000   4.32648
          Condensed to atoms (all electrons):
              1          2          3          4          5          6
     1  Ca  18.228339   0.050955   0.090833   0.053358   0.021975  -0.018832
     2  O    0.050955   8.824036  -0.040559   0.178697  -0.168720   0.021973
     3  O    0.090833  -0.040559   8.921729  -0.045599  -0.040650   0.090494
     4  P    0.053358   0.178697  -0.045599  12.904621   0.178599   0.053352
     5  O    0.021975  -0.168720  -0.040650   0.178599   8.824155   0.050965
     6  Ca  -0.018832   0.021973   0.090494   0.053352   0.050965  18.228314
     7  O    0.090420  -0.040447   0.040789  -0.045281  -0.040325   0.090761
              7
     1  Ca   0.090420
     2  O   -0.040447
     3  O    0.040789
     4  P   -0.045281
     5  O   -0.040325
     6  Ca   0.090761
     7  O    8.923288
 Mulliken atomic charges:
              1
     1  Ca   1.482951
     2  O   -0.825936
     3  O   -1.017036
     4  P    1.722252
     5  O   -0.825999
     6  Ca   1.482973
     7  O   -1.019206
 Sum of Mulliken charges=   1.00000
 Atomic charges with hydrogens summed into heavy atoms:
              1
     1  Ca   1.482951
     2  O   -0.825936
     3  O   -1.017036
     4  P    1.722252
     5  O   -0.825999
     6  Ca   1.482973
     7  O   -1.019206
 Sum of Mulliken charges=   1.00000
 Electronic spatial extent (au):  <R**2>=  1135.0423
 Charge=     1.0000 electrons
 Dipole moment (field-independent basis, Debye):
    X=    -0.0007    Y=   -13.9775    Z=     0.0162  Tot=    13.9775
 Quadrupole moment (field-independent basis, Debye-Ang):
   XX=     3.5068   YY=   -55.5533   ZZ=   -66.8101
   XY=    -0.0012   XZ=     0.0065   YZ=    -0.0033
 Traceless Quadrupole moment (field-independent basis, Debye-Ang):
   XX=    43.1257   YY=   -15.9344   ZZ=   -27.1912
   XY=    -0.0012   XZ=     0.0065   YZ=    -0.0033
 Octapole moment (field-independent basis, Debye-Ang**2):
  XXX=    -0.0123  YYY=   -48.5325  ZZZ=     0.0058  XYY=     0.0012
  XXY=   -85.7982  XXZ=     0.0073  XZZ=    -0.0003  YZZ=    -4.0727
  YYZ=     0.0182  XYZ=     0.0268
 Hexadecapole moment (field-independent basis, Debye-Ang**3):
 XXXX=  -325.2724 YYYY=  -337.3032 ZZZZ=  -197.1063 XXXY=    -0.0057
 XXXZ=     0.0722 YYYX=    -0.0033 YYYZ=     0.0095 ZZZX=    -0.0179
 ZZZY=    -0.0152 XXYY=  -143.3970 XXZZ=  -133.2211 YYZZ=   -84.0152
 XXYZ=     0.0087 YYXZ=     0.0364 ZZXY=    -0.0005
 N-N= 6.668312410644D+02 E-N=-6.052262537300D+03  KE= 1.991121930011D+03
 Merz-Kollman atomic radii used.
 Read replacement radii for each type of atom:
 Rad(20) =   1.188000000000D+00
 Atom Element Radius
    1    20    1.19
    2     8    1.40
    3     8    1.40
    4    15    1.80
    5     8    1.40
    6    20    1.19
    7     8    1.40

 **********************************************************************

            Electrostatic Properties Using The SCF Density

 **********************************************************************

       Atomic Center    1 is at   2.069190 -0.753468  0.000183
       Atomic Center    2 is at   1.381799  1.464132 -0.002517
       Atomic Center    3 is at   0.001430 -0.329649  1.197573
       Atomic Center    4 is at   0.000050  0.799781  0.000403
       Atomic Center    5 is at  -1.381661  1.464151  0.001123
       Atomic Center    6 is at  -2.069260 -0.753390 -0.000117
       Atomic Center    7 is at  -0.001490 -0.331079 -1.197097
     595 points will be used for fitting atomic charges
 Fitting point charges to eletrostatic potential
 Charges from ESP fit, RMS=   0.00408 RRMS=   0.02334:
 Charge=   1.00000 Dipole=    -0.0014   -14.0451     0.0155 Tot=    14.0451
              1
     1  Ca   1.706040
     2  O   -0.869541
     3  O   -1.209163
     4  P    1.747382
     5  O   -0.871551
     6  Ca   1.707486
     7  O   -1.210653
 -----------------------------------------------------------------

              Electrostatic Properties (Atomic Units)

 -----------------------------------------------------------------
    Center     Electric         -------- Electric Field --------
               Potential          X             Y             Z
 -----------------------------------------------------------------
    1 Atom    -79.963690
    2 Atom    -22.238698
    3 Atom    -22.238893
    4 Atom    -53.892249
    5 Atom    -22.238672
    6 Atom    -79.963688
    7 Atom    -22.242333
 -----------------------------------------------------------------
 1\1\GINC-N026\SP\RB3LYP\6-31+G(d,p)\Ca2O4P1(1+)\TIMN\12-Jun-2015\0\\# 
 b3lyp/6-31+G(d,p) int=ultrafine pop=(ReadRadii,MK)\\mol_16.4.48.pdbc_p
 lusQ.out.z51598.zip.xyz\\1,1\Ca,0,2.06919,-0.75347,0.00018\O,0,1.3818,
 1.46413,-0.00252\O,0,0.00143,-0.32965,1.19757\P,0,0.00005,0.79978,0.00
 04\O,0,-1.38166,1.46415,0.00112\Ca,0,-2.06926,-0.75339,-0.00012\O,0,-0
 .00149,-0.33108,-1.1971\\Version=EM64T-G03RevE.01\State=1-A\HF=-1997.3
 900742\RMSD=2.188e-05\Thermal=0.\Dipole=-0.0002798,-5.4991877,0.006388
 8\PG=C01 [X(Ca2O4P1)]\\@


 CONFIDENCE IS WHAT YOU FEEL BEFORE YOU FULLY
 COMPREHEND THE SITUATION.
 Job cpu time:  0 days  0 hours  1 minutes  1.6 seconds.
 File lengths (MBytes):  RWF=     28 Int=      0 D2E=      0 Chk=     10 Scr=      1
 Normal termination of Gaussian 03 at Fri Jun 12 17:48:58 2015.
