 Entering Gaussian System, Link 0=/home/timn/tmp/g03.e01/g03
 Input=mol_17.26.1.pdbcc_plusQ.z58379.zip.xyz.gjf
 Output=mol_17.26.1.pdbcc_plusQ.z58379.zip.xyz.out
 Initial command:
 /home/timn/tmp/g03.e01/l1.exe /home/timn/tmp/g03.e01/Gau-18557.inp -scrdir=/home/timn/tmp/g03.e01/
 Default is to use a total of   2 processors:
                                2 via shared-memory
                                1 via Linda
 Entering Link 1 = /home/timn/tmp/g03.e01/l1.exe PID=     18558.
  
 Copyright (c) 1988,1990,1992,1993,1995,1998,2003,2004,2007, Gaussian, Inc.
                  All Rights Reserved.
  
 This is the Gaussian(R) 03 program.  It is based on the
 the Gaussian(R) 98 system (copyright 1998, Gaussian, Inc.),
 the Gaussian(R) 94 system (copyright 1995, Gaussian, Inc.),
 the Gaussian 92(TM) system (copyright 1992, Gaussian, Inc.),
 the Gaussian 90(TM) system (copyright 1990, Gaussian, Inc.),
 the Gaussian 88(TM) system (copyright 1988, Gaussian, Inc.),
 the Gaussian 86(TM) system (copyright 1986, Carnegie Mellon
 University), and the Gaussian 82(TM) system (copyright 1983,
 Carnegie Mellon University). Gaussian is a federally registered
 trademark of Gaussian, Inc.
  
 This software contains proprietary and confidential information,
 including trade secrets, belonging to Gaussian, Inc.
  
 This software is provided under written license and may be
 used, copied, transmitted, or stored only in accord with that
 written license.
  
 The following legend is applicable only to US Government
 contracts under FAR:
  
                    RESTRICTED RIGHTS LEGEND
  
 Use, reproduction and disclosure by the US Government is
 subject to restrictions as set forth in subparagraphs (a)
 and (c) of the Commercial Computer Software - Restricted
 Rights clause in FAR 52.227-19.
  
 Gaussian, Inc.
 340 Quinnipiac St., Bldg. 40, Wallingford CT 06492
  
  
 ---------------------------------------------------------------
 Warning -- This program may not be used in any manner that
 competes with the business of Gaussian, Inc. or will provide
 assistance to any competitor of Gaussian, Inc.  The licensee
 of this program is prohibited from giving any competitor of
 Gaussian, Inc. access to this program.  By using this program,
 the user acknowledges that Gaussian, Inc. is engaged in the
 business of creating and licensing software in the field of
 computational chemistry and represents and warrants to the
 licensee that it is not a competitor of Gaussian, Inc. and that
 it will not use this program in any manner prohibited above.
 ---------------------------------------------------------------
  

 Cite this work as:
 Gaussian 03, Revision E.01,
 M. J. Frisch, G. W. Trucks, H. B. Schlegel, G. E. Scuseria, 
 M. A. Robb, J. R. Cheeseman, J. A. Montgomery, Jr., T. Vreven, 
 K. N. Kudin, J. C. Burant, J. M. Millam, S. S. Iyengar, J. Tomasi, 
 V. Barone, B. Mennucci, M. Cossi, G. Scalmani, N. Rega, 
 G. A. Petersson, H. Nakatsuji, M. Hada, M. Ehara, K. Toyota, 
 R. Fukuda, J. Hasegawa, M. Ishida, T. Nakajima, Y. Honda, O. Kitao, 
 H. Nakai, M. Klene, X. Li, J. E. Knox, H. P. Hratchian, J. B. Cross, 
 V. Bakken, C. Adamo, J. Jaramillo, R. Gomperts, R. E. Stratmann, 
 O. Yazyev, A. J. Austin, R. Cammi, C. Pomelli, J. W. Ochterski, 
 P. Y. Ayala, K. Morokuma, G. A. Voth, P. Salvador, J. J. Dannenberg, 
 V. G. Zakrzewski, S. Dapprich, A. D. Daniels, M. C. Strain, 
 O. Farkas, D. K. Malick, A. D. Rabuck, K. Raghavachari, 
 J. B. Foresman, J. V. Ortiz, Q. Cui, A. G. Baboul, S. Clifford, 
 J. Cioslowski, B. B. Stefanov, G. Liu, A. Liashenko, P. Piskorz, 
 I. Komaromi, R. L. Martin, D. J. Fox, T. Keith, M. A. Al-Laham, 
 C. Y. Peng, A. Nanayakkara, M. Challacombe, P. M. W. Gill, 
 B. Johnson, W. Chen, M. W. Wong, C. Gonzalez, and J. A. Pople, 
 Gaussian, Inc., Wallingford CT, 2004.
 
 ******************************************
 Gaussian 03:  EM64T-G03RevE.01 11-Sep-2007
                12-Jun-2015 
 ******************************************
 %nproc=2
 Will use up to    2 processors via shared memory.
 Default route:  MP2=Direct MaxDisk=2000MB
 ----------------------------------------------------
 # b3lyp/6-31+G(d,p) int=ultrafine pop=(ReadRadii,MK)
 ----------------------------------------------------

 Warning!  SCF SP cutoffs with diffuse functions may be unreliable.
 Consider SCF=Tight

 1/38=1/1;
 2/17=6,18=5,40=1/2;
 3/5=1,6=6,7=111,11=2,16=1,25=1,30=1,74=-5,75=5/1,2,3;
 4//1;
 5/5=2,32=1,38=5/2;
 6/7=2,8=2,9=2,10=2,15=8,20=101,28=1/1,2;
 99/5=1,9=1/99;
 --------------------------------------
 mol_17.26.1.pdbcc_plusQ.z58379.zip.xyz
 --------------------------------------
 Symbolic Z-matrix:
 Charge =  1 Multiplicity = 1
 O                    -3.50329   0.71754  -0.51522 
 O                    -1.01696   1.68786  -0.58927 
 P                    -2.20047   1.15397   0.29325 
 O                    -1.58835  -0.42087   0.71516 
 Ca                   -3.41555  -1.44385  -0.09781 
 Ca                    0.59149   0.22321   0.10691 
 O                     2.63043  -0.61333  -0.58809 
 O                     2.80753   0.22251   0.7362 
 Ca                    4.74267  -0.28232  -0.13255 
 
                          Input orientation:                          
 ---------------------------------------------------------------------
 Center     Atomic     Atomic              Coordinates (Angstroms)
 Number     Number      Type              X           Y           Z
 ---------------------------------------------------------------------
    1          8             0       -3.503290    0.717540   -0.515220
    2          8             0       -1.016960    1.687860   -0.589270
    3         15             0       -2.200470    1.153970    0.293250
    4          8             0       -1.588350   -0.420870    0.715160
    5         20             0       -3.415550   -1.443850   -0.097810
    6         20             0        0.591490    0.223210    0.106910
    7          8             0        2.630430   -0.613330   -0.588090
    8          8             0        2.807530    0.222510    0.736200
    9         20             0        4.742670   -0.282320   -0.132550
 ---------------------------------------------------------------------
                    Distance matrix (angstroms):
                    1          2          3          4          5
     1  O    0.000000
     2  O    2.669989   0.000000
     3  P    1.594188   1.569897   0.000000
     4  O    2.544957   2.544556   1.741499   0.000000
     5  Ca   2.203074   3.975220   2.894480   2.246346   0.000000
     6  Ca   4.171167   2.284070   2.948911   2.352979   4.344809
     7  O    6.276866   4.312648   5.218975   4.419684   6.122419
     8  O    6.452717   4.304747   5.113109   4.442763   6.496080
     9  Ca   8.315168   6.104387   7.102917   6.389024   8.240565
                    6          7          8          9
     6  Ca   0.000000
     7  O    2.310866   0.000000
     8  O    2.303658   1.575988   0.000000
     9  Ca   4.188699   2.186011   2.180446   0.000000
 Stoichiometry    Ca3O5P(1+)
 Framework group  C1[X(Ca3O5P)]
 Deg. of freedom    21
 Full point group                 C1
 Largest Abelian subgroup         C1      NOp   1
 Largest concise Abelian subgroup C1      NOp   1
                         Standard orientation:                         
 ---------------------------------------------------------------------
 Center     Atomic     Atomic              Coordinates (Angstroms)
 Number     Number      Type              X           Y           Z
 ---------------------------------------------------------------------
    1          8             0       -3.503290    0.717541   -0.515220
    2          8             0       -1.016960    1.687860   -0.589270
    3         15             0       -2.200470    1.153970    0.293250
    4          8             0       -1.588350   -0.420870    0.715160
    5         20             0       -3.415551   -1.443849   -0.097810
    6         20             0        0.591490    0.223210    0.106910
    7          8             0        2.630430   -0.613331   -0.588090
    8          8             0        2.807530    0.222509    0.736200
    9         20             0        4.742670   -0.282322   -0.132550
 ---------------------------------------------------------------------
 Rotational constants (GHZ):      2.2015758      0.2458844      0.2284575
 Standard basis: 6-31+G(d,p) (6D, 7F)
 There are   199 symmetry adapted basis functions of A   symmetry.
 Integral buffers will be    131072 words long.
 Raffenetti 2 integral format.
 Two-electron integral symmetry is turned on.
   199 basis functions,   456 primitive gaussians,   199 cartesian basis functions
    57 alpha electrons       57 beta electrons
       nuclear repulsion energy       905.6415272226 Hartrees.
 NAtoms=    9 NActive=    9 NUniq=    9 SFac= 7.50D-01 NAtFMM=   80 NAOKFM=F Big=F
 One-electron integrals computed using PRISM.
 NBasis=   199 RedAO= T  NBF=   199
 NBsUse=   199 1.00D-06 NBFU=   199
 Harris functional with IExCor=  402 diagonalized for initial guess.
 ExpMin= 7.10D-03 ExpMax= 3.53D+04 ExpMxC= 5.30D+03 IAcc=3 IRadAn=         5 AccDes= 0.00D+00
 HarFok:  IExCor= 402 AccDes= 0.00D+00 IRadAn=         5 IDoV=1
 ScaDFX=  1.000000  1.000000  1.000000  1.000000
 Initial guess orbital symmetries:
       Occupied  (A) (A) (A) (A) (A) (A) (A) (A) (A) (A) (A) (A)
                 (A) (A) (A) (A) (A) (A) (A) (A) (A) (A) (A) (A)
                 (A) (A) (A) (A) (A) (A) (A) (A) (A) (A) (A) (A)
                 (A) (A) (A) (A) (A) (A) (A) (A) (A) (A) (A) (A)
                 (A) (A) (A) (A) (A) (A) (A) (A) (A)
       Virtual   (A) (A) (A) (A) (A) (A) (A) (A) (A) (A) (A) (A)
                 (A) (A) (A) (A) (A) (A) (A) (A) (A) (A) (A) (A)
                 (A) (A) (A) (A) (A) (A) (A) (A) (A) (A) (A) (A)
                 (A) (A) (A) (A) (A) (A) (A) (A) (A) (A) (A) (A)
                 (A) (A) (A) (A) (A) (A) (A) (A) (A) (A) (A) (A)
                 (A) (A) (A) (A) (A) (A) (A) (A) (A) (A) (A) (A)
                 (A) (A) (A) (A) (A) (A) (A) (A) (A) (A) (A) (A)
                 (A) (A) (A) (A) (A) (A) (A) (A) (A) (A) (A) (A)
                 (A) (A) (A) (A) (A) (A) (A) (A) (A) (A) (A) (A)
                 (A) (A) (A) (A) (A) (A) (A) (A) (A) (A) (A) (A)
                 (A) (A) (A) (A) (A) (A) (A) (A) (A) (A) (A) (A)
                 (A) (A) (A) (A) (A) (A) (A) (A) (A) (A)
 The electronic state of the initial guess is 1-A.
 Requested convergence on RMS density matrix=1.00D-04 within 128 cycles.
 Requested convergence on MAX density matrix=1.00D-02.
 Requested convergence on             energy=1.00D-02.
 No special actions if energy rises.
 EnCoef did   100 forward-backward iterations
 EnCoef did     3 forward-backward iterations
 EnCoef did     2 forward-backward iterations
 Rare condition: small coef for last iteration:  0.000D+00
 EnCoef did    19 forward-backward iterations
 EnCoef did   100 forward-backward iterations
 EnCoef did     8 forward-backward iterations
 SCF Done:  E(RB+HF-LYP) =  -2750.14918022     A.U. after   18 cycles
             Convg  =    0.2808D-04             -V/T =  2.0029
             S**2   =   0.0000

 **********************************************************************

            Population analysis using the SCF density.

 **********************************************************************

 Orbital symmetries:
       Occupied  (A) (A) (A) (A) (A) (A) (A) (A) (A) (A) (A) (A)
                 (A) (A) (A) (A) (A) (A) (A) (A) (A) (A) (A) (A)
                 (A) (A) (A) (A) (A) (A) (A) (A) (A) (A) (A) (A)
                 (A) (A) (A) (A) (A) (A) (A) (A) (A) (A) (A) (A)
                 (A) (A) (A) (A) (A) (A) (A) (A) (A)
       Virtual   (A) (A) (A) (A) (A) (A) (A) (A) (A) (A) (A) (A)
                 (A) (A) (A) (A) (A) (A) (A) (A) (A) (A) (A) (A)
                 (A) (A) (A) (A) (A) (A) (A) (A) (A) (A) (A) (A)
                 (A) (A) (A) (A) (A) (A) (A) (A) (A) (A) (A) (A)
                 (A) (A) (A) (A) (A) (A) (A) (A) (A) (A) (A) (A)
                 (A) (A) (A) (A) (A) (A) (A) (A) (A) (A) (A) (A)
                 (A) (A) (A) (A) (A) (A) (A) (A) (A) (A) (A) (A)
                 (A) (A) (A) (A) (A) (A) (A) (A) (A) (A) (A) (A)
                 (A) (A) (A) (A) (A) (A) (A) (A) (A) (A) (A) (A)
                 (A) (A) (A) (A) (A) (A) (A) (A) (A) (A) (A) (A)
                 (A) (A) (A) (A) (A) (A) (A) (A) (A) (A) (A) (A)
                 (A) (A) (A) (A) (A) (A) (A) (A) (A) (A)
 The electronic state is 1-A.
 Alpha  occ. eigenvalues -- -145.56505-145.51000-145.43280 -77.22297 -19.24858
 Alpha  occ. eigenvalues --  -19.24797 -19.19636 -19.18255 -19.17339 -15.63322
 Alpha  occ. eigenvalues --  -15.57897 -15.50205 -12.76567 -12.76505 -12.76424
 Alpha  occ. eigenvalues --  -12.71124 -12.71033 -12.71022 -12.63453 -12.63418
 Alpha  occ. eigenvalues --  -12.63253  -6.67372  -4.83780  -4.83649  -4.83332
 Alpha  occ. eigenvalues --   -2.00261  -1.95050  -1.87649  -1.27861  -1.27794
 Alpha  occ. eigenvalues --   -1.27550  -1.22714  -1.22617  -1.22224  -1.16100
 Alpha  occ. eigenvalues --   -1.15564  -1.15376  -1.07206  -1.04332  -0.98531
 Alpha  occ. eigenvalues --   -0.97372  -0.88675  -0.58380  -0.48165  -0.47834
 Alpha  occ. eigenvalues --   -0.47206  -0.46712  -0.45241  -0.44756  -0.41254
 Alpha  occ. eigenvalues --   -0.37964  -0.36933  -0.35450  -0.34896  -0.34585
 Alpha  occ. eigenvalues --   -0.32867  -0.25859
 Alpha virt. eigenvalues --   -0.24266  -0.19672  -0.15047  -0.14513  -0.12592
 Alpha virt. eigenvalues --   -0.11763  -0.10930  -0.10379  -0.09396  -0.07939
 Alpha virt. eigenvalues --   -0.07400  -0.06427  -0.06111  -0.05377  -0.05162
 Alpha virt. eigenvalues --   -0.04911  -0.04623  -0.03918  -0.03801  -0.03425
 Alpha virt. eigenvalues --   -0.02809  -0.02534  -0.02297  -0.02214  -0.01856
 Alpha virt. eigenvalues --   -0.00747   0.00317   0.00942   0.01277   0.02017
 Alpha virt. eigenvalues --    0.02151   0.02285   0.02951   0.03077   0.04251
 Alpha virt. eigenvalues --    0.05214   0.05448   0.05701   0.05775   0.06259
 Alpha virt. eigenvalues --    0.06579   0.06792   0.07068   0.08108   0.08551
 Alpha virt. eigenvalues --    0.08915   0.10022   0.10505   0.10925   0.11451
 Alpha virt. eigenvalues --    0.12134   0.14048   0.14480   0.14997   0.16561
 Alpha virt. eigenvalues --    0.17906   0.19060   0.19223   0.20077   0.20129
 Alpha virt. eigenvalues --    0.22472   0.23188   0.25385   0.25733   0.26914
 Alpha virt. eigenvalues --    0.27240   0.28819   0.30461   0.31384   0.31701
 Alpha virt. eigenvalues --    0.32135   0.33911   0.35725   0.37058   0.40864
 Alpha virt. eigenvalues --    0.41426   0.43027   0.45894   0.48229   0.50171
 Alpha virt. eigenvalues --    0.51059   0.54970   0.61789   0.67374   0.69578
 Alpha virt. eigenvalues --    0.73851   0.82675   0.85083   0.92997   0.94956
 Alpha virt. eigenvalues --    0.99334   1.05884   1.09572   1.10161   1.16363
 Alpha virt. eigenvalues --    1.17354   1.18382   1.19582   1.21977   1.23061
 Alpha virt. eigenvalues --    1.24404   1.25373   1.27791   1.28457   1.30994
 Alpha virt. eigenvalues --    1.41016   1.47362   1.48804   1.50102   1.53027
 Alpha virt. eigenvalues --    1.56400   1.62590   1.65505   1.71503   1.73886
 Alpha virt. eigenvalues --    1.76211   1.77823   1.78665   1.79528   1.80798
 Alpha virt. eigenvalues --    1.83849   1.85799   1.88856   1.89689   1.91442
 Alpha virt. eigenvalues --    1.98593   2.00789   2.05599   2.11452   2.14192
 Alpha virt. eigenvalues --    2.16653   2.18579   2.38490   2.66093   2.74048
 Alpha virt. eigenvalues --    3.01036   3.53359   3.88867   4.03213   4.05007
 Alpha virt. eigenvalues --    4.07277   4.08573
          Condensed to atoms (all electrons):
              1          2          3          4          5          6
     1  O    8.922547   0.071769  -0.431329   0.045788   0.095863   0.063451
     2  O    0.071769   8.867893  -0.344795  -0.001267  -0.005650   0.180279
     3  P   -0.431329  -0.344795  15.538409  -0.282639   0.212619  -0.315608
     4  O    0.045788  -0.001267  -0.282639   9.085272   0.047238   0.095779
     5  Ca   0.095863  -0.005650   0.212619   0.047238  18.470004  -0.043319
     6  Ca   0.063451   0.180279  -0.315608   0.095779  -0.043319  18.422371
     7  O   -0.000148   0.000145   0.007450   0.001190   0.001230   0.064674
     8  O   -0.000067  -0.001042   0.003794  -0.000382  -0.001463   0.070311
     9  Ca   0.012154   0.014668  -0.076103   0.011403  -0.025386   0.005977
              7          8          9
     1  O   -0.000148  -0.000067   0.012154
     2  O    0.000145  -0.001042   0.014668
     3  P    0.007450   0.003794  -0.076103
     4  O    0.001190  -0.000382   0.011403
     5  Ca   0.001230  -0.001463  -0.025386
     6  Ca   0.064674   0.070311   0.005977
     7  O    8.513391  -0.050974   0.122303
     8  O   -0.050974   8.505760   0.120061
     9  Ca   0.122303   0.120061  18.338406
 Mulliken atomic charges:
              1
     1  O   -0.780028
     2  O   -0.782001
     3  P    0.688203
     4  O   -1.002380
     5  Ca   1.248864
     6  Ca   1.456085
     7  O   -0.659262
     8  O   -0.645997
     9  Ca   1.476516
 Sum of Mulliken charges=   1.00000
 Atomic charges with hydrogens summed into heavy atoms:
              1
     1  O   -0.780028
     2  O   -0.782001
     3  P    0.688203
     4  O   -1.002380
     5  Ca   1.248864
     6  Ca   1.456085
     7  O   -0.659262
     8  O   -0.645997
     9  Ca   1.476516
 Sum of Mulliken charges=   1.00000
 Electronic spatial extent (au):  <R**2>=  4077.2828
 Charge=     1.0000 electrons
 Dipole moment (field-independent basis, Debye):
    X=    13.5462    Y=   -11.3463    Z=    -0.4119  Tot=    17.6750
 Quadrupole moment (field-independent basis, Debye-Ang):
   XX=    64.1081   YY=   -73.8559   ZZ=   -85.1080
   XY=    31.7547   XZ=    -6.6349   YZ=     4.3954
 Traceless Quadrupole moment (field-independent basis, Debye-Ang):
   XX=    95.7267   YY=   -42.2373   ZZ=   -53.4894
   XY=    31.7547   XZ=    -6.6349   YZ=     4.3954
 Octapole moment (field-independent basis, Debye-Ang**2):
  XXX=   523.8496  YYY=   -50.1575  ZZZ=    -4.8098  XYY=   -22.1387
  XXY=  -170.9452  XXZ=   -15.2757  XZZ=    18.3411  YZZ=   -10.1471
  YYZ=     2.0470  XYZ=   -12.3385
 Hexadecapole moment (field-independent basis, Debye-Ang**3):
 XXXX=  -315.0516 YYYY=  -510.1286 ZZZZ=  -202.6889 XXXY=   335.3154
 XXXZ=  -165.2611 YYYX=   123.9123 YYYZ=     5.8270 ZZZX=    -1.8385
 ZZZY=     1.7197 XXYY=  -571.7060 XXZZ=  -713.9933 YYZZ=  -123.7630
 XXYZ=    10.6408 YYXZ=     3.2348 ZZXY=    27.8544
 N-N= 9.056415272226D+02 E-N=-8.313755978918D+03  KE= 2.742190279844D+03
 Merz-Kollman atomic radii used.
 Read replacement radii for each type of atom:
 Rad(20) =   1.188000000000D+00
 Atom Element Radius
    1     8    1.40
    2     8    1.40
    3    15    1.80
    4     8    1.40
    5    20    1.19
    6    20    1.19
    7     8    1.40
    8     8    1.40
    9    20    1.19

 **********************************************************************

            Electrostatic Properties Using The SCF Density

 **********************************************************************

       Atomic Center    1 is at  -3.503290  0.717541 -0.515220
       Atomic Center    2 is at  -1.016960  1.687860 -0.589270
       Atomic Center    3 is at  -2.200470  1.153970  0.293250
       Atomic Center    4 is at  -1.588350 -0.420870  0.715160
       Atomic Center    5 is at  -3.415551 -1.443849 -0.097810
       Atomic Center    6 is at   0.591490  0.223210  0.106910
       Atomic Center    7 is at   2.630430 -0.613331 -0.588090
       Atomic Center    8 is at   2.807530  0.222509  0.736200
       Atomic Center    9 is at   4.742670 -0.282322 -0.132550
     871 points will be used for fitting atomic charges
 Fitting point charges to eletrostatic potential
 Charges from ESP fit, RMS=   0.00886 RRMS=   0.06024:
 Charge=   1.00000 Dipole=    13.8974   -12.0437    -0.5771 Tot=    18.3989
              1
     1  O   -0.678684
     2  O   -0.706396
     3  P    0.419069
     4  O   -1.088984
     5  Ca   1.435051
     6  Ca   1.717913
     7  O   -0.864018
     8  O   -0.782785
     9  Ca   1.548834
 -----------------------------------------------------------------

              Electrostatic Properties (Atomic Units)

 -----------------------------------------------------------------
    Center     Electric         -------- Electric Field --------
               Potential          X             Y             Z
 -----------------------------------------------------------------
    1 Atom    -22.283753
    2 Atom    -22.292287
    3 Atom    -53.990164
    4 Atom    -22.269555
    5 Atom    -80.032166
    6 Atom    -80.107632
    7 Atom    -22.221078
    8 Atom    -22.221758
    9 Atom    -79.975851
 -----------------------------------------------------------------
 1\1\GINC-N021\SP\RB3LYP\6-31+G(d,p)\Ca3O5P1(1+)\TIMN\12-Jun-2015\0\\# 
 b3lyp/6-31+G(d,p) int=ultrafine pop=(ReadRadii,MK)\\mol_17.26.1.pdbcc_
 plusQ.z58379.zip.xyz\\1,1\O,0,-3.50329,0.71754,-0.51522\O,0,-1.01696,1
 .68786,-0.58927\P,0,-2.20047,1.15397,0.29325\O,0,-1.58835,-0.42087,0.7
 1516\Ca,0,-3.41555,-1.44385,-0.09781\Ca,0,0.59149,0.22321,0.10691\O,0,
 2.63043,-0.61333,-0.58809\O,0,2.80753,0.22251,0.7362\Ca,0,4.74267,-0.2
 8232,-0.13255\\Version=EM64T-G03RevE.01\State=1-A\HF=-2750.1491802\RMS
 D=2.808e-05\Thermal=0.\Dipole=5.3294972,-4.4639588,-0.1620567\PG=C01 [
 X(Ca3O5P1)]\\@


 ABALONE: AN EXPRESSION OF DISBELIEF.
 Job cpu time:  0 days  0 hours  3 minutes 42.3 seconds.
 File lengths (MBytes):  RWF=     36 Int=      0 D2E=      0 Chk=     11 Scr=      1
 Normal termination of Gaussian 03 at Fri Jun 12 18:01:19 2015.
