 Entering Gaussian System, Link 0=/home/timn/tmp/g03.e01/g03
 Input=mol_17.25.8.pdbccc_plusQ.z58366.zip.xyz.gjf
 Output=mol_17.25.8.pdbccc_plusQ.z58366.zip.xyz.out
 Initial command:
 /home/timn/tmp/g03.e01/l1.exe /home/timn/tmp/g03.e01/Gau-19844.inp -scrdir=/home/timn/tmp/g03.e01/
 Default is to use a total of   2 processors:
                                2 via shared-memory
                                1 via Linda
 Entering Link 1 = /home/timn/tmp/g03.e01/l1.exe PID=     19845.
  
 Copyright (c) 1988,1990,1992,1993,1995,1998,2003,2004,2007, Gaussian, Inc.
                  All Rights Reserved.
  
 This is the Gaussian(R) 03 program.  It is based on the
 the Gaussian(R) 98 system (copyright 1998, Gaussian, Inc.),
 the Gaussian(R) 94 system (copyright 1995, Gaussian, Inc.),
 the Gaussian 92(TM) system (copyright 1992, Gaussian, Inc.),
 the Gaussian 90(TM) system (copyright 1990, Gaussian, Inc.),
 the Gaussian 88(TM) system (copyright 1988, Gaussian, Inc.),
 the Gaussian 86(TM) system (copyright 1986, Carnegie Mellon
 University), and the Gaussian 82(TM) system (copyright 1983,
 Carnegie Mellon University). Gaussian is a federally registered
 trademark of Gaussian, Inc.
  
 This software contains proprietary and confidential information,
 including trade secrets, belonging to Gaussian, Inc.
  
 This software is provided under written license and may be
 used, copied, transmitted, or stored only in accord with that
 written license.
  
 The following legend is applicable only to US Government
 contracts under FAR:
  
                    RESTRICTED RIGHTS LEGEND
  
 Use, reproduction and disclosure by the US Government is
 subject to restrictions as set forth in subparagraphs (a)
 and (c) of the Commercial Computer Software - Restricted
 Rights clause in FAR 52.227-19.
  
 Gaussian, Inc.
 340 Quinnipiac St., Bldg. 40, Wallingford CT 06492
  
  
 ---------------------------------------------------------------
 Warning -- This program may not be used in any manner that
 competes with the business of Gaussian, Inc. or will provide
 assistance to any competitor of Gaussian, Inc.  The licensee
 of this program is prohibited from giving any competitor of
 Gaussian, Inc. access to this program.  By using this program,
 the user acknowledges that Gaussian, Inc. is engaged in the
 business of creating and licensing software in the field of
 computational chemistry and represents and warrants to the
 licensee that it is not a competitor of Gaussian, Inc. and that
 it will not use this program in any manner prohibited above.
 ---------------------------------------------------------------
  

 Cite this work as:
 Gaussian 03, Revision E.01,
 M. J. Frisch, G. W. Trucks, H. B. Schlegel, G. E. Scuseria, 
 M. A. Robb, J. R. Cheeseman, J. A. Montgomery, Jr., T. Vreven, 
 K. N. Kudin, J. C. Burant, J. M. Millam, S. S. Iyengar, J. Tomasi, 
 V. Barone, B. Mennucci, M. Cossi, G. Scalmani, N. Rega, 
 G. A. Petersson, H. Nakatsuji, M. Hada, M. Ehara, K. Toyota, 
 R. Fukuda, J. Hasegawa, M. Ishida, T. Nakajima, Y. Honda, O. Kitao, 
 H. Nakai, M. Klene, X. Li, J. E. Knox, H. P. Hratchian, J. B. Cross, 
 V. Bakken, C. Adamo, J. Jaramillo, R. Gomperts, R. E. Stratmann, 
 O. Yazyev, A. J. Austin, R. Cammi, C. Pomelli, J. W. Ochterski, 
 P. Y. Ayala, K. Morokuma, G. A. Voth, P. Salvador, J. J. Dannenberg, 
 V. G. Zakrzewski, S. Dapprich, A. D. Daniels, M. C. Strain, 
 O. Farkas, D. K. Malick, A. D. Rabuck, K. Raghavachari, 
 J. B. Foresman, J. V. Ortiz, Q. Cui, A. G. Baboul, S. Clifford, 
 J. Cioslowski, B. B. Stefanov, G. Liu, A. Liashenko, P. Piskorz, 
 I. Komaromi, R. L. Martin, D. J. Fox, T. Keith, M. A. Al-Laham, 
 C. Y. Peng, A. Nanayakkara, M. Challacombe, P. M. W. Gill, 
 B. Johnson, W. Chen, M. W. Wong, C. Gonzalez, and J. A. Pople, 
 Gaussian, Inc., Wallingford CT, 2004.
 
 ******************************************
 Gaussian 03:  EM64T-G03RevE.01 11-Sep-2007
                12-Jun-2015 
 ******************************************
 %nproc=2
 Will use up to    2 processors via shared memory.
 Default route:  MP2=Direct MaxDisk=2000MB
 ----------------------------------------------------
 # b3lyp/6-31+G(d,p) int=ultrafine pop=(ReadRadii,MK)
 ----------------------------------------------------

 Warning!  SCF SP cutoffs with diffuse functions may be unreliable.
 Consider SCF=Tight

 1/38=1/1;
 2/17=6,18=5,40=1/2;
 3/5=1,6=6,7=111,11=2,16=1,25=1,30=1,74=-5,75=5/1,2,3;
 4//1;
 5/5=2,32=1,38=5/2;
 6/7=2,8=2,9=2,10=2,15=8,20=101,28=1/1,2;
 99/5=1,9=1/99;
 ---------------------------------------
 mol_17.25.8.pdbccc_plusQ.z58366.zip.xyz
 ---------------------------------------
 Symbolic Z-matrix:
 Charge =  1 Multiplicity = 1
 O                    -3.14785  -2.40897   0. 
 O                    -3.15285  -4.92368   0. 
 O                    -4.00631  -1.15962   0. 
 P                    -4.10207  -3.77568   0. 
 Ca                   -1.84084  -0.46188   0. 
 O                     0.        0.64919   0. 
 Ca                    1.86245   1.68988   0. 
 O                     3.80928   2.71575   0. 
 Ca                    5.65404   3.65469   0. 
 
                          Input orientation:                          
 ---------------------------------------------------------------------
 Center     Atomic     Atomic              Coordinates (Angstroms)
 Number     Number      Type              X           Y           Z
 ---------------------------------------------------------------------
    1          8             0       -3.147850   -2.408970    0.000000
    2          8             0       -3.152850   -4.923680    0.000000
    3          8             0       -4.006310   -1.159620    0.000000
    4         15             0       -4.102070   -3.775680    0.000000
    5         20             0       -1.840840   -0.461880    0.000000
    6          8             0        0.000000    0.649190    0.000000
    7         20             0        1.862450    1.689880    0.000000
    8          8             0        3.809280    2.715750    0.000000
    9         20             0        5.654040    3.654690    0.000000
 ---------------------------------------------------------------------
                    Distance matrix (angstroms):
                    1          2          3          4          5
     1  O    0.000000
     2  O    2.514715   0.000000
     3  O    1.515859   3.859604   0.000000
     4  P    1.666863   1.489605   2.617812   0.000000
     5  Ca   2.345087   4.650702   2.275105   4.011787   0.000000
     6  O    4.388770   6.402917   4.395715   6.033776   2.150155
     7  Ca   6.473305   8.300145   6.523955   8.089984   4.283040
     8  O    8.640857  10.335964   8.723643  10.233676   6.482375
     9  Ca  10.688369  12.294297  10.793514  12.263445   8.550987
                    6          7          8          9
     6  O    0.000000
     7  Ca   2.133484   0.000000
     8  O    4.333738   2.200581   0.000000
     9  Ca   6.403218   4.270437   2.069963   0.000000
 Stoichiometry    Ca3O5P(1+)
 Framework group  CS[SG(Ca3O5P)]
 Deg. of freedom    15
 Full point group                 CS
 Largest Abelian subgroup         CS      NOp   2
 Largest concise Abelian subgroup C1      NOp   1
                         Standard orientation:                         
 ---------------------------------------------------------------------
 Center     Atomic     Atomic              Coordinates (Angstroms)
 Number     Number      Type              X           Y           Z
 ---------------------------------------------------------------------
    1          8             0       -3.147855   -2.408965    0.000000
    2          8             0       -3.152858   -4.923675    0.000000
    3          8             0       -4.006313   -1.159614    0.000000
    4         15             0       -4.102077   -3.775674    0.000000
    5         20             0       -1.840842   -0.461877    0.000000
    6          8             0        0.000000    0.649190    0.000000
    7         20             0        1.862452    1.689878    0.000000
    8          8             0        3.809283    2.715745    0.000000
    9         20             0        5.654044    3.654682    0.000000
 ---------------------------------------------------------------------
 Rotational constants (GHZ):      3.4029118      0.1134359      0.1097765
 Standard basis: 6-31+G(d,p) (6D, 7F)
 There are   147 symmetry adapted basis functions of A'  symmetry.
 There are    52 symmetry adapted basis functions of A"  symmetry.
 Integral buffers will be    131072 words long.
 Raffenetti 2 integral format.
 Two-electron integral symmetry is turned on.
   199 basis functions,   456 primitive gaussians,   199 cartesian basis functions
    57 alpha electrons       57 beta electrons
       nuclear repulsion energy       736.9452994959 Hartrees.
 NAtoms=    9 NActive=    9 NUniq=    9 SFac= 7.50D-01 NAtFMM=   80 NAOKFM=F Big=F
 One-electron integrals computed using PRISM.
 NBasis=   199 RedAO= T  NBF=   147    52
 NBsUse=   199 1.00D-06 NBFU=   147    52
 Harris functional with IExCor=  402 diagonalized for initial guess.
 ExpMin= 7.10D-03 ExpMax= 3.53D+04 ExpMxC= 5.30D+03 IAcc=3 IRadAn=         5 AccDes= 0.00D+00
 HarFok:  IExCor= 402 AccDes= 0.00D+00 IRadAn=         5 IDoV=1
 ScaDFX=  1.000000  1.000000  1.000000  1.000000
 Initial guess orbital symmetries:
       Occupied  (A') (A') (A') (A') (A') (A') (A') (A') (A') (A')
                 (A') (A') (A') (A') (A") (A') (A') (A') (A") (A")
                 (A') (A') (A') (A') (A") (A') (A') (A') (A') (A')
                 (A') (A') (A") (A') (A") (A") (A') (A') (A') (A')
                 (A') (A') (A') (A') (A') (A') (A") (A') (A') (A")
                 (A') (A") (A") (A') (A') (A") (A')
       Virtual   (A') (A") (A') (A') (A') (A") (A') (A") (A') (A')
                 (A") (A') (A') (A') (A') (A') (A') (A") (A') (A")
                 (A') (A') (A") (A') (A') (A') (A') (A') (A") (A')
                 (A") (A') (A') (A') (A') (A") (A") (A') (A') (A')
                 (A") (A") (A') (A') (A") (A') (A') (A") (A') (A")
                 (A') (A') (A") (A') (A') (A") (A') (A') (A') (A')
                 (A") (A') (A") (A') (A') (A') (A") (A') (A') (A")
                 (A') (A') (A') (A') (A") (A') (A') (A') (A') (A')
                 (A') (A') (A") (A') (A") (A') (A') (A') (A') (A")
                 (A') (A") (A") (A') (A") (A') (A") (A') (A') (A')
                 (A') (A') (A') (A') (A') (A') (A') (A") (A') (A')
                 (A') (A') (A") (A') (A") (A") (A') (A") (A') (A")
                 (A') (A') (A") (A') (A") (A") (A') (A') (A') (A')
                 (A") (A') (A') (A') (A') (A') (A') (A') (A') (A')
                 (A') (A')
 The electronic state of the initial guess is 1-A'.
 Requested convergence on RMS density matrix=1.00D-04 within 128 cycles.
 Requested convergence on MAX density matrix=1.00D-02.
 Requested convergence on             energy=1.00D-02.
 No special actions if energy rises.
 EnCoef did     3 forward-backward iterations
 EnCoef did     2 forward-backward iterations
 EnCoef did     5 forward-backward iterations
 EnCoef did     2 forward-backward iterations
 EnCoef did     3 forward-backward iterations
 SCF Done:  E(RB+HF-LYP) =  -2750.04316328     A.U. after   14 cycles
             Convg  =    0.2287D-04             -V/T =  2.0029
             S**2   =   0.0000

 **********************************************************************

            Population analysis using the SCF density.

 **********************************************************************

 Orbital symmetries:
       Occupied  (A') (A') (A') (A') (A') (A') (A') (A') (A') (A')
                 (A') (A') (A") (A') (A') (A") (A') (A') (A") (A')
                 (A') (A') (A") (A') (A') (A') (A') (A') (A") (A')
                 (A') (A") (A') (A') (A") (A') (A') (A') (A') (A')
                 (A') (A') (A') (A') (A') (A") (A") (A') (A') (A")
                 (A') (A') (A') (A') (A") (A") (A')
       Virtual   (A') (A") (A') (A') (A") (A') (A') (A') (A") (A')
                 (A') (A") (A') (A") (A') (A') (A') (A") (A') (A')
                 (A') (A') (A") (A') (A') (A') (A') (A') (A") (A')
                 (A") (A') (A') (A") (A') (A') (A") (A') (A') (A')
                 (A") (A') (A') (A") (A') (A") (A') (A') (A") (A')
                 (A") (A") (A') (A') (A') (A") (A') (A') (A') (A')
                 (A') (A") (A") (A') (A') (A") (A') (A') (A') (A")
                 (A') (A') (A') (A") (A') (A') (A') (A') (A') (A')
                 (A') (A') (A") (A") (A') (A') (A') (A') (A') (A")
                 (A") (A') (A') (A") (A") (A') (A') (A") (A') (A')
                 (A') (A') (A') (A') (A') (A') (A') (A") (A') (A')
                 (A') (A') (A") (A") (A') (A") (A') (A') (A") (A')
                 (A") (A') (A") (A") (A') (A") (A') (A') (A') (A')
                 (A") (A') (A') (A') (A') (A') (A') (A') (A') (A')
                 (A') (A')
 The electronic state is 1-A'.
 Alpha  occ. eigenvalues -- -145.58796-145.43911-145.42864 -77.23313 -19.28332
 Alpha  occ. eigenvalues --  -19.20874 -19.20849 -19.17694 -19.10879 -15.65564
 Alpha  occ. eigenvalues --  -15.50930 -15.49811 -12.78783 -12.78783 -12.78648
 Alpha  occ. eigenvalues --  -12.64196 -12.64196 -12.63876 -12.63086 -12.63055
 Alpha  occ. eigenvalues --  -12.62791  -6.69131  -4.85468  -4.85409  -4.84882
 Alpha  occ. eigenvalues --   -2.02434  -1.88437  -1.87248  -1.29950  -1.29949
 Alpha  occ. eigenvalues --   -1.29052  -1.16538  -1.16536  -1.16283  -1.15304
 Alpha  occ. eigenvalues --   -1.15201  -1.15035  -1.11387  -1.04673  -0.91726
 Alpha  occ. eigenvalues --   -0.89155  -0.84838  -0.62352  -0.50439  -0.49527
 Alpha  occ. eigenvalues --   -0.48383  -0.40688  -0.40419  -0.38479  -0.35766
 Alpha  occ. eigenvalues --   -0.35765  -0.35216  -0.32926  -0.30855  -0.30204
 Alpha  occ. eigenvalues --   -0.29218  -0.29201
 Alpha virt. eigenvalues --   -0.26085  -0.16154  -0.16153  -0.15764  -0.13869
 Alpha virt. eigenvalues --   -0.13355  -0.11003  -0.08768  -0.08748  -0.08539
 Alpha virt. eigenvalues --   -0.07983  -0.06064  -0.05985  -0.05745  -0.05711
 Alpha virt. eigenvalues --   -0.04504  -0.04190  -0.03736  -0.03621  -0.03503
 Alpha virt. eigenvalues --   -0.03123  -0.02431  -0.02126  -0.01974  -0.01589
 Alpha virt. eigenvalues --   -0.00702   0.00089   0.00629   0.00894   0.01252
 Alpha virt. eigenvalues --    0.01253   0.01374   0.01812   0.02564   0.04354
 Alpha virt. eigenvalues --    0.04620   0.04635   0.04976   0.05609   0.07210
 Alpha virt. eigenvalues --    0.07913   0.08466   0.08646   0.09660   0.09772
 Alpha virt. eigenvalues --    0.10474   0.10807   0.11315   0.11463   0.12097
 Alpha virt. eigenvalues --    0.12102   0.13016   0.13027   0.14611   0.16038
 Alpha virt. eigenvalues --    0.16307   0.17488   0.18425   0.19968   0.20638
 Alpha virt. eigenvalues --    0.21966   0.22783   0.23113   0.25003   0.27102
 Alpha virt. eigenvalues --    0.27778   0.27806   0.29682   0.30579   0.32992
 Alpha virt. eigenvalues --    0.33191   0.35213   0.36161   0.37908   0.38621
 Alpha virt. eigenvalues --    0.40448   0.42909   0.45128   0.46625   0.49332
 Alpha virt. eigenvalues --    0.50983   0.57328   0.61469   0.63670   0.65785
 Alpha virt. eigenvalues --    0.67009   0.84596   1.01675   1.05334   1.08551
 Alpha virt. eigenvalues --    1.11770   1.11893   1.14444   1.15193   1.16689
 Alpha virt. eigenvalues --    1.18636   1.18966   1.19319   1.20718   1.22617
 Alpha virt. eigenvalues --    1.23368   1.24769   1.30388   1.35391   1.37533
 Alpha virt. eigenvalues --    1.41867   1.46812   1.50071   1.55353   1.59630
 Alpha virt. eigenvalues --    1.62721   1.68932   1.71347   1.76125   1.76125
 Alpha virt. eigenvalues --    1.77400   1.78775   1.80083   1.80390   1.82052
 Alpha virt. eigenvalues --    1.82592   1.82650   1.87838   1.89994   1.91108
 Alpha virt. eigenvalues --    1.98063   2.00301   2.09401   2.12400   2.19942
 Alpha virt. eigenvalues --    2.23949   2.29994   2.33720   2.42568   2.79267
 Alpha virt. eigenvalues --    3.09607   3.46405   3.86900   3.93785   3.97021
 Alpha virt. eigenvalues --    4.07153   4.17019
          Condensed to atoms (all electrons):
              1          2          3          4          5          6
     1  O    8.649691   0.045339  -0.053336  -0.325215   0.016105   0.000241
     2  O    0.045339   8.376094   0.005908   0.099194  -0.007638   0.000150
     3  O   -0.053336   0.005908   8.466680   0.008170   0.113027  -0.000730
     4  P   -0.325215   0.099194   0.008170  14.556134  -0.018561  -0.000946
     5  Ca   0.016105  -0.007638   0.113027  -0.018561  18.493148   0.218949
     6  O    0.000241   0.000150  -0.000730  -0.000946   0.218949   8.800604
     7  Ca   0.019628   0.009437   0.011008  -0.021314  -0.105495   0.227648
     8  O    0.000000   0.000000   0.000000   0.000001  -0.001019  -0.002260
     9  Ca   0.000726   0.000565   0.000394  -0.000167  -0.090456  -0.004569
              7          8          9
     1  O    0.019628   0.000000   0.000726
     2  O    0.009437   0.000000   0.000565
     3  O    0.011008   0.000000   0.000394
     4  P   -0.021314   0.000001  -0.000167
     5  Ca  -0.105495  -0.001019  -0.090456
     6  O    0.227648  -0.002260  -0.004569
     7  Ca  18.419057   0.169792  -0.029435
     8  O    0.169792   8.749452   0.260921
     9  Ca  -0.029435   0.260921  18.397010
 Mulliken atomic charges:
              1
     1  O   -0.353179
     2  O   -0.529050
     3  O   -0.551120
     4  P    0.702704
     5  Ca   1.381938
     6  O   -1.239088
     7  Ca   1.299672
     8  O   -1.176887
     9  Ca   1.465010
 Sum of Mulliken charges=   1.00000
 Atomic charges with hydrogens summed into heavy atoms:
              1
     1  O   -0.353179
     2  O   -0.529050
     3  O   -0.551120
     4  P    0.702704
     5  Ca   1.381938
     6  O   -1.239088
     7  Ca   1.299672
     8  O   -1.176887
     9  Ca   1.465010
 Sum of Mulliken charges=   1.00000
 Electronic spatial extent (au):  <R**2>=  8189.7327
 Charge=     1.0000 electrons
 Dipole moment (field-independent basis, Debye):
    X=    28.4225    Y=    20.5685    Z=     0.0000  Tot=    35.0843
 Quadrupole moment (field-independent basis, Debye-Ang):
   XX=    79.5605   YY=   -30.3622   ZZ=   -74.6939
   XY=    99.4599   XZ=     0.0000   YZ=     0.0000
 Traceless Quadrupole moment (field-independent basis, Debye-Ang):
   XX=    88.0590   YY=   -21.8636   ZZ=   -66.1954
   XY=    99.4599   XZ=     0.0000   YZ=     0.0000
 Octapole moment (field-independent basis, Debye-Ang**2):
  XXX=  1181.3043  YYY=   453.1090  ZZZ=     0.0000  XYY=   482.3996
  XXY=   687.5843  XXZ=     0.0000  XZZ=    19.7815  YZZ=    13.6087
  YYZ=     0.0000  XYZ=     0.0000
 Hexadecapole moment (field-independent basis, Debye-Ang**3):
 XXXX=   458.7391 YYYY= -3244.6624 ZZZZ=   -87.9863 XXXY=  2031.6534
 XXXZ=     0.0000 YYYX=  -645.5654 YYYZ=     0.0000 ZZZX=     0.0000
 ZZZY=     0.0000 XXYY=  1032.9636 XXZZ=  -914.9577 YYZZ=  -580.8509
 XXYZ=     0.0000 YYXZ=     0.0000 ZZXY=  -643.2992
 N-N= 7.369452994959D+02 E-N=-7.977787710039D+03  KE= 2.742055710684D+03
 Symmetry A'   KE= 2.475554200573D+03
 Symmetry A"   KE= 2.665015101111D+02
 Merz-Kollman atomic radii used.
 Read replacement radii for each type of atom:
 Rad(20) =   1.188000000000D+00
 Atom Element Radius
    1     8    1.40
    2     8    1.40
    3     8    1.40
    4    15    1.80
    5    20    1.19
    6     8    1.40
    7    20    1.19
    8     8    1.40
    9    20    1.19

 **********************************************************************

            Electrostatic Properties Using The SCF Density

 **********************************************************************

       Atomic Center    1 is at  -3.147855 -2.408965  0.000000
       Atomic Center    2 is at  -3.152858 -4.923675  0.000000
       Atomic Center    3 is at  -4.006313 -1.159614  0.000000
       Atomic Center    4 is at  -4.102077 -3.775674  0.000000
       Atomic Center    5 is at  -1.840842 -0.461877  0.000000
       Atomic Center    6 is at   0.000000  0.649190  0.000000
       Atomic Center    7 is at   1.862452  1.689878  0.000000
       Atomic Center    8 is at   3.809283  2.715745  0.000000
       Atomic Center    9 is at   5.654044  3.654682  0.000000
    1016 points will be used for fitting atomic charges
 Fitting point charges to eletrostatic potential
 Charges from ESP fit, RMS=   0.00574 RRMS=   0.04254:
 Charge=   1.00000 Dipole=    29.1963    21.1373     0.0000 Tot=    36.0445
              1
     1  O   -0.334225
     2  O   -0.464743
     3  O   -0.672457
     4  P    0.592733
     5  Ca   1.765755
     6  O   -1.759688
     7  Ca   1.851007
     8  O   -1.615021
     9  Ca   1.636640
 -----------------------------------------------------------------

              Electrostatic Properties (Atomic Units)

 -----------------------------------------------------------------
    Center     Electric         -------- Electric Field --------
               Potential          X             Y             Z
 -----------------------------------------------------------------
    1 Atom    -22.183346
    2 Atom    -22.260189
    3 Atom    -22.265243
    4 Atom    -53.985729
    5 Atom    -80.111137
    6 Atom    -22.353673
    7 Atom    -80.101535
    8 Atom    -22.284895
    9 Atom    -79.953946
 -----------------------------------------------------------------
 1\1\GINC-N026\SP\RB3LYP\6-31+G(d,p)\Ca3O5P1(1+)\TIMN\12-Jun-2015\0\\# 
 b3lyp/6-31+G(d,p) int=ultrafine pop=(ReadRadii,MK)\\mol_17.25.8.pdbccc
 _plusQ.z58366.zip.xyz\\1,1\O,0,-3.14785,-2.40897,0.\O,0,-3.15285,-4.92
 368,0.\O,0,-4.00631,-1.15962,0.\P,0,-4.10207,-3.77568,0.\Ca,0,-1.84084
 ,-0.46188,0.\O,0,0.,0.64919,0.\Ca,0,1.86245,1.68988,0.\O,0,3.80928,2.7
 1575,0.\Ca,0,5.65404,3.65469,0.\\Version=EM64T-G03RevE.01\State=1-A'\H
 F=-2750.0431633\RMSD=2.287e-05\Thermal=0.\Dipole=11.1822796,8.0923029,
 0.\PG=CS [SG(Ca3O5P1)]\\@


      LET US REMEMBER, PLEASE, THAT THE SEARCH FOR THE CONSTITUTION
      OF THE WORLD IS ONE OF THE GREATEST AND NOBLEST PROBLEMS PRESENTED 
      BY NATURE.

                                                  -- GALILEO
 Job cpu time:  0 days  0 hours  1 minutes 46.1 seconds.
 File lengths (MBytes):  RWF=     36 Int=      0 D2E=      0 Chk=     11 Scr=      1
 Normal termination of Gaussian 03 at Fri Jun 12 17:59:05 2015.
