 Entering Gaussian System, Link 0=/home/timn/tmp/g03.e01/g03
 Input=mol_17.26.59.pdbcc_plusQ.z58470.zip.xyz.gjf
 Output=mol_17.26.59.pdbcc_plusQ.z58470.zip.xyz.out
 Initial command:
 /home/timn/tmp/g03.e01/l1.exe /home/timn/tmp/g03.e01/Gau-18610.inp -scrdir=/home/timn/tmp/g03.e01/
 Default is to use a total of   2 processors:
                                2 via shared-memory
                                1 via Linda
 Entering Link 1 = /home/timn/tmp/g03.e01/l1.exe PID=     18611.
  
 Copyright (c) 1988,1990,1992,1993,1995,1998,2003,2004,2007, Gaussian, Inc.
                  All Rights Reserved.
  
 This is the Gaussian(R) 03 program.  It is based on the
 the Gaussian(R) 98 system (copyright 1998, Gaussian, Inc.),
 the Gaussian(R) 94 system (copyright 1995, Gaussian, Inc.),
 the Gaussian 92(TM) system (copyright 1992, Gaussian, Inc.),
 the Gaussian 90(TM) system (copyright 1990, Gaussian, Inc.),
 the Gaussian 88(TM) system (copyright 1988, Gaussian, Inc.),
 the Gaussian 86(TM) system (copyright 1986, Carnegie Mellon
 University), and the Gaussian 82(TM) system (copyright 1983,
 Carnegie Mellon University). Gaussian is a federally registered
 trademark of Gaussian, Inc.
  
 This software contains proprietary and confidential information,
 including trade secrets, belonging to Gaussian, Inc.
  
 This software is provided under written license and may be
 used, copied, transmitted, or stored only in accord with that
 written license.
  
 The following legend is applicable only to US Government
 contracts under FAR:
  
                    RESTRICTED RIGHTS LEGEND
  
 Use, reproduction and disclosure by the US Government is
 subject to restrictions as set forth in subparagraphs (a)
 and (c) of the Commercial Computer Software - Restricted
 Rights clause in FAR 52.227-19.
  
 Gaussian, Inc.
 340 Quinnipiac St., Bldg. 40, Wallingford CT 06492
  
  
 ---------------------------------------------------------------
 Warning -- This program may not be used in any manner that
 competes with the business of Gaussian, Inc. or will provide
 assistance to any competitor of Gaussian, Inc.  The licensee
 of this program is prohibited from giving any competitor of
 Gaussian, Inc. access to this program.  By using this program,
 the user acknowledges that Gaussian, Inc. is engaged in the
 business of creating and licensing software in the field of
 computational chemistry and represents and warrants to the
 licensee that it is not a competitor of Gaussian, Inc. and that
 it will not use this program in any manner prohibited above.
 ---------------------------------------------------------------
  

 Cite this work as:
 Gaussian 03, Revision E.01,
 M. J. Frisch, G. W. Trucks, H. B. Schlegel, G. E. Scuseria, 
 M. A. Robb, J. R. Cheeseman, J. A. Montgomery, Jr., T. Vreven, 
 K. N. Kudin, J. C. Burant, J. M. Millam, S. S. Iyengar, J. Tomasi, 
 V. Barone, B. Mennucci, M. Cossi, G. Scalmani, N. Rega, 
 G. A. Petersson, H. Nakatsuji, M. Hada, M. Ehara, K. Toyota, 
 R. Fukuda, J. Hasegawa, M. Ishida, T. Nakajima, Y. Honda, O. Kitao, 
 H. Nakai, M. Klene, X. Li, J. E. Knox, H. P. Hratchian, J. B. Cross, 
 V. Bakken, C. Adamo, J. Jaramillo, R. Gomperts, R. E. Stratmann, 
 O. Yazyev, A. J. Austin, R. Cammi, C. Pomelli, J. W. Ochterski, 
 P. Y. Ayala, K. Morokuma, G. A. Voth, P. Salvador, J. J. Dannenberg, 
 V. G. Zakrzewski, S. Dapprich, A. D. Daniels, M. C. Strain, 
 O. Farkas, D. K. Malick, A. D. Rabuck, K. Raghavachari, 
 J. B. Foresman, J. V. Ortiz, Q. Cui, A. G. Baboul, S. Clifford, 
 J. Cioslowski, B. B. Stefanov, G. Liu, A. Liashenko, P. Piskorz, 
 I. Komaromi, R. L. Martin, D. J. Fox, T. Keith, M. A. Al-Laham, 
 C. Y. Peng, A. Nanayakkara, M. Challacombe, P. M. W. Gill, 
 B. Johnson, W. Chen, M. W. Wong, C. Gonzalez, and J. A. Pople, 
 Gaussian, Inc., Wallingford CT, 2004.
 
 ******************************************
 Gaussian 03:  EM64T-G03RevE.01 11-Sep-2007
                12-Jun-2015 
 ******************************************
 %nproc=2
 Will use up to    2 processors via shared memory.
 Default route:  MP2=Direct MaxDisk=2000MB
 ----------------------------------------------------
 # b3lyp/6-31+G(d,p) int=ultrafine pop=(ReadRadii,MK)
 ----------------------------------------------------

 Warning!  SCF SP cutoffs with diffuse functions may be unreliable.
 Consider SCF=Tight

 1/38=1/1;
 2/17=6,18=5,40=1/2;
 3/5=1,6=6,7=111,11=2,16=1,25=1,30=1,74=-5,75=5/1,2,3;
 4//1;
 5/5=2,32=1,38=5/2;
 6/7=2,8=2,9=2,10=2,15=8,20=101,28=1/1,2;
 99/5=1,9=1/99;
 ---------------------------------------
 mol_17.26.59.pdbcc_plusQ.z58470.zip.xyz
 ---------------------------------------
 Symbolic Z-matrix:
 Charge =  1 Multiplicity = 1
 Ca                    0.89031   1.84295   0.36544 
 O                     2.53149   1.2069   -0.94697 
 O                     2.51148   0.00173  -0.09446 
 O                     2.537    -1.20557  -0.94342 
 Ca                    0.89263  -1.8421    0.36474 
 P                    -1.28207  -0.0011    1.25761 
 O                    -1.29535   1.31076   0.07573 
 Ca                   -2.81788  -0.00093  -0.93939 
 O                    -1.2934   -1.31159   0.07411 
 
                          Input orientation:                          
 ---------------------------------------------------------------------
 Center     Atomic     Atomic              Coordinates (Angstroms)
 Number     Number      Type              X           Y           Z
 ---------------------------------------------------------------------
    1         20             0        0.890310    1.842950    0.365440
    2          8             0        2.531490    1.206900   -0.946970
    3          8             0        2.511480    0.001730   -0.094460
    4          8             0        2.537000   -1.205570   -0.943420
    5         20             0        0.892630   -1.842100    0.364740
    6         15             0       -1.282070   -0.001100    1.257610
    7          8             0       -1.295350    1.310760    0.075730
    8         20             0       -2.817880   -0.000930   -0.939390
    9          8             0       -1.293400   -1.311590    0.074110
 ---------------------------------------------------------------------
                    Distance matrix (angstroms):
                    1          2          3          4          5
     1  Ca   0.000000
     2  O    2.195553   0.000000
     3  O    2.495955   1.476350   0.000000
     4  O    3.703806   2.412479   1.476129   0.000000
     5  Ca   3.685051   3.701736   2.496247   2.195542   0.000000
     6  P    2.985921   4.567568   4.027297   4.569527   2.985937
     7  O    2.268098   3.962500   4.029203   4.696540   3.848546
     8  Ca   4.342021   5.484038   5.395924   5.488708   4.342643
     9  O    3.847673   4.692034   4.028689   3.964665   2.268179
                    6          7          8          9
     6  P    0.000000
     7  O    1.765784   0.000000
     8  Ca   2.680582   2.251465   0.000000
     9  O    1.765838   2.622351   2.251455   0.000000
 Stoichiometry    Ca3O5P(1+)
 Framework group  C1[X(Ca3O5P)]
 Deg. of freedom    21
 Full point group                 C1
 Largest Abelian subgroup         C1      NOp   1
 Largest concise Abelian subgroup C1      NOp   1
                         Standard orientation:                         
 ---------------------------------------------------------------------
 Center     Atomic     Atomic              Coordinates (Angstroms)
 Number     Number      Type              X           Y           Z
 ---------------------------------------------------------------------
    1         20             0        0.890310    1.842953    0.365441
    2          8             0        2.531490    1.206903   -0.946969
    3          8             0        2.511481    0.001733   -0.094459
    4          8             0        2.537001   -1.205567   -0.943419
    5         20             0        0.892631   -1.842097    0.364741
    6         15             0       -1.282069   -0.001098    1.257611
    7          8             0       -1.295350    1.310762    0.075731
    8         20             0       -2.817879   -0.000929   -0.939389
    9          8             0       -1.293399   -1.311588    0.074111
 ---------------------------------------------------------------------
 Rotational constants (GHZ):      1.0175211      0.5520363      0.4339642
 Standard basis: 6-31+G(d,p) (6D, 7F)
 There are   199 symmetry adapted basis functions of A   symmetry.
 Integral buffers will be    131072 words long.
 Raffenetti 2 integral format.
 Two-electron integral symmetry is turned on.
   199 basis functions,   456 primitive gaussians,   199 cartesian basis functions
    57 alpha electrons       57 beta electrons
       nuclear repulsion energy       988.2792844924 Hartrees.
 NAtoms=    9 NActive=    9 NUniq=    9 SFac= 7.50D-01 NAtFMM=   80 NAOKFM=F Big=F
 One-electron integrals computed using PRISM.
 NBasis=   199 RedAO= T  NBF=   199
 NBsUse=   199 1.00D-06 NBFU=   199
 Harris functional with IExCor=  402 diagonalized for initial guess.
 ExpMin= 7.10D-03 ExpMax= 3.53D+04 ExpMxC= 5.30D+03 IAcc=3 IRadAn=         5 AccDes= 0.00D+00
 HarFok:  IExCor= 402 AccDes= 0.00D+00 IRadAn=         5 IDoV=1
 ScaDFX=  1.000000  1.000000  1.000000  1.000000
 Initial guess orbital symmetries:
       Occupied  (A) (A) (A) (A) (A) (A) (A) (A) (A) (A) (A) (A)
                 (A) (A) (A) (A) (A) (A) (A) (A) (A) (A) (A) (A)
                 (A) (A) (A) (A) (A) (A) (A) (A) (A) (A) (A) (A)
                 (A) (A) (A) (A) (A) (A) (A) (A) (A) (A) (A) (A)
                 (A) (A) (A) (A) (A) (A) (A) (A) (A)
       Virtual   (A) (A) (A) (A) (A) (A) (A) (A) (A) (A) (A) (A)
                 (A) (A) (A) (A) (A) (A) (A) (A) (A) (A) (A) (A)
                 (A) (A) (A) (A) (A) (A) (A) (A) (A) (A) (A) (A)
                 (A) (A) (A) (A) (A) (A) (A) (A) (A) (A) (A) (A)
                 (A) (A) (A) (A) (A) (A) (A) (A) (A) (A) (A) (A)
                 (A) (A) (A) (A) (A) (A) (A) (A) (A) (A) (A) (A)
                 (A) (A) (A) (A) (A) (A) (A) (A) (A) (A) (A) (A)
                 (A) (A) (A) (A) (A) (A) (A) (A) (A) (A) (A) (A)
                 (A) (A) (A) (A) (A) (A) (A) (A) (A) (A) (A) (A)
                 (A) (A) (A) (A) (A) (A) (A) (A) (A) (A) (A) (A)
                 (A) (A) (A) (A) (A) (A) (A) (A) (A) (A) (A) (A)
                 (A) (A) (A) (A) (A) (A) (A) (A) (A) (A)
 The electronic state of the initial guess is 1-A.
 Requested convergence on RMS density matrix=1.00D-04 within 128 cycles.
 Requested convergence on MAX density matrix=1.00D-02.
 Requested convergence on             energy=1.00D-02.
 No special actions if energy rises.
 SCF Done:  E(RB+HF-LYP) =  -2749.98590968     A.U. after    7 cycles
             Convg  =    0.3704D-04             -V/T =  2.0029
             S**2   =   0.0000

 **********************************************************************

            Population analysis using the SCF density.

 **********************************************************************

 Orbital symmetries:
       Occupied  (A) (A) (A) (A) (A) (A) (A) (A) (A) (A) (A) (A)
                 (A) (A) (A) (A) (A) (A) (A) (A) (A) (A) (A) (A)
                 (A) (A) (A) (A) (A) (A) (A) (A) (A) (A) (A) (A)
                 (A) (A) (A) (A) (A) (A) (A) (A) (A) (A) (A) (A)
                 (A) (A) (A) (A) (A) (A) (A) (A) (A)
       Virtual   (A) (A) (A) (A) (A) (A) (A) (A) (A) (A) (A) (A)
                 (A) (A) (A) (A) (A) (A) (A) (A) (A) (A) (A) (A)
                 (A) (A) (A) (A) (A) (A) (A) (A) (A) (A) (A) (A)
                 (A) (A) (A) (A) (A) (A) (A) (A) (A) (A) (A) (A)
                 (A) (A) (A) (A) (A) (A) (A) (A) (A) (A) (A) (A)
                 (A) (A) (A) (A) (A) (A) (A) (A) (A) (A) (A) (A)
                 (A) (A) (A) (A) (A) (A) (A) (A) (A) (A) (A) (A)
                 (A) (A) (A) (A) (A) (A) (A) (A) (A) (A) (A) (A)
                 (A) (A) (A) (A) (A) (A) (A) (A) (A) (A) (A) (A)
                 (A) (A) (A) (A) (A) (A) (A) (A) (A) (A) (A) (A)
                 (A) (A) (A) (A) (A) (A) (A) (A) (A) (A) (A) (A)
                 (A) (A) (A) (A) (A) (A) (A) (A) (A) (A)
 The electronic state is 1-A.
 Alpha  occ. eigenvalues -- -145.57294-145.49803-145.49798 -77.21622 -19.31144
 Alpha  occ. eigenvalues --  -19.23877 -19.23845 -19.20777 -19.20605 -15.64073
 Alpha  occ. eigenvalues --  -15.56693 -15.56688 -12.77307 -12.77227 -12.77223
 Alpha  occ. eigenvalues --  -12.69942 -12.69936 -12.69913 -12.69907 -12.69747
 Alpha  occ. eigenvalues --  -12.69742  -6.67794  -4.84304  -4.84038  -4.83358
 Alpha  occ. eigenvalues --   -2.01009  -1.93934  -1.93914  -1.28671  -1.28440
 Alpha  occ. eigenvalues --   -1.28098  -1.22478  -1.21693  -1.21601  -1.21567
 Alpha  occ. eigenvalues --   -1.21544  -1.21125  -1.14760  -1.05056  -1.01464
 Alpha  occ. eigenvalues --   -0.96566  -0.81179  -0.64939  -0.51757  -0.51012
 Alpha  occ. eigenvalues --   -0.49782  -0.49109  -0.48264  -0.47159  -0.44425
 Alpha  occ. eigenvalues --   -0.39739  -0.39708  -0.34567  -0.33698  -0.32497
 Alpha  occ. eigenvalues --   -0.28764  -0.27610
 Alpha virt. eigenvalues --   -0.23540  -0.17629  -0.17544  -0.14664  -0.13967
 Alpha virt. eigenvalues --   -0.12500  -0.11110  -0.11055  -0.08982  -0.08895
 Alpha virt. eigenvalues --   -0.07818  -0.07234  -0.07013  -0.05987  -0.05500
 Alpha virt. eigenvalues --   -0.05299  -0.04999  -0.04878  -0.04757  -0.04561
 Alpha virt. eigenvalues --   -0.04054  -0.03949  -0.03843  -0.03016  -0.02976
 Alpha virt. eigenvalues --   -0.02764  -0.02761  -0.02432  -0.01094  -0.00832
 Alpha virt. eigenvalues --   -0.00177   0.01051   0.01540   0.02793   0.03118
 Alpha virt. eigenvalues --    0.03397   0.03637   0.03831   0.04700   0.05229
 Alpha virt. eigenvalues --    0.05370   0.05910   0.06629   0.06656   0.07691
 Alpha virt. eigenvalues --    0.08217   0.08441   0.09359   0.10053   0.11316
 Alpha virt. eigenvalues --    0.11564   0.13102   0.13158   0.16426   0.16880
 Alpha virt. eigenvalues --    0.17185   0.17888   0.19378   0.20587   0.20590
 Alpha virt. eigenvalues --    0.21582   0.22598   0.24278   0.24462   0.24466
 Alpha virt. eigenvalues --    0.24854   0.26086   0.27619   0.30655   0.32425
 Alpha virt. eigenvalues --    0.32841   0.34800   0.35761   0.38233   0.38868
 Alpha virt. eigenvalues --    0.39427   0.40081   0.41725   0.42622   0.44194
 Alpha virt. eigenvalues --    0.51964   0.57725   0.59438   0.64390   0.67274
 Alpha virt. eigenvalues --    0.72326   0.74088   0.78984   0.83744   0.84582
 Alpha virt. eigenvalues --    0.91282   1.05575   1.10069   1.13012   1.13294
 Alpha virt. eigenvalues --    1.14483   1.15295   1.16034   1.17566   1.20451
 Alpha virt. eigenvalues --    1.21230   1.21947   1.23541   1.25459   1.26679
 Alpha virt. eigenvalues --    1.27863   1.46198   1.48342   1.50340   1.52716
 Alpha virt. eigenvalues --    1.55857   1.59733   1.63204   1.70112   1.72735
 Alpha virt. eigenvalues --    1.77221   1.78708   1.79512   1.80009   1.80962
 Alpha virt. eigenvalues --    1.84760   1.87302   1.88414   1.91083   1.92714
 Alpha virt. eigenvalues --    1.93280   1.94524   1.96758   1.96976   2.22329
 Alpha virt. eigenvalues --    2.28149   2.31251   2.36843   2.50760   3.08557
 Alpha virt. eigenvalues --    3.12123   3.46306   3.86851   4.03040   4.04102
 Alpha virt. eigenvalues --    4.18294   4.25826
          Condensed to atoms (all electrons):
              1          2          3          4          5          6
     1  Ca  18.342064   0.161366   0.074885  -0.028271  -0.007768   0.003952
     2  O    0.161366   8.450065  -0.099292   0.031915  -0.028290   0.015519
     3  O    0.074885  -0.099292   8.304337  -0.099734   0.075116  -0.090598
     4  O   -0.028271   0.031915  -0.099734   8.452907   0.160953   0.015834
     5  Ca  -0.007768  -0.028290   0.075116   0.160953  18.341567   0.004333
     6  P    0.003952   0.015519  -0.090598   0.015834   0.004333  16.642978
     7  O    0.082748  -0.003062   0.011113   0.001154   0.010893  -0.620004
     8  Ca  -0.008460  -0.000745  -0.004176  -0.000757  -0.008464   0.060899
     9  O    0.010927   0.001176   0.011132  -0.003106   0.082673  -0.620403
              7          8          9
     1  Ca   0.082748  -0.008460   0.010927
     2  O   -0.003062  -0.000745   0.001176
     3  O    0.011113  -0.004176   0.011132
     4  O    0.001154  -0.000757  -0.003106
     5  Ca   0.010893  -0.008464   0.082673
     6  P   -0.620004   0.060899  -0.620403
     7  O    9.101795   0.105459   0.114636
     8  Ca   0.105459  18.223673   0.105409
     9  O    0.114636   0.105409   9.102692
 Mulliken atomic charges:
              1
     1  Ca   1.368557
     2  O   -0.528652
     3  O   -0.182783
     4  O   -0.530893
     5  Ca   1.368988
     6  P   -0.412510
     7  O   -0.804732
     8  Ca   1.527161
     9  O   -0.805135
 Sum of Mulliken charges=   1.00000
 Atomic charges with hydrogens summed into heavy atoms:
              1
     1  Ca   1.368557
     2  O   -0.528652
     3  O   -0.182783
     4  O   -0.530893
     5  Ca   1.368988
     6  P   -0.412510
     7  O   -0.804732
     8  Ca   1.527161
     9  O   -0.805135
 Sum of Mulliken charges=   1.00000
 Electronic spatial extent (au):  <R**2>=  2434.1066
 Charge=     1.0000 electrons
 Dipole moment (field-independent basis, Debye):
    X=   -13.5674    Y=     0.0128    Z=     0.0280  Tot=    13.5674
 Quadrupole moment (field-independent basis, Debye-Ang):
   XX=   -63.0679   YY=   -46.3841   ZZ=   -75.9409
   XY=     0.0293   XZ=    42.2478   YZ=     0.0183
 Traceless Quadrupole moment (field-independent basis, Debye-Ang):
   XX=    -1.2703   YY=    15.4135   ZZ=   -14.1432
   XY=     0.0293   XZ=    42.2478   YZ=     0.0183
 Octapole moment (field-independent basis, Debye-Ang**2):
  XXX=  -253.3084  YYY=     0.0576  ZZZ=   -25.2619  XYY=    41.8276
  XXY=     0.0267  XXZ=   -43.5828  XZZ=   -30.4803  YZZ=    -0.0042
  YYZ=    24.4746  XYZ=    -0.0298
 Hexadecapole moment (field-independent basis, Debye-Ang**3):
 XXXX= -1410.2186 YYYY=  -542.9968 ZZZZ=  -375.9441 XXXY=     0.5507
 XXXZ=   373.2509 YYYX=    -0.1547 YYYZ=     0.1282 ZZZX=   128.9456
 ZZZY=     0.1176 XXYY=  -439.2319 XXZZ=  -310.3189 YYZZ=  -171.1212
 XXYZ=     0.0254 YYXZ=    67.0682 ZZXY=    -0.0263
 N-N= 9.882792844924D+02 E-N=-8.476743646100D+03  KE= 2.742147479941D+03
 Merz-Kollman atomic radii used.
 Read replacement radii for each type of atom:
 Rad(20) =   1.188000000000D+00
 Atom Element Radius
    1    20    1.19
    2     8    1.40
    3     8    1.40
    4     8    1.40
    5    20    1.19
    6    15    1.80
    7     8    1.40
    8    20    1.19
    9     8    1.40

 **********************************************************************

            Electrostatic Properties Using The SCF Density

 **********************************************************************

       Atomic Center    1 is at   0.890310  1.842953  0.365441
       Atomic Center    2 is at   2.531490  1.206903 -0.946969
       Atomic Center    3 is at   2.511481  0.001733 -0.094459
       Atomic Center    4 is at   2.537001 -1.205567 -0.943419
       Atomic Center    5 is at   0.892631 -1.842097  0.364741
       Atomic Center    6 is at  -1.282069 -0.001098  1.257611
       Atomic Center    7 is at  -1.295350  1.310762  0.075731
       Atomic Center    8 is at  -2.817879 -0.000929 -0.939389
       Atomic Center    9 is at  -1.293399 -1.311588  0.074111
     834 points will be used for fitting atomic charges
 Fitting point charges to eletrostatic potential
 Charges from ESP fit, RMS=   0.00973 RRMS=   0.06162:
 Charge=   1.00000 Dipole=   -13.8617     0.0117    -0.2512 Tot=    13.8640
              1
     1  Ca   1.569894
     2  O   -0.519051
     3  O   -0.494764
     4  O   -0.520854
     5  Ca   1.569621
     6  P   -0.390563
     7  O   -0.955333
     8  Ca   1.696637
     9  O   -0.955586
 -----------------------------------------------------------------

              Electrostatic Properties (Atomic Units)

 -----------------------------------------------------------------
    Center     Electric         -------- Electric Field --------
               Potential          X             Y             Z
 -----------------------------------------------------------------
    1 Atom    -80.042579
    2 Atom    -22.262875
    3 Atom    -22.157947
    4 Atom    -22.267445
    5 Atom    -80.042805
    6 Atom    -54.000416
    7 Atom    -22.224769
    8 Atom    -79.968092
    9 Atom    -22.225624
 -----------------------------------------------------------------
 1\1\GINC-N025\SP\RB3LYP\6-31+G(d,p)\Ca3O5P1(1+)\TIMN\12-Jun-2015\0\\# 
 b3lyp/6-31+G(d,p) int=ultrafine pop=(ReadRadii,MK)\\mol_17.26.59.pdbcc
 _plusQ.z58470.zip.xyz\\1,1\Ca,0,0.89031,1.84295,0.36544\O,0,2.53149,1.
 2069,-0.94697\O,0,2.51148,0.00173,-0.09446\O,0,2.537,-1.20557,-0.94342
 \Ca,0,0.89263,-1.8421,0.36474\P,0,-1.28207,-0.0011,1.25761\O,0,-1.2953
 5,1.31076,0.07573\Ca,0,-2.81788,-0.00093,-0.93939\O,0,-1.2934,-1.31159
 ,0.07411\\Version=EM64T-G03RevE.01\State=1-A\HF=-2749.9859097\RMSD=3.7
 04e-05\Thermal=0.\Dipole=-5.3378195,0.005045,0.0110089\PG=C01 [X(Ca3O5
 P1)]\\@


 I think that all right-thinking people in this
 country are sick and tired of being told that
 ordinary, decent people are fed up in this country
 with being sick and tired.  I'm certainly not!
 But I'm sick and tired of being told that I am!
                               -- Monty Python
 Job cpu time:  0 days  0 hours  1 minutes 44.4 seconds.
 File lengths (MBytes):  RWF=     36 Int=      0 D2E=      0 Chk=     11 Scr=      1
 Normal termination of Gaussian 03 at Fri Jun 12 18:02:12 2015.
