 Entering Gaussian System, Link 0=/home/timn/tmp/g03.e01/g03
 Input=mol_17.27.24.pdb_plusQ.z58492.zip.xyz.gjf
 Output=mol_17.27.24.pdb_plusQ.z58492.zip.xyz.out
 Initial command:
 /home/timn/tmp/g03.e01/l1.exe /home/timn/tmp/g03.e01/Gau-18729.inp -scrdir=/home/timn/tmp/g03.e01/
 Default is to use a total of   2 processors:
                                2 via shared-memory
                                1 via Linda
 Entering Link 1 = /home/timn/tmp/g03.e01/l1.exe PID=     18732.
  
 Copyright (c) 1988,1990,1992,1993,1995,1998,2003,2004,2007, Gaussian, Inc.
                  All Rights Reserved.
  
 This is the Gaussian(R) 03 program.  It is based on the
 the Gaussian(R) 98 system (copyright 1998, Gaussian, Inc.),
 the Gaussian(R) 94 system (copyright 1995, Gaussian, Inc.),
 the Gaussian 92(TM) system (copyright 1992, Gaussian, Inc.),
 the Gaussian 90(TM) system (copyright 1990, Gaussian, Inc.),
 the Gaussian 88(TM) system (copyright 1988, Gaussian, Inc.),
 the Gaussian 86(TM) system (copyright 1986, Carnegie Mellon
 University), and the Gaussian 82(TM) system (copyright 1983,
 Carnegie Mellon University). Gaussian is a federally registered
 trademark of Gaussian, Inc.
  
 This software contains proprietary and confidential information,
 including trade secrets, belonging to Gaussian, Inc.
  
 This software is provided under written license and may be
 used, copied, transmitted, or stored only in accord with that
 written license.
  
 The following legend is applicable only to US Government
 contracts under FAR:
  
                    RESTRICTED RIGHTS LEGEND
  
 Use, reproduction and disclosure by the US Government is
 subject to restrictions as set forth in subparagraphs (a)
 and (c) of the Commercial Computer Software - Restricted
 Rights clause in FAR 52.227-19.
  
 Gaussian, Inc.
 340 Quinnipiac St., Bldg. 40, Wallingford CT 06492
  
  
 ---------------------------------------------------------------
 Warning -- This program may not be used in any manner that
 competes with the business of Gaussian, Inc. or will provide
 assistance to any competitor of Gaussian, Inc.  The licensee
 of this program is prohibited from giving any competitor of
 Gaussian, Inc. access to this program.  By using this program,
 the user acknowledges that Gaussian, Inc. is engaged in the
 business of creating and licensing software in the field of
 computational chemistry and represents and warrants to the
 licensee that it is not a competitor of Gaussian, Inc. and that
 it will not use this program in any manner prohibited above.
 ---------------------------------------------------------------
  

 Cite this work as:
 Gaussian 03, Revision E.01,
 M. J. Frisch, G. W. Trucks, H. B. Schlegel, G. E. Scuseria, 
 M. A. Robb, J. R. Cheeseman, J. A. Montgomery, Jr., T. Vreven, 
 K. N. Kudin, J. C. Burant, J. M. Millam, S. S. Iyengar, J. Tomasi, 
 V. Barone, B. Mennucci, M. Cossi, G. Scalmani, N. Rega, 
 G. A. Petersson, H. Nakatsuji, M. Hada, M. Ehara, K. Toyota, 
 R. Fukuda, J. Hasegawa, M. Ishida, T. Nakajima, Y. Honda, O. Kitao, 
 H. Nakai, M. Klene, X. Li, J. E. Knox, H. P. Hratchian, J. B. Cross, 
 V. Bakken, C. Adamo, J. Jaramillo, R. Gomperts, R. E. Stratmann, 
 O. Yazyev, A. J. Austin, R. Cammi, C. Pomelli, J. W. Ochterski, 
 P. Y. Ayala, K. Morokuma, G. A. Voth, P. Salvador, J. J. Dannenberg, 
 V. G. Zakrzewski, S. Dapprich, A. D. Daniels, M. C. Strain, 
 O. Farkas, D. K. Malick, A. D. Rabuck, K. Raghavachari, 
 J. B. Foresman, J. V. Ortiz, Q. Cui, A. G. Baboul, S. Clifford, 
 J. Cioslowski, B. B. Stefanov, G. Liu, A. Liashenko, P. Piskorz, 
 I. Komaromi, R. L. Martin, D. J. Fox, T. Keith, M. A. Al-Laham, 
 C. Y. Peng, A. Nanayakkara, M. Challacombe, P. M. W. Gill, 
 B. Johnson, W. Chen, M. W. Wong, C. Gonzalez, and J. A. Pople, 
 Gaussian, Inc., Wallingford CT, 2004.
 
 ******************************************
 Gaussian 03:  EM64T-G03RevE.01 11-Sep-2007
                12-Jun-2015 
 ******************************************
 %nproc=2
 Will use up to    2 processors via shared memory.
 Default route:  MP2=Direct MaxDisk=2000MB
 ----------------------------------------------------
 # b3lyp/6-31+G(d,p) int=ultrafine pop=(ReadRadii,MK)
 ----------------------------------------------------

 Warning!  SCF SP cutoffs with diffuse functions may be unreliable.
 Consider SCF=Tight

 1/38=1/1;
 2/17=6,18=5,40=1/2;
 3/5=1,6=6,7=111,11=2,16=1,25=1,30=1,74=-5,75=5/1,2,3;
 4//1;
 5/5=2,32=1,38=5/2;
 6/7=2,8=2,9=2,10=2,15=8,20=101,28=1/1,2;
 99/5=1,9=1/99;
 -------------------------------------
 mol_17.27.24.pdb_plusQ.z58492.zip.xyz
 -------------------------------------
 Symbolic Z-matrix:
 Charge =  1 Multiplicity = 1
 Ca                   -1.44231  -1.8006   -0.04348 
 O                    -2.37873   0.00046  -1.01553 
 O                    -2.63276   0.00113   0.53166 
 Ca                   -1.43961   1.8008   -0.04459 
 O                     0.75869   1.25032  -0.03633 
 P                     0.97232   0.00138   1.11037 
 O                     0.75614  -1.24965  -0.03354 
 Ca                    2.53429  -0.00215  -1.02132 
 O                     2.54261   0.00004   1.24528 
 
                          Input orientation:                          
 ---------------------------------------------------------------------
 Center     Atomic     Atomic              Coordinates (Angstroms)
 Number     Number      Type              X           Y           Z
 ---------------------------------------------------------------------
    1         20             0       -1.442310   -1.800600   -0.043480
    2          8             0       -2.378730    0.000460   -1.015530
    3          8             0       -2.632760    0.001130    0.531660
    4         20             0       -1.439610    1.800800   -0.044590
    5          8             0        0.758690    1.250320   -0.036330
    6         15             0        0.972320    0.001380    1.110370
    7          8             0        0.756140   -1.249650   -0.033540
    8         20             0        2.534290   -0.002150   -1.021320
    9          8             0        2.542610    0.000040    1.245280
 ---------------------------------------------------------------------
                    Distance matrix (angstroms):
                    1          2          3          4          5
     1  Ca   0.000000
     2  O    2.250685   0.000000
     3  O    2.234768   1.567906   0.000000
     4  Ca   3.601401   2.250754   2.234834   0.000000
     5  O    3.761989   3.516303   3.658555   2.266190   0.000000
     6  P    3.226289   3.968499   3.651234   3.223236   1.708921
     7  O    2.266457   3.514895   3.656302   3.758548   2.499973
     8  Ca   4.472577   4.913024   5.395384   4.471746   2.385716
     9  O    4.558815   5.415796   5.224338   4.556817   2.527468
                    6          7          8          9
     6  P    0.000000
     7  O    1.708900   0.000000
     8  Ca   2.642700   2.386165   0.000000
     9  O    1.576075   2.527564   2.266616   0.000000
 Stoichiometry    Ca3O5P(1+)
 Framework group  C1[X(Ca3O5P)]
 Deg. of freedom    21
 Full point group                 C1
 Largest Abelian subgroup         C1      NOp   1
 Largest concise Abelian subgroup C1      NOp   1
                         Standard orientation:                         
 ---------------------------------------------------------------------
 Center     Atomic     Atomic              Coordinates (Angstroms)
 Number     Number      Type              X           Y           Z
 ---------------------------------------------------------------------
    1         20             0       -1.442312   -1.800598   -0.043481
    2          8             0       -2.378728    0.000464   -1.015531
    3          8             0       -2.632758    0.001134    0.531659
    4         20             0       -1.439605    1.800802   -0.044591
    5          8             0        0.758694    1.250318   -0.036331
    6         15             0        0.972322    0.001377    1.110369
    7          8             0        0.756139   -1.249652   -0.033541
    8         20             0        2.534292   -0.002156   -1.021321
    9          8             0        2.542612    0.000034    1.245279
 ---------------------------------------------------------------------
 Rotational constants (GHZ):      1.1617311      0.5609657      0.4661432
 Standard basis: 6-31+G(d,p) (6D, 7F)
 There are   199 symmetry adapted basis functions of A   symmetry.
 Integral buffers will be    131072 words long.
 Raffenetti 2 integral format.
 Two-electron integral symmetry is turned on.
   199 basis functions,   456 primitive gaussians,   199 cartesian basis functions
    57 alpha electrons       57 beta electrons
       nuclear repulsion energy      1021.6056549225 Hartrees.
 NAtoms=    9 NActive=    9 NUniq=    9 SFac= 7.50D-01 NAtFMM=   80 NAOKFM=F Big=F
 One-electron integrals computed using PRISM.
 NBasis=   199 RedAO= T  NBF=   199
 NBsUse=   199 1.00D-06 NBFU=   199
 Harris functional with IExCor=  402 diagonalized for initial guess.
 ExpMin= 7.10D-03 ExpMax= 3.53D+04 ExpMxC= 5.30D+03 IAcc=3 IRadAn=         5 AccDes= 0.00D+00
 HarFok:  IExCor= 402 AccDes= 0.00D+00 IRadAn=         5 IDoV=1
 ScaDFX=  1.000000  1.000000  1.000000  1.000000
 Initial guess orbital symmetries:
       Occupied  (A) (A) (A) (A) (A) (A) (A) (A) (A) (A) (A) (A)
                 (A) (A) (A) (A) (A) (A) (A) (A) (A) (A) (A) (A)
                 (A) (A) (A) (A) (A) (A) (A) (A) (A) (A) (A) (A)
                 (A) (A) (A) (A) (A) (A) (A) (A) (A) (A) (A) (A)
                 (A) (A) (A) (A) (A) (A) (A) (A) (A)
       Virtual   (A) (A) (A) (A) (A) (A) (A) (A) (A) (A) (A) (A)
                 (A) (A) (A) (A) (A) (A) (A) (A) (A) (A) (A) (A)
                 (A) (A) (A) (A) (A) (A) (A) (A) (A) (A) (A) (A)
                 (A) (A) (A) (A) (A) (A) (A) (A) (A) (A) (A) (A)
                 (A) (A) (A) (A) (A) (A) (A) (A) (A) (A) (A) (A)
                 (A) (A) (A) (A) (A) (A) (A) (A) (A) (A) (A) (A)
                 (A) (A) (A) (A) (A) (A) (A) (A) (A) (A) (A) (A)
                 (A) (A) (A) (A) (A) (A) (A) (A) (A) (A) (A) (A)
                 (A) (A) (A) (A) (A) (A) (A) (A) (A) (A) (A) (A)
                 (A) (A) (A) (A) (A) (A) (A) (A) (A) (A) (A) (A)
                 (A) (A) (A) (A) (A) (A) (A) (A) (A) (A) (A) (A)
                 (A) (A) (A) (A) (A) (A) (A) (A) (A) (A)
 The electronic state of the initial guess is 1-A.
 Requested convergence on RMS density matrix=1.00D-04 within 128 cycles.
 Requested convergence on MAX density matrix=1.00D-02.
 Requested convergence on             energy=1.00D-02.
 No special actions if energy rises.
 SCF Done:  E(RB+HF-LYP) =  -2750.19821041     A.U. after    7 cycles
             Convg  =    0.3779D-04             -V/T =  2.0029
             S**2   =   0.0000

 **********************************************************************

            Population analysis using the SCF density.

 **********************************************************************

 Orbital symmetries:
       Occupied  (A) (A) (A) (A) (A) (A) (A) (A) (A) (A) (A) (A)
                 (A) (A) (A) (A) (A) (A) (A) (A) (A) (A) (A) (A)
                 (A) (A) (A) (A) (A) (A) (A) (A) (A) (A) (A) (A)
                 (A) (A) (A) (A) (A) (A) (A) (A) (A) (A) (A) (A)
                 (A) (A) (A) (A) (A) (A) (A) (A) (A)
       Virtual   (A) (A) (A) (A) (A) (A) (A) (A) (A) (A) (A) (A)
                 (A) (A) (A) (A) (A) (A) (A) (A) (A) (A) (A) (A)
                 (A) (A) (A) (A) (A) (A) (A) (A) (A) (A) (A) (A)
                 (A) (A) (A) (A) (A) (A) (A) (A) (A) (A) (A) (A)
                 (A) (A) (A) (A) (A) (A) (A) (A) (A) (A) (A) (A)
                 (A) (A) (A) (A) (A) (A) (A) (A) (A) (A) (A) (A)
                 (A) (A) (A) (A) (A) (A) (A) (A) (A) (A) (A) (A)
                 (A) (A) (A) (A) (A) (A) (A) (A) (A) (A) (A) (A)
                 (A) (A) (A) (A) (A) (A) (A) (A) (A) (A) (A) (A)
                 (A) (A) (A) (A) (A) (A) (A) (A) (A) (A) (A) (A)
                 (A) (A) (A) (A) (A) (A) (A) (A) (A) (A) (A) (A)
                 (A) (A) (A) (A) (A) (A) (A) (A) (A) (A)
 The electronic state is 1-A.
 Alpha  occ. eigenvalues -- -145.52886-145.49504-145.49494 -77.24302 -19.22793
 Alpha  occ. eigenvalues --  -19.22506 -19.21327 -19.21323 -19.19021 -15.59679
 Alpha  occ. eigenvalues --  -15.56366 -15.56356 -12.72861 -12.72857 -12.72845
 Alpha  occ. eigenvalues --  -12.69593 -12.69583 -12.69567 -12.69557 -12.69456
 Alpha  occ. eigenvalues --  -12.69446  -6.69590  -4.85970  -4.85894  -4.85454
 Alpha  occ. eigenvalues --   -1.96714  -1.93609  -1.93573  -1.24676  -1.23979
 Alpha  occ. eigenvalues --   -1.23939  -1.22274  -1.21279  -1.21227  -1.21051
 Alpha  occ. eigenvalues --   -1.21026  -1.20593  -1.06714  -1.05360  -0.99867
 Alpha  occ. eigenvalues --   -0.99596  -0.86448  -0.61783  -0.49596  -0.49236
 Alpha  occ. eigenvalues --   -0.48395  -0.46089  -0.44982  -0.43561  -0.42567
 Alpha  occ. eigenvalues --   -0.41979  -0.37837  -0.37835  -0.34588  -0.33871
 Alpha  occ. eigenvalues --   -0.32215  -0.31068
 Alpha virt. eigenvalues --   -0.20490  -0.17973  -0.17402  -0.13047  -0.12113
 Alpha virt. eigenvalues --   -0.11133  -0.09670  -0.08664  -0.08335  -0.07573
 Alpha virt. eigenvalues --   -0.06944  -0.06821  -0.06582  -0.06263  -0.05324
 Alpha virt. eigenvalues --   -0.05149  -0.04819  -0.04472  -0.04468  -0.04014
 Alpha virt. eigenvalues --   -0.03941  -0.03763  -0.03231  -0.03169  -0.02968
 Alpha virt. eigenvalues --   -0.02685  -0.01945  -0.00441   0.00560   0.01166
 Alpha virt. eigenvalues --    0.02331   0.02490   0.03648   0.04437   0.04806
 Alpha virt. eigenvalues --    0.04976   0.05024   0.05610   0.06119   0.06243
 Alpha virt. eigenvalues --    0.07164   0.07739   0.07855   0.08485   0.08962
 Alpha virt. eigenvalues --    0.09239   0.09950   0.10314   0.10782   0.10824
 Alpha virt. eigenvalues --    0.14425   0.14432   0.15135   0.15491   0.17006
 Alpha virt. eigenvalues --    0.18161   0.19205   0.20545   0.21565   0.21607
 Alpha virt. eigenvalues --    0.22782   0.22881   0.25159   0.25497   0.26933
 Alpha virt. eigenvalues --    0.28231   0.28248   0.29201   0.32229   0.33093
 Alpha virt. eigenvalues --    0.33404   0.34933   0.37597   0.37882   0.39087
 Alpha virt. eigenvalues --    0.40799   0.45277   0.46834   0.47675   0.53192
 Alpha virt. eigenvalues --    0.57464   0.58560   0.62390   0.66979   0.67845
 Alpha virt. eigenvalues --    0.73395   0.76086   0.88127   0.89057   0.94182
 Alpha virt. eigenvalues --    1.00750   1.12055   1.14051   1.14902   1.15033
 Alpha virt. eigenvalues --    1.17230   1.18759   1.19111   1.19488   1.19930
 Alpha virt. eigenvalues --    1.22529   1.23272   1.27806   1.28762   1.29183
 Alpha virt. eigenvalues --    1.35370   1.52140   1.52981   1.55317   1.56131
 Alpha virt. eigenvalues --    1.56702   1.64422   1.73001   1.73310   1.77171
 Alpha virt. eigenvalues --    1.77668   1.78432   1.79855   1.80523   1.80891
 Alpha virt. eigenvalues --    1.83342   1.84892   1.84945   1.87138   1.88457
 Alpha virt. eigenvalues --    1.90144   1.95335   1.97371   2.02597   2.10427
 Alpha virt. eigenvalues --    2.19640   2.21209   2.39272   2.49174   2.70224
 Alpha virt. eigenvalues --    3.04160   3.51733   4.03096   4.05734   4.10359
 Alpha virt. eigenvalues --    4.15826   4.19112
          Condensed to atoms (all electrons):
              1          2          3          4          5          6
     1  Ca  18.263962   0.105851   0.104594  -0.025923   0.032478  -0.076502
     2  O    0.105851   8.472332  -0.004061   0.105838   0.014353  -0.048135
     3  O    0.104594  -0.004061   8.466571   0.104574   0.002491  -0.020501
     4  Ca  -0.025923   0.105838   0.104574  18.264128   0.116332  -0.076625
     5  O    0.032478   0.014353   0.002491   0.116332   9.108262  -0.429483
     6  P   -0.076502  -0.048135  -0.020501  -0.076625  -0.429483  15.060901
     7  O    0.116081   0.014304   0.002555   0.032624   0.086059  -0.429843
     8  Ca  -0.020655  -0.000048  -0.000950  -0.020689   0.024617   0.207193
     9  O    0.014708  -0.000589   0.002745   0.014764   0.016670   0.009142
              7          8          9
     1  Ca   0.116081  -0.020655   0.014708
     2  O    0.014304  -0.000048  -0.000589
     3  O    0.002555  -0.000950   0.002745
     4  Ca   0.032624  -0.020689   0.014764
     5  O    0.086059   0.024617   0.016670
     6  P   -0.429843   0.207193   0.009142
     7  O    9.109103   0.024529   0.016699
     8  Ca   0.024529  18.326284   0.102350
     9  O    0.016699   0.102350   8.693365
 Mulliken atomic charges:
              1
     1  Ca   1.485406
     2  O   -0.659845
     3  O   -0.658018
     4  Ca   1.484979
     5  O   -0.971779
     6  P    0.803855
     7  O   -0.972112
     8  Ca   1.357367
     9  O   -0.869853
 Sum of Mulliken charges=   1.00000
 Atomic charges with hydrogens summed into heavy atoms:
              1
     1  Ca   1.485406
     2  O   -0.659845
     3  O   -0.658018
     4  Ca   1.484979
     5  O   -0.971779
     6  P    0.803855
     7  O   -0.972112
     8  Ca   1.357367
     9  O   -0.869853
 Sum of Mulliken charges=   1.00000
 Electronic spatial extent (au):  <R**2>=  2287.9007
 Charge=     1.0000 electrons
 Dipole moment (field-independent basis, Debye):
    X=     1.3323    Y=    -0.0214    Z=    -8.1491  Tot=     8.2574
 Quadrupole moment (field-independent basis, Debye-Ang):
   XX=   -62.1073   YY=   -36.3259   ZZ=   -75.9346
   XY=    -0.0012   XZ=   -28.8016   YZ=     0.0133
 Traceless Quadrupole moment (field-independent basis, Debye-Ang):
   XX=    -3.9847   YY=    21.7967   ZZ=   -17.8120
   XY=    -0.0012   XZ=   -28.8016   YZ=     0.0133
 Octapole moment (field-independent basis, Debye-Ang**2):
  XXX=   117.8326  YYY=    -0.0310  ZZZ=   -33.8286  XYY=   -94.8234
  XXY=    -0.2867  XXZ=   -76.7185  XZZ=    20.1016  YZZ=    -0.0462
  YYZ=    -7.5907  XYZ=     0.0894
 Hexadecapole moment (field-independent basis, Debye-Ang**3):
 XXXX= -1594.9879 YYYY=  -390.1969 ZZZZ=  -361.0961 XXXY=     0.0461
 XXXZ=  -265.2449 YYYX=     0.0803 YYYZ=    -0.0238 ZZZX=   -88.6061
 ZZZY=    -0.0076 XXYY=  -243.9267 XXZZ=  -320.9908 YYZZ=  -148.1132
 XXYZ=     0.0965 YYXZ=   -11.4727 ZZXY=    -0.0345
 N-N= 1.021605654922D+03 E-N=-8.544942514157D+03  KE= 2.742223832125D+03
 Merz-Kollman atomic radii used.
 Read replacement radii for each type of atom:
 Rad(20) =   1.188000000000D+00
 Atom Element Radius
    1    20    1.19
    2     8    1.40
    3     8    1.40
    4    20    1.19
    5     8    1.40
    6    15    1.80
    7     8    1.40
    8    20    1.19
    9     8    1.40

 **********************************************************************

            Electrostatic Properties Using The SCF Density

 **********************************************************************

       Atomic Center    1 is at  -1.442312 -1.800598 -0.043481
       Atomic Center    2 is at  -2.378728  0.000464 -1.015531
       Atomic Center    3 is at  -2.632758  0.001134  0.531659
       Atomic Center    4 is at  -1.439605  1.800802 -0.044591
       Atomic Center    5 is at   0.758694  1.250318 -0.036331
       Atomic Center    6 is at   0.972322  0.001377  1.110369
       Atomic Center    7 is at   0.756139 -1.249652 -0.033541
       Atomic Center    8 is at   2.534292 -0.002156 -1.021321
       Atomic Center    9 is at   2.542612  0.000034  1.245279
     767 points will be used for fitting atomic charges
 Fitting point charges to eletrostatic potential
 Charges from ESP fit, RMS=   0.00683 RRMS=   0.04450:
 Charge=   1.00000 Dipole=     1.7686    -0.0300    -8.3235 Tot=     8.5094
              1
     1  Ca   1.717382
     2  O   -0.800195
     3  O   -0.812862
     4  Ca   1.719002
     5  O   -1.073436
     6  P    0.282199
     7  O   -1.069908
     8  Ca   1.607096
     9  O   -0.569278
 -----------------------------------------------------------------

              Electrostatic Properties (Atomic Units)

 -----------------------------------------------------------------
    Center     Electric         -------- Electric Field --------
               Potential          X             Y             Z
 -----------------------------------------------------------------
    1 Atom    -80.045356
    2 Atom    -22.240003
    3 Atom    -22.247571
    4 Atom    -80.045464
    5 Atom    -22.250158
    6 Atom    -53.968849
    7 Atom    -22.250108
    8 Atom    -80.013556
    9 Atom    -22.276026
 -----------------------------------------------------------------
 1\1\GINC-N025\SP\RB3LYP\6-31+G(d,p)\Ca3O5P1(1+)\TIMN\12-Jun-2015\0\\# 
 b3lyp/6-31+G(d,p) int=ultrafine pop=(ReadRadii,MK)\\mol_17.27.24.pdb_p
 lusQ.z58492.zip.xyz\\1,1\Ca,0,-1.44231,-1.8006,-0.04348\O,0,-2.37873,0
 .00046,-1.01553\O,0,-2.63276,0.00113,0.53166\Ca,0,-1.43961,1.8008,-0.0
 4459\O,0,0.75869,1.25032,-0.03633\P,0,0.97232,0.00138,1.11037\O,0,0.75
 614,-1.24965,-0.03354\Ca,0,2.53429,-0.00215,-1.02132\O,0,2.54261,0.000
 04,1.24528\\Version=EM64T-G03RevE.01\State=1-A\HF=-2750.1982104\RMSD=3
 .779e-05\Thermal=0.\Dipole=0.52417,-0.0084278,-3.2061206\PG=C01 [X(Ca3
 O5P1)]\\@


 DESK:  A WASTEBASKET WITH DRAWERS.
 Job cpu time:  0 days  0 hours  1 minutes 51.9 seconds.
 File lengths (MBytes):  RWF=     36 Int=      0 D2E=      0 Chk=     11 Scr=      1
 Normal termination of Gaussian 03 at Fri Jun 12 18:06:30 2015.
