 Entering Gaussian System, Link 0=/home/timn/tmp/g03.e01/g03
 Input=mol_17.28.29.pdbc_plusQ.z58552.zip.xyz.gjf
 Output=mol_17.28.29.pdbc_plusQ.z58552.zip.xyz.out
 Initial command:
 /home/timn/tmp/g03.e01/l1.exe /home/timn/tmp/g03.e01/Gau-13688.inp -scrdir=/home/timn/tmp/g03.e01/
 Default is to use a total of   2 processors:
                                2 via shared-memory
                                1 via Linda
 Entering Link 1 = /home/timn/tmp/g03.e01/l1.exe PID=     13689.
  
 Copyright (c) 1988,1990,1992,1993,1995,1998,2003,2004,2007, Gaussian, Inc.
                  All Rights Reserved.
  
 This is the Gaussian(R) 03 program.  It is based on the
 the Gaussian(R) 98 system (copyright 1998, Gaussian, Inc.),
 the Gaussian(R) 94 system (copyright 1995, Gaussian, Inc.),
 the Gaussian 92(TM) system (copyright 1992, Gaussian, Inc.),
 the Gaussian 90(TM) system (copyright 1990, Gaussian, Inc.),
 the Gaussian 88(TM) system (copyright 1988, Gaussian, Inc.),
 the Gaussian 86(TM) system (copyright 1986, Carnegie Mellon
 University), and the Gaussian 82(TM) system (copyright 1983,
 Carnegie Mellon University). Gaussian is a federally registered
 trademark of Gaussian, Inc.
  
 This software contains proprietary and confidential information,
 including trade secrets, belonging to Gaussian, Inc.
  
 This software is provided under written license and may be
 used, copied, transmitted, or stored only in accord with that
 written license.
  
 The following legend is applicable only to US Government
 contracts under FAR:
  
                    RESTRICTED RIGHTS LEGEND
  
 Use, reproduction and disclosure by the US Government is
 subject to restrictions as set forth in subparagraphs (a)
 and (c) of the Commercial Computer Software - Restricted
 Rights clause in FAR 52.227-19.
  
 Gaussian, Inc.
 340 Quinnipiac St., Bldg. 40, Wallingford CT 06492
  
  
 ---------------------------------------------------------------
 Warning -- This program may not be used in any manner that
 competes with the business of Gaussian, Inc. or will provide
 assistance to any competitor of Gaussian, Inc.  The licensee
 of this program is prohibited from giving any competitor of
 Gaussian, Inc. access to this program.  By using this program,
 the user acknowledges that Gaussian, Inc. is engaged in the
 business of creating and licensing software in the field of
 computational chemistry and represents and warrants to the
 licensee that it is not a competitor of Gaussian, Inc. and that
 it will not use this program in any manner prohibited above.
 ---------------------------------------------------------------
  

 Cite this work as:
 Gaussian 03, Revision E.01,
 M. J. Frisch, G. W. Trucks, H. B. Schlegel, G. E. Scuseria, 
 M. A. Robb, J. R. Cheeseman, J. A. Montgomery, Jr., T. Vreven, 
 K. N. Kudin, J. C. Burant, J. M. Millam, S. S. Iyengar, J. Tomasi, 
 V. Barone, B. Mennucci, M. Cossi, G. Scalmani, N. Rega, 
 G. A. Petersson, H. Nakatsuji, M. Hada, M. Ehara, K. Toyota, 
 R. Fukuda, J. Hasegawa, M. Ishida, T. Nakajima, Y. Honda, O. Kitao, 
 H. Nakai, M. Klene, X. Li, J. E. Knox, H. P. Hratchian, J. B. Cross, 
 V. Bakken, C. Adamo, J. Jaramillo, R. Gomperts, R. E. Stratmann, 
 O. Yazyev, A. J. Austin, R. Cammi, C. Pomelli, J. W. Ochterski, 
 P. Y. Ayala, K. Morokuma, G. A. Voth, P. Salvador, J. J. Dannenberg, 
 V. G. Zakrzewski, S. Dapprich, A. D. Daniels, M. C. Strain, 
 O. Farkas, D. K. Malick, A. D. Rabuck, K. Raghavachari, 
 J. B. Foresman, J. V. Ortiz, Q. Cui, A. G. Baboul, S. Clifford, 
 J. Cioslowski, B. B. Stefanov, G. Liu, A. Liashenko, P. Piskorz, 
 I. Komaromi, R. L. Martin, D. J. Fox, T. Keith, M. A. Al-Laham, 
 C. Y. Peng, A. Nanayakkara, M. Challacombe, P. M. W. Gill, 
 B. Johnson, W. Chen, M. W. Wong, C. Gonzalez, and J. A. Pople, 
 Gaussian, Inc., Wallingford CT, 2004.
 
 ******************************************
 Gaussian 03:  EM64T-G03RevE.01 11-Sep-2007
                12-Jun-2015 
 ******************************************
 %nproc=2
 Will use up to    2 processors via shared memory.
 Default route:  MP2=Direct MaxDisk=2000MB
 ----------------------------------------------------
 # b3lyp/6-31+G(d,p) int=ultrafine pop=(ReadRadii,MK)
 ----------------------------------------------------

 Warning!  SCF SP cutoffs with diffuse functions may be unreliable.
 Consider SCF=Tight

 1/38=1/1;
 2/17=6,18=5,40=1/2;
 3/5=1,6=6,7=111,11=2,16=1,25=1,30=1,74=-5,75=5/1,2,3;
 4//1;
 5/5=2,32=1,38=5/2;
 6/7=2,8=2,9=2,10=2,15=8,20=101,28=1/1,2;
 99/5=1,9=1/99;
 --------------------------------------
 mol_17.28.29.pdbc_plusQ.z58552.zip.xyz
 --------------------------------------
 Symbolic Z-matrix:
 Charge =  1 Multiplicity = 1
 O                     0.59072   0.00003  -1.65666 
 O                    -1.23729  -1.28488  -0.44148 
 Ca                   -1.627    -0.00002   1.3896 
 P                    -1.06486   0.00002  -1.53116 
 Ca                    1.0545   -1.6714   -0.13818 
 O                    -1.23729   1.28489  -0.44145 
 O                     0.6077   -0.00003   1.52251 
 Ca                    1.0545    1.67141  -0.13813 
 O                     2.06777  -0.00001   1.1048 
 
                          Input orientation:                          
 ---------------------------------------------------------------------
 Center     Atomic     Atomic              Coordinates (Angstroms)
 Number     Number      Type              X           Y           Z
 ---------------------------------------------------------------------
    1          8             0        0.590720    0.000030   -1.656660
    2          8             0       -1.237290   -1.284880   -0.441480
    3         20             0       -1.627000   -0.000020    1.389600
    4         15             0       -1.064860    0.000020   -1.531160
    5         20             0        1.054500   -1.671400   -0.138180
    6          8             0       -1.237290    1.284890   -0.441450
    7          8             0        0.607700   -0.000030    1.522510
    8         20             0        1.054500    1.671410   -0.138130
    9          8             0        2.067770   -0.000010    1.104800
 ---------------------------------------------------------------------
                    Distance matrix (angstroms):
                    1          2          3          4          5
     1  O    0.000000
     2  O    2.543477   0.000000
     3  Ca   3.768021   2.270593   0.000000
     4  P    1.660330   1.693547   2.974364   0.000000
     5  Ca   2.305331   2.343862   3.509710   3.037388   0.000000
     6  O    2.543466   2.569770   2.270597   1.693544   3.752856
     7  O    3.179215   2.985311   2.238649   3.481718   2.398124
     8  Ca   2.305328   3.752862   3.509712   3.037394   3.342810
     9  O    3.131667   3.868500   3.705730   4.094100   2.316303
                    6          7          8          9
     6  O    0.000000
     7  O    2.985322   0.000000
     8  Ca   2.343865   2.398138   0.000000
     9  O    3.868498   1.518646   2.316298   0.000000
 Stoichiometry    Ca3O5P(1+)
 Framework group  C1[X(Ca3O5P)]
 Deg. of freedom    21
 Full point group                 C1
 Largest Abelian subgroup         C1      NOp   1
 Largest concise Abelian subgroup C1      NOp   1
                         Standard orientation:                         
 ---------------------------------------------------------------------
 Center     Atomic     Atomic              Coordinates (Angstroms)
 Number     Number      Type              X           Y           Z
 ---------------------------------------------------------------------
    1          8             0       -0.590720   -0.000025   -1.656661
    2          8             0        1.237298    1.284873   -0.441481
    3         20             0        1.627000    0.000010    1.389599
    4         15             0        1.064860   -0.000026   -1.531161
    5         20             0       -1.054489    1.671408   -0.138181
    6          8             0        1.237281   -1.284897   -0.441451
    7          8             0       -0.607700    0.000035    1.522509
    8         20             0       -1.054511   -1.671402   -0.138131
    9          8             0       -2.067770    0.000025    1.104799
 ---------------------------------------------------------------------
 Rotational constants (GHZ):      0.9462324      0.8195427      0.7961900
 Standard basis: 6-31+G(d,p) (6D, 7F)
 There are   199 symmetry adapted basis functions of A   symmetry.
 Integral buffers will be    131072 words long.
 Raffenetti 2 integral format.
 Two-electron integral symmetry is turned on.
   199 basis functions,   456 primitive gaussians,   199 cartesian basis functions
    57 alpha electrons       57 beta electrons
       nuclear repulsion energy      1104.8709861110 Hartrees.
 NAtoms=    9 NActive=    9 NUniq=    9 SFac= 7.50D-01 NAtFMM=   80 NAOKFM=F Big=F
 One-electron integrals computed using PRISM.
 NBasis=   199 RedAO= T  NBF=   199
 NBsUse=   199 1.00D-06 NBFU=   199
 Harris functional with IExCor=  402 diagonalized for initial guess.
 ExpMin= 7.10D-03 ExpMax= 3.53D+04 ExpMxC= 5.30D+03 IAcc=3 IRadAn=         5 AccDes= 0.00D+00
 HarFok:  IExCor= 402 AccDes= 0.00D+00 IRadAn=         5 IDoV=1
 ScaDFX=  1.000000  1.000000  1.000000  1.000000
 Initial guess orbital symmetries:
       Occupied  (A) (A) (A) (A) (A) (A) (A) (A) (A) (A) (A) (A)
                 (A) (A) (A) (A) (A) (A) (A) (A) (A) (A) (A) (A)
                 (A) (A) (A) (A) (A) (A) (A) (A) (A) (A) (A) (A)
                 (A) (A) (A) (A) (A) (A) (A) (A) (A) (A) (A) (A)
                 (A) (A) (A) (A) (A) (A) (A) (A) (A)
       Virtual   (A) (A) (A) (A) (A) (A) (A) (A) (A) (A) (A) (A)
                 (A) (A) (A) (A) (A) (A) (A) (A) (A) (A) (A) (A)
                 (A) (A) (A) (A) (A) (A) (A) (A) (A) (A) (A) (A)
                 (A) (A) (A) (A) (A) (A) (A) (A) (A) (A) (A) (A)
                 (A) (A) (A) (A) (A) (A) (A) (A) (A) (A) (A) (A)
                 (A) (A) (A) (A) (A) (A) (A) (A) (A) (A) (A) (A)
                 (A) (A) (A) (A) (A) (A) (A) (A) (A) (A) (A) (A)
                 (A) (A) (A) (A) (A) (A) (A) (A) (A) (A) (A) (A)
                 (A) (A) (A) (A) (A) (A) (A) (A) (A) (A) (A) (A)
                 (A) (A) (A) (A) (A) (A) (A) (A) (A) (A) (A) (A)
                 (A) (A) (A) (A) (A) (A) (A) (A) (A) (A) (A) (A)
                 (A) (A) (A) (A) (A) (A) (A) (A) (A) (A)
 The electronic state of the initial guess is 1-A.
 Requested convergence on RMS density matrix=1.00D-04 within 128 cycles.
 Requested convergence on MAX density matrix=1.00D-02.
 Requested convergence on             energy=1.00D-02.
 No special actions if energy rises.
 SCF Done:  E(RB+HF-LYP) =  -2750.24881805     A.U. after    7 cycles
             Convg  =    0.5382D-04             -V/T =  2.0029
             S**2   =   0.0000

 **********************************************************************

            Population analysis using the SCF density.

 **********************************************************************

 Orbital symmetries:
       Occupied  (A) (A) (A) (A) (A) (A) (A) (A) (A) (A) (A) (A)
                 (A) (A) (A) (A) (A) (A) (A) (A) (A) (A) (A) (A)
                 (A) (A) (A) (A) (A) (A) (A) (A) (A) (A) (A) (A)
                 (A) (A) (A) (A) (A) (A) (A) (A) (A) (A) (A) (A)
                 (A) (A) (A) (A) (A) (A) (A) (A) (A)
       Virtual   (A) (A) (A) (A) (A) (A) (A) (A) (A) (A) (A) (A)
                 (A) (A) (A) (A) (A) (A) (A) (A) (A) (A) (A) (A)
                 (A) (A) (A) (A) (A) (A) (A) (A) (A) (A) (A) (A)
                 (A) (A) (A) (A) (A) (A) (A) (A) (A) (A) (A) (A)
                 (A) (A) (A) (A) (A) (A) (A) (A) (A) (A) (A) (A)
                 (A) (A) (A) (A) (A) (A) (A) (A) (A) (A) (A) (A)
                 (A) (A) (A) (A) (A) (A) (A) (A) (A) (A) (A) (A)
                 (A) (A) (A) (A) (A) (A) (A) (A) (A) (A) (A) (A)
                 (A) (A) (A) (A) (A) (A) (A) (A) (A) (A) (A) (A)
                 (A) (A) (A) (A) (A) (A) (A) (A) (A) (A) (A) (A)
                 (A) (A) (A) (A) (A) (A) (A) (A) (A) (A) (A) (A)
                 (A) (A) (A) (A) (A) (A) (A) (A) (A) (A)
 The electronic state is 1-A.
 Alpha  occ. eigenvalues -- -145.52390-145.50181-145.50176 -77.25155 -19.25911
 Alpha  occ. eigenvalues --  -19.25460 -19.21787 -19.21787 -19.21336 -15.59148
 Alpha  occ. eigenvalues --  -15.56980 -15.56976 -12.72337 -12.72332 -12.72306
 Alpha  occ. eigenvalues --  -12.70187 -12.70186 -12.70178 -12.70178 -12.70099
 Alpha  occ. eigenvalues --  -12.70098  -6.70244  -4.86597  -4.86589  -4.86029
 Alpha  occ. eigenvalues --   -1.96326  -1.94231  -1.94165  -1.24348  -1.23881
 Alpha  occ. eigenvalues --   -1.23784  -1.22784  -1.22078  -1.21718  -1.21643
 Alpha  occ. eigenvalues --   -1.21523  -1.21225  -1.10028  -1.07331  -1.00853
 Alpha  occ. eigenvalues --   -1.00738  -0.89076  -0.63095  -0.51341  -0.51081
 Alpha  occ. eigenvalues --   -0.50980  -0.49233  -0.48444  -0.46045  -0.43795
 Alpha  occ. eigenvalues --   -0.43560  -0.38834  -0.38643  -0.38613  -0.35298
 Alpha  occ. eigenvalues --   -0.33990  -0.31701
 Alpha virt. eigenvalues --   -0.20302  -0.18389  -0.17631  -0.12783  -0.12605
 Alpha virt. eigenvalues --   -0.10903  -0.09920  -0.09096  -0.08255  -0.07951
 Alpha virt. eigenvalues --   -0.07350  -0.06563  -0.06018  -0.05818  -0.04926
 Alpha virt. eigenvalues --   -0.04867  -0.04857  -0.04686  -0.04486  -0.04309
 Alpha virt. eigenvalues --   -0.04013  -0.03911  -0.03218  -0.02974  -0.02947
 Alpha virt. eigenvalues --   -0.02710  -0.01826  -0.00967   0.00846   0.01988
 Alpha virt. eigenvalues --    0.02246   0.03414   0.04333   0.04543   0.04864
 Alpha virt. eigenvalues --    0.05216   0.05242   0.06160   0.06288   0.07052
 Alpha virt. eigenvalues --    0.07072   0.07099   0.07501   0.07555   0.07792
 Alpha virt. eigenvalues --    0.08501   0.09363   0.10327   0.11198   0.11842
 Alpha virt. eigenvalues --    0.12314   0.14917   0.14938   0.16117   0.17399
 Alpha virt. eigenvalues --    0.18779   0.20637   0.21079   0.21099   0.23267
 Alpha virt. eigenvalues --    0.23557   0.23713   0.24622   0.25787   0.27278
 Alpha virt. eigenvalues --    0.27991   0.29797   0.31569   0.33545   0.33934
 Alpha virt. eigenvalues --    0.34429   0.36041   0.36687   0.38777   0.39283
 Alpha virt. eigenvalues --    0.41190   0.45563   0.46014   0.53541   0.54381
 Alpha virt. eigenvalues --    0.55432   0.62684   0.63190   0.63522   0.66200
 Alpha virt. eigenvalues --    0.81573   0.85412   0.90486   0.93115   0.99241
 Alpha virt. eigenvalues --    1.11586   1.11886   1.15489   1.16009   1.17645
 Alpha virt. eigenvalues --    1.18028   1.19907   1.19985   1.20437   1.22322
 Alpha virt. eigenvalues --    1.22902   1.27532   1.31239   1.33939   1.38903
 Alpha virt. eigenvalues --    1.45501   1.46505   1.49257   1.57002   1.58132
 Alpha virt. eigenvalues --    1.60023   1.64353   1.68042   1.71387   1.73205
 Alpha virt. eigenvalues --    1.76858   1.78157   1.78946   1.81305   1.84865
 Alpha virt. eigenvalues --    1.86379   1.87079   1.89497   1.90274   1.91258
 Alpha virt. eigenvalues --    1.92838   1.93634   1.99372   2.00489   2.11283
 Alpha virt. eigenvalues --    2.21654   2.24618   2.36586   2.52378   2.56746
 Alpha virt. eigenvalues --    3.07046   3.54031   4.03161   4.09908   4.14247
 Alpha virt. eigenvalues --    4.19198   4.32840
          Condensed to atoms (all electrons):
              1          2          3          4          5          6
     1  O    8.936329   0.050164   0.013800  -0.171610   0.065896   0.050164
     2  O    0.050164   8.964854   0.074761  -0.177857   0.060497   0.043506
     3  Ca   0.013800   0.074761  18.361849   0.026331  -0.045053   0.074761
     4  P   -0.171610  -0.177857   0.026331  14.404327   0.017293  -0.177858
     5  Ca   0.065896   0.060497  -0.045053   0.017293  18.339607   0.004965
     6  O    0.050164   0.043506   0.074761  -0.177858   0.004965   8.964856
     7  O    0.022291   0.029633   0.088684  -0.024591   0.038130   0.029633
     8  Ca   0.065895   0.004965  -0.045052   0.017295  -0.047977   0.060496
     9  O    0.002093  -0.006655  -0.033272   0.003331   0.104072  -0.006655
              7          8          9
     1  O    0.022291   0.065895   0.002093
     2  O    0.029633   0.004965  -0.006655
     3  Ca   0.088684  -0.045052  -0.033272
     4  P   -0.024591   0.017295   0.003331
     5  Ca   0.038130  -0.047977   0.104072
     6  O    0.029633   0.060496  -0.006655
     7  O    8.604537   0.038129  -0.101021
     8  Ca   0.038129  18.339605   0.104073
     9  O   -0.101021   0.104073   8.577522
 Mulliken atomic charges:
              1
     1  O   -1.035021
     2  O   -1.043868
     3  Ca   1.483191
     4  P    1.083339
     5  Ca   1.462570
     6  O   -1.043869
     7  O   -0.725425
     8  Ca   1.462572
     9  O   -0.643489
 Sum of Mulliken charges=   1.00000
 Atomic charges with hydrogens summed into heavy atoms:
              1
     1  O   -1.035021
     2  O   -1.043868
     3  Ca   1.483191
     4  P    1.083339
     5  Ca   1.462570
     6  O   -1.043869
     7  O   -0.725425
     8  Ca   1.462572
     9  O   -0.643489
 Sum of Mulliken charges=   1.00000
 Electronic spatial extent (au):  <R**2>=  1729.1387
 Charge=     1.0000 electrons
 Dipole moment (field-independent basis, Debye):
    X=    -0.9355    Y=     0.0001    Z=     6.2023  Tot=     6.2725
 Quadrupole moment (field-independent basis, Debye-Ang):
   XX=   -63.6840   YY=   -44.2316   ZZ=   -80.5632
   XY=     0.0005   XZ=    28.3286   YZ=    -0.0008
 Traceless Quadrupole moment (field-independent basis, Debye-Ang):
   XX=    -0.8577   YY=    18.5946   ZZ=   -17.7370
   XY=     0.0005   XZ=    28.3286   YZ=    -0.0008
 Octapole moment (field-independent basis, Debye-Ang**2):
  XXX=    20.1964  YYY=     0.0012  ZZZ=    45.2071  XYY=   -73.7758
  XXY=    -0.0007  XXZ=    28.1878  XZZ=    39.2653  YZZ=     0.0002
  YYZ=     4.8990  XYZ=     0.0015
 Hexadecapole moment (field-independent basis, Debye-Ang**3):
 XXXX=  -745.7778 YYYY=  -401.3035 ZZZZ=  -674.4962 XXXY=     0.0030
 XXXZ=   157.8810 YYYX=     0.0021 YYYZ=    -0.0034 ZZZX=   109.8995
 ZZZY=    -0.0026 XXYY=  -182.3422 XXZZ=  -218.9916 YYZZ=  -189.7232
 XXYZ=    -0.0011 YYXZ=    34.9849 ZZXY=     0.0005
 N-N= 1.104870986111D+03 E-N=-8.710395922894D+03  KE= 2.742230878939D+03
 Merz-Kollman atomic radii used.
 Read replacement radii for each type of atom:
 Rad(20) =   1.188000000000D+00
 Atom Element Radius
    1     8    1.40
    2     8    1.40
    3    20    1.19
    4    15    1.80
    5    20    1.19
    6     8    1.40
    7     8    1.40
    8    20    1.19
    9     8    1.40

 **********************************************************************

            Electrostatic Properties Using The SCF Density

 **********************************************************************

       Atomic Center    1 is at  -0.590720 -0.000025 -1.656661
       Atomic Center    2 is at   1.237298  1.284873 -0.441481
       Atomic Center    3 is at   1.627000  0.000010  1.389599
       Atomic Center    4 is at   1.064860 -0.000026 -1.531161
       Atomic Center    5 is at  -1.054489  1.671408 -0.138181
       Atomic Center    6 is at   1.237281 -1.284897 -0.441451
       Atomic Center    7 is at  -0.607700  0.000035  1.522509
       Atomic Center    8 is at  -1.054511 -1.671402 -0.138131
       Atomic Center    9 is at  -2.067770  0.000025  1.104799
     736 points will be used for fitting atomic charges
 Fitting point charges to eletrostatic potential
 Charges from ESP fit, RMS=   0.00664 RRMS=   0.04145:
 Charge=   1.00000 Dipole=    -0.7872     0.0000     6.0444 Tot=     6.0954
              1
     1  O   -0.945482
     2  O   -0.990022
     3  Ca   1.651166
     4  P    0.545252
     5  Ca   1.674796
     6  O   -0.990021
     7  O   -0.930247
     8  Ca   1.674795
     9  O   -0.690238
 -----------------------------------------------------------------

              Electrostatic Properties (Atomic Units)

 -----------------------------------------------------------------
    Center     Electric         -------- Electric Field --------
               Potential          X             Y             Z
 -----------------------------------------------------------------
    1 Atom    -22.248739
    2 Atom    -22.248497
    3 Atom    -80.016232
    4 Atom    -53.962526
    5 Atom    -80.038992
    6 Atom    -22.248497
    7 Atom    -22.204676
    8 Atom    -80.038991
    9 Atom    -22.216058
 -----------------------------------------------------------------
 1\1\GINC-N034\SP\RB3LYP\6-31+G(d,p)\Ca3O5P1(1+)\TIMN\12-Jun-2015\0\\# 
 b3lyp/6-31+G(d,p) int=ultrafine pop=(ReadRadii,MK)\\mol_17.28.29.pdbc_
 plusQ.z58552.zip.xyz\\1,1\O,0,0.59072,0.00003,-1.65666\O,0,-1.23729,-1
 .28488,-0.44148\Ca,0,-1.627,-0.00002,1.3896\P,0,-1.06486,0.00002,-1.53
 116\Ca,0,1.0545,-1.6714,-0.13818\O,0,-1.23729,1.28489,-0.44145\O,0,0.6
 077,-0.00003,1.52251\Ca,0,1.0545,1.67141,-0.13813\O,0,2.06777,-0.00001
 ,1.1048\\Version=EM64T-G03RevE.01\State=1-A\HF=-2750.2488181\RMSD=5.38
 2e-05\Thermal=0.\Dipole=0.3680431,-0.0000174,2.4401821\PG=C01 [X(Ca3O5
 P1)]\\@


 ASKING DUMB QUESTIONS IS EASIER THAN CORECTING DUMB MISTAKES.
 Job cpu time:  0 days  0 hours  1 minutes 57.8 seconds.
 File lengths (MBytes):  RWF=     36 Int=      0 D2E=      0 Chk=     11 Scr=      1
 Normal termination of Gaussian 03 at Fri Jun 12 18:09:27 2015.
