 Entering Gaussian System, Link 0=/home/timn/tmp/g03.e01/g03
 Input=mol_16.4.26.pdbc_plusQ.out.z51576.zip.xyz.gjf
 Output=mol_16.4.26.pdbc_plusQ.out.z51576.zip.xyz.out
 Initial command:
 /home/timn/tmp/g03.e01/l1.exe /home/timn/tmp/g03.e01/Gau-18571.inp -scrdir=/home/timn/tmp/g03.e01/
 Default is to use a total of   2 processors:
                                2 via shared-memory
                                1 via Linda
 Entering Link 1 = /home/timn/tmp/g03.e01/l1.exe PID=     18574.
  
 Copyright (c) 1988,1990,1992,1993,1995,1998,2003,2004,2007, Gaussian, Inc.
                  All Rights Reserved.
  
 This is the Gaussian(R) 03 program.  It is based on the
 the Gaussian(R) 98 system (copyright 1998, Gaussian, Inc.),
 the Gaussian(R) 94 system (copyright 1995, Gaussian, Inc.),
 the Gaussian 92(TM) system (copyright 1992, Gaussian, Inc.),
 the Gaussian 90(TM) system (copyright 1990, Gaussian, Inc.),
 the Gaussian 88(TM) system (copyright 1988, Gaussian, Inc.),
 the Gaussian 86(TM) system (copyright 1986, Carnegie Mellon
 University), and the Gaussian 82(TM) system (copyright 1983,
 Carnegie Mellon University). Gaussian is a federally registered
 trademark of Gaussian, Inc.
  
 This software contains proprietary and confidential information,
 including trade secrets, belonging to Gaussian, Inc.
  
 This software is provided under written license and may be
 used, copied, transmitted, or stored only in accord with that
 written license.
  
 The following legend is applicable only to US Government
 contracts under FAR:
  
                    RESTRICTED RIGHTS LEGEND
  
 Use, reproduction and disclosure by the US Government is
 subject to restrictions as set forth in subparagraphs (a)
 and (c) of the Commercial Computer Software - Restricted
 Rights clause in FAR 52.227-19.
  
 Gaussian, Inc.
 340 Quinnipiac St., Bldg. 40, Wallingford CT 06492
  
  
 ---------------------------------------------------------------
 Warning -- This program may not be used in any manner that
 competes with the business of Gaussian, Inc. or will provide
 assistance to any competitor of Gaussian, Inc.  The licensee
 of this program is prohibited from giving any competitor of
 Gaussian, Inc. access to this program.  By using this program,
 the user acknowledges that Gaussian, Inc. is engaged in the
 business of creating and licensing software in the field of
 computational chemistry and represents and warrants to the
 licensee that it is not a competitor of Gaussian, Inc. and that
 it will not use this program in any manner prohibited above.
 ---------------------------------------------------------------
  

 Cite this work as:
 Gaussian 03, Revision E.01,
 M. J. Frisch, G. W. Trucks, H. B. Schlegel, G. E. Scuseria, 
 M. A. Robb, J. R. Cheeseman, J. A. Montgomery, Jr., T. Vreven, 
 K. N. Kudin, J. C. Burant, J. M. Millam, S. S. Iyengar, J. Tomasi, 
 V. Barone, B. Mennucci, M. Cossi, G. Scalmani, N. Rega, 
 G. A. Petersson, H. Nakatsuji, M. Hada, M. Ehara, K. Toyota, 
 R. Fukuda, J. Hasegawa, M. Ishida, T. Nakajima, Y. Honda, O. Kitao, 
 H. Nakai, M. Klene, X. Li, J. E. Knox, H. P. Hratchian, J. B. Cross, 
 V. Bakken, C. Adamo, J. Jaramillo, R. Gomperts, R. E. Stratmann, 
 O. Yazyev, A. J. Austin, R. Cammi, C. Pomelli, J. W. Ochterski, 
 P. Y. Ayala, K. Morokuma, G. A. Voth, P. Salvador, J. J. Dannenberg, 
 V. G. Zakrzewski, S. Dapprich, A. D. Daniels, M. C. Strain, 
 O. Farkas, D. K. Malick, A. D. Rabuck, K. Raghavachari, 
 J. B. Foresman, J. V. Ortiz, Q. Cui, A. G. Baboul, S. Clifford, 
 J. Cioslowski, B. B. Stefanov, G. Liu, A. Liashenko, P. Piskorz, 
 I. Komaromi, R. L. Martin, D. J. Fox, T. Keith, M. A. Al-Laham, 
 C. Y. Peng, A. Nanayakkara, M. Challacombe, P. M. W. Gill, 
 B. Johnson, W. Chen, M. W. Wong, C. Gonzalez, and J. A. Pople, 
 Gaussian, Inc., Wallingford CT, 2004.
 
 ******************************************
 Gaussian 03:  EM64T-G03RevE.01 11-Sep-2007
                12-Jun-2015 
 ******************************************
 %nproc=2
 Will use up to    2 processors via shared memory.
 Default route:  MP2=Direct MaxDisk=2000MB
 ----------------------------------------------------
 # b3lyp/6-31+G(d,p) int=ultrafine pop=(ReadRadii,MK)
 ----------------------------------------------------

 Warning!  SCF SP cutoffs with diffuse functions may be unreliable.
 Consider SCF=Tight

 1/38=1/1;
 2/17=6,18=5,40=1/2;
 3/5=1,6=6,7=111,11=2,16=1,25=1,30=1,74=-5,75=5/1,2,3;
 4//1;
 5/5=2,32=1,38=5/2;
 6/7=2,8=2,9=2,10=2,15=8,20=101,28=1/1,2;
 99/5=1,9=1/99;
 -----------------------------------------
 mol_16.4.26.pdbc_plusQ.out.z51576.zip.xyz
 -----------------------------------------
 Symbolic Z-matrix:
 Charge =  1 Multiplicity = 1
 O                     3.27828  -0.0551    0.00115 
 P                     1.79451  -0.06472  -0.00054 
 O                     0.99573  -1.38738  -0.00087 
 Ca                   -0.42674   1.99167  -0.00015 
 O                    -1.7255    0.37741  -0.78458 
 O                    -1.72486   0.37738   0.78529 
 Ca                   -1.2486   -1.66805   0.00016 
 
                          Input orientation:                          
 ---------------------------------------------------------------------
 Center     Atomic     Atomic              Coordinates (Angstroms)
 Number     Number      Type              X           Y           Z
 ---------------------------------------------------------------------
    1          8             0        3.278280   -0.055100    0.001150
    2         15             0        1.794510   -0.064720   -0.000540
    3          8             0        0.995730   -1.387380   -0.000870
    4         20             0       -0.426740    1.991670   -0.000150
    5          8             0       -1.725500    0.377410   -0.784580
    6          8             0       -1.724860    0.377380    0.785290
    7         20             0       -1.248600   -1.668050    0.000160
 ---------------------------------------------------------------------
                    Distance matrix (angstroms):
                    1          2          3          4          5
     1  O    0.000000
     2  P    1.483802   0.000000
     3  O    2.642917   1.545147   0.000000
     4  Ca   4.232782   3.026994   3.666252   0.000000
     5  O    5.083527   3.633272   3.336732   2.215388   0.000000
     6  O    5.082649   3.633035   3.336770   2.215392   1.569870
     7  Ca   4.805648   3.439649   2.261812   3.750867   2.242132
                    6          7
     6  O    0.000000
     7  Ca   2.242105   0.000000
 Stoichiometry    Ca2O4P(1+)
 Framework group  C1[X(Ca2O4P)]
 Deg. of freedom    15
 Full point group                 C1
 Largest Abelian subgroup         C1      NOp   1
 Largest concise Abelian subgroup C1      NOp   1
                         Standard orientation:                         
 ---------------------------------------------------------------------
 Center     Atomic     Atomic              Coordinates (Angstroms)
 Number     Number      Type              X           Y           Z
 ---------------------------------------------------------------------
    1          8             0        3.278279   -0.055102    0.001150
    2         15             0        1.794509   -0.064722   -0.000540
    3          8             0        0.995729   -1.387381   -0.000870
    4         20             0       -0.426740    1.991669   -0.000150
    5          8             0       -1.725500    0.377410   -0.784580
    6          8             0       -1.724860    0.377380    0.785290
    7         20             0       -1.248601   -1.668050    0.000160
 ---------------------------------------------------------------------
 Rotational constants (GHZ):      1.5552776      1.0707598      0.6671610
 Standard basis: 6-31+G(d,p) (6D, 7F)
 There are   153 symmetry adapted basis functions of A   symmetry.
 Integral buffers will be    131072 words long.
 Raffenetti 2 integral format.
 Two-electron integral symmetry is turned on.
   153 basis functions,   344 primitive gaussians,   153 cartesian basis functions
    43 alpha electrons       43 beta electrons
       nuclear repulsion energy       592.0063072887 Hartrees.
 NAtoms=    7 NActive=    7 NUniq=    7 SFac= 7.50D-01 NAtFMM=   80 NAOKFM=F Big=F
 One-electron integrals computed using PRISM.
 NBasis=   153 RedAO= T  NBF=   153
 NBsUse=   153 1.00D-06 NBFU=   153
 Harris functional with IExCor=  402 diagonalized for initial guess.
 ExpMin= 7.10D-03 ExpMax= 3.53D+04 ExpMxC= 5.30D+03 IAcc=3 IRadAn=         5 AccDes= 0.00D+00
 HarFok:  IExCor= 402 AccDes= 0.00D+00 IRadAn=         5 IDoV=1
 ScaDFX=  1.000000  1.000000  1.000000  1.000000
 Initial guess orbital symmetries:
       Occupied  (A) (A) (A) (A) (A) (A) (A) (A) (A) (A) (A) (A)
                 (A) (A) (A) (A) (A) (A) (A) (A) (A) (A) (A) (A)
                 (A) (A) (A) (A) (A) (A) (A) (A) (A) (A) (A) (A)
                 (A) (A) (A) (A) (A) (A) (A)
       Virtual   (A) (A) (A) (A) (A) (A) (A) (A) (A) (A) (A) (A)
                 (A) (A) (A) (A) (A) (A) (A) (A) (A) (A) (A) (A)
                 (A) (A) (A) (A) (A) (A) (A) (A) (A) (A) (A) (A)
                 (A) (A) (A) (A) (A) (A) (A) (A) (A) (A) (A) (A)
                 (A) (A) (A) (A) (A) (A) (A) (A) (A) (A) (A) (A)
                 (A) (A) (A) (A) (A) (A) (A) (A) (A) (A) (A) (A)
                 (A) (A) (A) (A) (A) (A) (A) (A) (A) (A) (A) (A)
                 (A) (A) (A) (A) (A) (A) (A) (A) (A) (A) (A) (A)
                 (A) (A) (A) (A) (A) (A) (A) (A) (A) (A) (A) (A)
                 (A) (A)
 The electronic state of the initial guess is 1-A.
 Requested convergence on RMS density matrix=1.00D-04 within 128 cycles.
 Requested convergence on MAX density matrix=1.00D-02.
 Requested convergence on             energy=1.00D-02.
 No special actions if energy rises.
 SCF Done:  E(RB+HF-LYP) =  -1997.27782587     A.U. after    7 cycles
             Convg  =    0.5224D-04             -V/T =  2.0031
             S**2   =   0.0000

 **********************************************************************

            Population analysis using the SCF density.

 **********************************************************************

 Orbital symmetries:
       Occupied  (A) (A) (A) (A) (A) (A) (A) (A) (A) (A) (A) (A)
                 (A) (A) (A) (A) (A) (A) (A) (A) (A) (A) (A) (A)
                 (A) (A) (A) (A) (A) (A) (A) (A) (A) (A) (A) (A)
                 (A) (A) (A) (A) (A) (A) (A)
       Virtual   (A) (A) (A) (A) (A) (A) (A) (A) (A) (A) (A) (A)
                 (A) (A) (A) (A) (A) (A) (A) (A) (A) (A) (A) (A)
                 (A) (A) (A) (A) (A) (A) (A) (A) (A) (A) (A) (A)
                 (A) (A) (A) (A) (A) (A) (A) (A) (A) (A) (A) (A)
                 (A) (A) (A) (A) (A) (A) (A) (A) (A) (A) (A) (A)
                 (A) (A) (A) (A) (A) (A) (A) (A) (A) (A) (A) (A)
                 (A) (A) (A) (A) (A) (A) (A) (A) (A) (A) (A) (A)
                 (A) (A) (A) (A) (A) (A) (A) (A) (A) (A) (A) (A)
                 (A) (A) (A) (A) (A) (A) (A) (A) (A) (A) (A) (A)
                 (A) (A)
 The electronic state is 1-A.
 Alpha  occ. eigenvalues -- -145.57036-145.54341 -77.29012 -19.27750 -19.27169
 Alpha  occ. eigenvalues --  -19.27163 -19.26006 -15.63843 -15.61174 -12.77055
 Alpha  occ. eigenvalues --  -12.77046 -12.76968 -12.74391 -12.74360 -12.74300
 Alpha  occ. eigenvalues --   -6.74826  -4.91300  -4.91001  -4.90697  -2.00825
 Alpha  occ. eigenvalues --   -1.98276  -1.28677  -1.28228  -1.28168  -1.25991
 Alpha  occ. eigenvalues --   -1.25808  -1.25716  -1.13087  -1.10003  -1.08097
 Alpha  occ. eigenvalues --   -0.91066  -0.65736  -0.54197  -0.52476  -0.51604
 Alpha  occ. eigenvalues --   -0.50554  -0.49670  -0.47564  -0.43931  -0.43335
 Alpha  occ. eigenvalues --   -0.39397  -0.38835  -0.35663
 Alpha virt. eigenvalues --   -0.22681  -0.20766  -0.19792  -0.15390  -0.13297
 Alpha virt. eigenvalues --   -0.12438  -0.11328  -0.10494  -0.10230  -0.09073
 Alpha virt. eigenvalues --   -0.07541  -0.06412  -0.06298  -0.05643  -0.05588
 Alpha virt. eigenvalues --   -0.04680  -0.04641  -0.04420  -0.04130  -0.03869
 Alpha virt. eigenvalues --   -0.03494  -0.00993  -0.00357   0.01325   0.01439
 Alpha virt. eigenvalues --    0.01551   0.01962   0.02661   0.02682   0.03023
 Alpha virt. eigenvalues --    0.04208   0.04653   0.05192   0.05450   0.06280
 Alpha virt. eigenvalues --    0.06922   0.07914   0.10586   0.12536   0.13121
 Alpha virt. eigenvalues --    0.13138   0.15095   0.15597   0.15710   0.16374
 Alpha virt. eigenvalues --    0.17018   0.18532   0.21456   0.22875   0.23904
 Alpha virt. eigenvalues --    0.25821   0.27083   0.29752   0.30963   0.32209
 Alpha virt. eigenvalues --    0.33063   0.33739   0.38945   0.43777   0.45620
 Alpha virt. eigenvalues --    0.52164   0.56186   0.58035   0.59520   0.62623
 Alpha virt. eigenvalues --    0.70628   0.81197   0.92961   0.97541   1.06455
 Alpha virt. eigenvalues --    1.06722   1.06864   1.09492   1.10492   1.13331
 Alpha virt. eigenvalues --    1.15260   1.16182   1.16561   1.19028   1.21413
 Alpha virt. eigenvalues --    1.26574   1.41054   1.42695   1.46497   1.49430
 Alpha virt. eigenvalues --    1.50390   1.61857   1.67987   1.69611   1.70338
 Alpha virt. eigenvalues --    1.71581   1.78080   1.79130   1.81016   1.81600
 Alpha virt. eigenvalues --    1.82794   1.85815   1.90220   1.95689   2.13430
 Alpha virt. eigenvalues --    2.14895   2.15550   2.60302   2.76355   2.98867
 Alpha virt. eigenvalues --    3.36890   3.86070   3.92092   4.01508   4.05411
          Condensed to atoms (all electrons):
              1          2          3          4          5          6
     1  O    8.440901   0.170373  -0.055951  -0.014475   0.001489   0.001456
     2  P    0.170373  14.589186  -0.359508   0.162969  -0.036009  -0.035970
     3  O   -0.055951  -0.359508   8.955137  -0.044013   0.023697   0.023706
     4  Ca  -0.014475   0.162969  -0.044013  18.237058   0.114683   0.114638
     5  O    0.001489  -0.036009   0.023697   0.114683   8.549132  -0.095986
     6  O    0.001456  -0.035970   0.023706   0.114638  -0.095986   8.549238
     7  Ca  -0.001699   0.051103   0.040404  -0.017192   0.094557   0.094561
              7
     1  O   -0.001699
     2  P    0.051103
     3  O    0.040404
     4  Ca  -0.017192
     5  O    0.094557
     6  O    0.094561
     7  Ca  18.213681
 Mulliken atomic charges:
              1
     1  O   -0.542095
     2  P    0.457856
     3  O   -0.583473
     4  Ca   1.446333
     5  O   -0.651564
     6  O   -0.651643
     7  Ca   1.524586
 Sum of Mulliken charges=   1.00000
 Atomic charges with hydrogens summed into heavy atoms:
              1
     1  O   -0.542095
     2  P    0.457856
     3  O   -0.583473
     4  Ca   1.446333
     5  O   -0.651564
     6  O   -0.651643
     7  Ca   1.524586
 Sum of Mulliken charges=   1.00000
 Electronic spatial extent (au):  <R**2>=  1489.6488
 Charge=     1.0000 electrons
 Dipole moment (field-independent basis, Debye):
    X=    -7.1786    Y=     2.5338    Z=    -0.0026  Tot=     7.6126
 Quadrupole moment (field-independent basis, Debye-Ang):
   XX=   -77.6582   YY=    -7.3739   ZZ=   -58.5064
   XY=    16.7306   XZ=    -0.0077   YZ=    -0.0074
 Traceless Quadrupole moment (field-independent basis, Debye-Ang):
   XX=   -29.8120   YY=    40.4722   ZZ=   -10.6602
   XY=    16.7306   XZ=    -0.0077   YZ=    -0.0074
 Octapole moment (field-independent basis, Debye-Ang**2):
  XXX=   -66.6662  YYY=    39.8583  ZZZ=    -0.0037  XYY=   -60.0073
  XXY=   -26.1662  XXZ=    -0.0339  XZZ=     0.6108  YZZ=    -1.2639
  YYZ=     0.0063  XYZ=     0.0052
 Hexadecapole moment (field-independent basis, Debye-Ang**3):
 XXXX= -1282.4983 YYYY=  -285.4171 ZZZZ=  -105.0525 XXXY=    68.8520
 XXXZ=    -0.1152 YYYX=    59.0859 YYYZ=    -0.0355 ZZZX=     0.0089
 ZZZY=    -0.0135 XXYY=  -216.5817 XXZZ=  -198.0747 YYZZ=   -97.3203
 XXYZ=    -0.0029 YYXZ=     0.0039 ZZXY=    11.7442
 N-N= 5.920063072887D+02 E-N=-5.902552542277D+03  KE= 1.991090289109D+03
 Merz-Kollman atomic radii used.
 Read replacement radii for each type of atom:
 Rad(20) =   1.188000000000D+00
 Atom Element Radius
    1     8    1.40
    2    15    1.80
    3     8    1.40
    4    20    1.19
    5     8    1.40
    6     8    1.40
    7    20    1.19

 **********************************************************************

            Electrostatic Properties Using The SCF Density

 **********************************************************************

       Atomic Center    1 is at   3.278279 -0.055102  0.001150
       Atomic Center    2 is at   1.794509 -0.064722 -0.000540
       Atomic Center    3 is at   0.995729 -1.387381 -0.000870
       Atomic Center    4 is at  -0.426740  1.991669 -0.000150
       Atomic Center    5 is at  -1.725500  0.377410 -0.784580
       Atomic Center    6 is at  -1.724860  0.377380  0.785290
       Atomic Center    7 is at  -1.248601 -1.668050  0.000160
     698 points will be used for fitting atomic charges
 Fitting point charges to eletrostatic potential
 Charges from ESP fit, RMS=   0.00738 RRMS=   0.04523:
 Charge=   1.00000 Dipole=    -6.9825     2.6888    -0.0012 Tot=     7.4823
              1
     1  O   -0.216615
     2  P   -0.060965
     3  O   -0.484559
     4  Ca   1.614428
     5  O   -0.757170
     6  O   -0.757107
     7  Ca   1.661988
 -----------------------------------------------------------------

              Electrostatic Properties (Atomic Units)

 -----------------------------------------------------------------
    Center     Electric         -------- Electric Field --------
               Potential          X             Y             Z
 -----------------------------------------------------------------
    1 Atom    -22.209395
    2 Atom    -53.923249
    3 Atom    -22.185714
    4 Atom    -79.970849
    5 Atom    -22.198687
    6 Atom    -22.198690
    7 Atom    -79.996715
 -----------------------------------------------------------------
 1\1\GINC-N027\SP\RB3LYP\6-31+G(d,p)\Ca2O4P1(1+)\TIMN\12-Jun-2015\0\\# 
 b3lyp/6-31+G(d,p) int=ultrafine pop=(ReadRadii,MK)\\mol_16.4.26.pdbc_p
 lusQ.out.z51576.zip.xyz\\1,1\O,0,3.27828,-0.0551,0.00115\P,0,1.79451,-
 0.06472,-0.00054\O,0,0.99573,-1.38738,-0.00087\Ca,0,-0.42674,1.99167,-
 0.00015\O,0,-1.7255,0.37741,-0.78458\O,0,-1.72486,0.37738,0.78529\Ca,0
 ,-1.2486,-1.66805,0.00016\\Version=EM64T-G03RevE.01\State=1-A\HF=-1997
 .2778259\RMSD=5.224e-05\Thermal=0.\Dipole=-2.8242629,0.9968772,-0.0010
 064\PG=C01 [X(Ca2O4P1)]\\@


 ON A CLEAR DISK YOU CAN SEEK FOREVER.
 Job cpu time:  0 days  0 hours  0 minutes 48.7 seconds.
 File lengths (MBytes):  RWF=     28 Int=      0 D2E=      0 Chk=     10 Scr=      1
 Normal termination of Gaussian 03 at Fri Jun 12 17:48:12 2015.
