 Entering Gaussian System, Link 0=/home/timn/tmp/g03.e01/g03
 Input=mol_17.28.24.pdbcccc_plusQ.z58547.zip.xyz.gjf
 Output=mol_17.28.24.pdbcccc_plusQ.z58547.zip.xyz.out
 Initial command:
 /home/timn/tmp/g03.e01/l1.exe /home/timn/tmp/g03.e01/Gau-20289.inp -scrdir=/home/timn/tmp/g03.e01/
 Default is to use a total of   2 processors:
                                2 via shared-memory
                                1 via Linda
 Entering Link 1 = /home/timn/tmp/g03.e01/l1.exe PID=     20290.
  
 Copyright (c) 1988,1990,1992,1993,1995,1998,2003,2004,2007, Gaussian, Inc.
                  All Rights Reserved.
  
 This is the Gaussian(R) 03 program.  It is based on the
 the Gaussian(R) 98 system (copyright 1998, Gaussian, Inc.),
 the Gaussian(R) 94 system (copyright 1995, Gaussian, Inc.),
 the Gaussian 92(TM) system (copyright 1992, Gaussian, Inc.),
 the Gaussian 90(TM) system (copyright 1990, Gaussian, Inc.),
 the Gaussian 88(TM) system (copyright 1988, Gaussian, Inc.),
 the Gaussian 86(TM) system (copyright 1986, Carnegie Mellon
 University), and the Gaussian 82(TM) system (copyright 1983,
 Carnegie Mellon University). Gaussian is a federally registered
 trademark of Gaussian, Inc.
  
 This software contains proprietary and confidential information,
 including trade secrets, belonging to Gaussian, Inc.
  
 This software is provided under written license and may be
 used, copied, transmitted, or stored only in accord with that
 written license.
  
 The following legend is applicable only to US Government
 contracts under FAR:
  
                    RESTRICTED RIGHTS LEGEND
  
 Use, reproduction and disclosure by the US Government is
 subject to restrictions as set forth in subparagraphs (a)
 and (c) of the Commercial Computer Software - Restricted
 Rights clause in FAR 52.227-19.
  
 Gaussian, Inc.
 340 Quinnipiac St., Bldg. 40, Wallingford CT 06492
  
  
 ---------------------------------------------------------------
 Warning -- This program may not be used in any manner that
 competes with the business of Gaussian, Inc. or will provide
 assistance to any competitor of Gaussian, Inc.  The licensee
 of this program is prohibited from giving any competitor of
 Gaussian, Inc. access to this program.  By using this program,
 the user acknowledges that Gaussian, Inc. is engaged in the
 business of creating and licensing software in the field of
 computational chemistry and represents and warrants to the
 licensee that it is not a competitor of Gaussian, Inc. and that
 it will not use this program in any manner prohibited above.
 ---------------------------------------------------------------
  

 Cite this work as:
 Gaussian 03, Revision E.01,
 M. J. Frisch, G. W. Trucks, H. B. Schlegel, G. E. Scuseria, 
 M. A. Robb, J. R. Cheeseman, J. A. Montgomery, Jr., T. Vreven, 
 K. N. Kudin, J. C. Burant, J. M. Millam, S. S. Iyengar, J. Tomasi, 
 V. Barone, B. Mennucci, M. Cossi, G. Scalmani, N. Rega, 
 G. A. Petersson, H. Nakatsuji, M. Hada, M. Ehara, K. Toyota, 
 R. Fukuda, J. Hasegawa, M. Ishida, T. Nakajima, Y. Honda, O. Kitao, 
 H. Nakai, M. Klene, X. Li, J. E. Knox, H. P. Hratchian, J. B. Cross, 
 V. Bakken, C. Adamo, J. Jaramillo, R. Gomperts, R. E. Stratmann, 
 O. Yazyev, A. J. Austin, R. Cammi, C. Pomelli, J. W. Ochterski, 
 P. Y. Ayala, K. Morokuma, G. A. Voth, P. Salvador, J. J. Dannenberg, 
 V. G. Zakrzewski, S. Dapprich, A. D. Daniels, M. C. Strain, 
 O. Farkas, D. K. Malick, A. D. Rabuck, K. Raghavachari, 
 J. B. Foresman, J. V. Ortiz, Q. Cui, A. G. Baboul, S. Clifford, 
 J. Cioslowski, B. B. Stefanov, G. Liu, A. Liashenko, P. Piskorz, 
 I. Komaromi, R. L. Martin, D. J. Fox, T. Keith, M. A. Al-Laham, 
 C. Y. Peng, A. Nanayakkara, M. Challacombe, P. M. W. Gill, 
 B. Johnson, W. Chen, M. W. Wong, C. Gonzalez, and J. A. Pople, 
 Gaussian, Inc., Wallingford CT, 2004.
 
 ******************************************
 Gaussian 03:  EM64T-G03RevE.01 11-Sep-2007
                12-Jun-2015 
 ******************************************
 %nproc=2
 Will use up to    2 processors via shared memory.
 Default route:  MP2=Direct MaxDisk=2000MB
 ----------------------------------------------------
 # b3lyp/6-31+G(d,p) int=ultrafine pop=(ReadRadii,MK)
 ----------------------------------------------------

 Warning!  SCF SP cutoffs with diffuse functions may be unreliable.
 Consider SCF=Tight

 1/38=1/1;
 2/17=6,18=5,40=1/2;
 3/5=1,6=6,7=111,11=2,16=1,25=1,30=1,74=-5,75=5/1,2,3;
 4//1;
 5/5=2,32=1,38=5/2;
 6/7=2,8=2,9=2,10=2,15=8,20=101,28=1/1,2;
 99/5=1,9=1/99;
 -----------------------------------------
 mol_17.28.24.pdbcccc_plusQ.z58547.zip.xyz
 -----------------------------------------
 Symbolic Z-matrix:
 Charge =  1 Multiplicity = 1
 O                     1.23802   1.28507  -0.44079 
 O                    -0.60843   0.00003   1.52168 
 Ca                    1.6258    0.        1.39015 
 P                     1.06566  -0.00004  -1.53063 
 Ca                   -1.05444   1.672    -0.13851 
 O                    -0.58968  -0.00001  -1.6563 
 O                     1.23799  -1.28511  -0.44076 
 Ca                   -1.0545   -1.67198  -0.13847 
 O                    -2.06816   0.00005   1.10319 
 
                          Input orientation:                          
 ---------------------------------------------------------------------
 Center     Atomic     Atomic              Coordinates (Angstroms)
 Number     Number      Type              X           Y           Z
 ---------------------------------------------------------------------
    1          8             0        1.238020    1.285070   -0.440790
    2          8             0       -0.608430    0.000030    1.521680
    3         20             0        1.625800    0.000000    1.390150
    4         15             0        1.065660   -0.000040   -1.530630
    5         20             0       -1.054440    1.672000   -0.138510
    6          8             0       -0.589680   -0.000010   -1.656300
    7          8             0        1.237990   -1.285110   -0.440760
    8         20             0       -1.054500   -1.671980   -0.138470
    9          8             0       -2.068160    0.000050    1.103190
 ---------------------------------------------------------------------
                    Distance matrix (angstroms):
                    1          2          3          4          5
     1  O    0.000000
     2  O    2.985296   0.000000
     3  Ca   2.270269   2.238098   0.000000
     4  P    1.693802   3.481260   2.974006   0.000000
     5  Ca   2.344453   2.398049   3.509426   3.037851   0.000000
     6  O    2.543498   3.178035   3.766857   1.660103   2.305495
     7  O    2.570180   2.985301   2.270272   1.693788   3.753810
     8  Ca   3.753823   2.398060   3.509445   3.037856   3.343980
     9  O    3.868588   1.518534   3.705089   4.093634   2.316218
                    6          7          8          9
     6  O    0.000000
     7  O    2.543501   0.000000
     8  Ca   2.305504   2.344474   0.000000
     9  O    3.130605   3.868597   2.316228   0.000000
 Stoichiometry    Ca3O5P(1+)
 Framework group  C1[X(Ca3O5P)]
 Deg. of freedom    21
 Full point group                 C1
 Largest Abelian subgroup         C1      NOp   1
 Largest concise Abelian subgroup C1      NOp   1
                         Standard orientation:                         
 ---------------------------------------------------------------------
 Center     Atomic     Atomic              Coordinates (Angstroms)
 Number     Number      Type              X           Y           Z
 ---------------------------------------------------------------------
    1          8             0        1.238018    1.285072   -0.440791
    2          8             0       -0.608430    0.000029    1.521679
    3         20             0        1.625800    0.000002    1.390149
    4         15             0        1.065660   -0.000039   -1.530631
    5         20             0       -1.054443    1.671998   -0.138511
    6          8             0       -0.589680   -0.000011   -1.656301
    7          8             0        1.237992   -1.285108   -0.440761
    8         20             0       -1.054497   -1.671982   -0.138471
    9          8             0       -2.068160    0.000046    1.103189
 ---------------------------------------------------------------------
 Rotational constants (GHZ):      0.9461338      0.8197405      0.7960121
 Standard basis: 6-31+G(d,p) (6D, 7F)
 There are   199 symmetry adapted basis functions of A   symmetry.
 Integral buffers will be    131072 words long.
 Raffenetti 2 integral format.
 Two-electron integral symmetry is turned on.
   199 basis functions,   456 primitive gaussians,   199 cartesian basis functions
    57 alpha electrons       57 beta electrons
       nuclear repulsion energy      1104.8538680874 Hartrees.
 NAtoms=    9 NActive=    9 NUniq=    9 SFac= 7.50D-01 NAtFMM=   80 NAOKFM=F Big=F
 One-electron integrals computed using PRISM.
 NBasis=   199 RedAO= T  NBF=   199
 NBsUse=   199 1.00D-06 NBFU=   199
 Harris functional with IExCor=  402 diagonalized for initial guess.
 ExpMin= 7.10D-03 ExpMax= 3.53D+04 ExpMxC= 5.30D+03 IAcc=3 IRadAn=         5 AccDes= 0.00D+00
 HarFok:  IExCor= 402 AccDes= 0.00D+00 IRadAn=         5 IDoV=1
 ScaDFX=  1.000000  1.000000  1.000000  1.000000
 Initial guess orbital symmetries:
       Occupied  (A) (A) (A) (A) (A) (A) (A) (A) (A) (A) (A) (A)
                 (A) (A) (A) (A) (A) (A) (A) (A) (A) (A) (A) (A)
                 (A) (A) (A) (A) (A) (A) (A) (A) (A) (A) (A) (A)
                 (A) (A) (A) (A) (A) (A) (A) (A) (A) (A) (A) (A)
                 (A) (A) (A) (A) (A) (A) (A) (A) (A)
       Virtual   (A) (A) (A) (A) (A) (A) (A) (A) (A) (A) (A) (A)
                 (A) (A) (A) (A) (A) (A) (A) (A) (A) (A) (A) (A)
                 (A) (A) (A) (A) (A) (A) (A) (A) (A) (A) (A) (A)
                 (A) (A) (A) (A) (A) (A) (A) (A) (A) (A) (A) (A)
                 (A) (A) (A) (A) (A) (A) (A) (A) (A) (A) (A) (A)
                 (A) (A) (A) (A) (A) (A) (A) (A) (A) (A) (A) (A)
                 (A) (A) (A) (A) (A) (A) (A) (A) (A) (A) (A) (A)
                 (A) (A) (A) (A) (A) (A) (A) (A) (A) (A) (A) (A)
                 (A) (A) (A) (A) (A) (A) (A) (A) (A) (A) (A) (A)
                 (A) (A) (A) (A) (A) (A) (A) (A) (A) (A) (A) (A)
                 (A) (A) (A) (A) (A) (A) (A) (A) (A) (A) (A) (A)
                 (A) (A) (A) (A) (A) (A) (A) (A) (A) (A)
 The electronic state of the initial guess is 1-A.
 Requested convergence on RMS density matrix=1.00D-04 within 128 cycles.
 Requested convergence on MAX density matrix=1.00D-02.
 Requested convergence on             energy=1.00D-02.
 No special actions if energy rises.
 SCF Done:  E(RB+HF-LYP) =  -2750.24881757     A.U. after    7 cycles
             Convg  =    0.5390D-04             -V/T =  2.0029
             S**2   =   0.0000

 **********************************************************************

            Population analysis using the SCF density.

 **********************************************************************

 Orbital symmetries:
       Occupied  (A) (A) (A) (A) (A) (A) (A) (A) (A) (A) (A) (A)
                 (A) (A) (A) (A) (A) (A) (A) (A) (A) (A) (A) (A)
                 (A) (A) (A) (A) (A) (A) (A) (A) (A) (A) (A) (A)
                 (A) (A) (A) (A) (A) (A) (A) (A) (A) (A) (A) (A)
                 (A) (A) (A) (A) (A) (A) (A) (A) (A)
       Virtual   (A) (A) (A) (A) (A) (A) (A) (A) (A) (A) (A) (A)
                 (A) (A) (A) (A) (A) (A) (A) (A) (A) (A) (A) (A)
                 (A) (A) (A) (A) (A) (A) (A) (A) (A) (A) (A) (A)
                 (A) (A) (A) (A) (A) (A) (A) (A) (A) (A) (A) (A)
                 (A) (A) (A) (A) (A) (A) (A) (A) (A) (A) (A) (A)
                 (A) (A) (A) (A) (A) (A) (A) (A) (A) (A) (A) (A)
                 (A) (A) (A) (A) (A) (A) (A) (A) (A) (A) (A) (A)
                 (A) (A) (A) (A) (A) (A) (A) (A) (A) (A) (A) (A)
                 (A) (A) (A) (A) (A) (A) (A) (A) (A) (A) (A) (A)
                 (A) (A) (A) (A) (A) (A) (A) (A) (A) (A) (A) (A)
                 (A) (A) (A) (A) (A) (A) (A) (A) (A) (A) (A) (A)
                 (A) (A) (A) (A) (A) (A) (A) (A) (A) (A)
 The electronic state is 1-A.
 Alpha  occ. eigenvalues -- -145.52374-145.50187-145.50182 -77.25154 -19.25912
 Alpha  occ. eigenvalues --  -19.25462 -19.21783 -19.21783 -19.21333 -15.59133
 Alpha  occ. eigenvalues --  -15.56986 -15.56982 -12.72321 -12.72316 -12.72290
 Alpha  occ. eigenvalues --  -12.70193 -12.70192 -12.70184 -12.70184 -12.70105
 Alpha  occ. eigenvalues --  -12.70104  -6.70242  -4.86596  -4.86588  -4.86027
 Alpha  occ. eigenvalues --   -1.96312  -1.94236  -1.94170  -1.24339  -1.23869
 Alpha  occ. eigenvalues --   -1.23771  -1.22785  -1.22081  -1.21722  -1.21646
 Alpha  occ. eigenvalues --   -1.21528  -1.21230  -1.10034  -1.07325  -1.00850
 Alpha  occ. eigenvalues --   -1.00729  -0.89077  -0.63092  -0.51344  -0.51075
 Alpha  occ. eigenvalues --   -0.50976  -0.49232  -0.48450  -0.46045  -0.43788
 Alpha  occ. eigenvalues --   -0.43556  -0.38830  -0.38639  -0.38608  -0.35301
 Alpha  occ. eigenvalues --   -0.33990  -0.31699
 Alpha virt. eigenvalues --   -0.20295  -0.18392  -0.17635  -0.12781  -0.12603
 Alpha virt. eigenvalues --   -0.10900  -0.09919  -0.09098  -0.08256  -0.07949
 Alpha virt. eigenvalues --   -0.07350  -0.06562  -0.06019  -0.05817  -0.04925
 Alpha virt. eigenvalues --   -0.04868  -0.04855  -0.04686  -0.04486  -0.04309
 Alpha virt. eigenvalues --   -0.04013  -0.03911  -0.03218  -0.02973  -0.02948
 Alpha virt. eigenvalues --   -0.02712  -0.01825  -0.00967   0.00847   0.01990
 Alpha virt. eigenvalues --    0.02248   0.03415   0.04333   0.04541   0.04867
 Alpha virt. eigenvalues --    0.05220   0.05246   0.06159   0.06286   0.07054
 Alpha virt. eigenvalues --    0.07072   0.07101   0.07500   0.07552   0.07792
 Alpha virt. eigenvalues --    0.08503   0.09367   0.10325   0.11201   0.11839
 Alpha virt. eigenvalues --    0.12314   0.14921   0.14936   0.16117   0.17402
 Alpha virt. eigenvalues --    0.18781   0.20647   0.21074   0.21098   0.23271
 Alpha virt. eigenvalues --    0.23554   0.23710   0.24621   0.25775   0.27280
 Alpha virt. eigenvalues --    0.28001   0.29798   0.31568   0.33551   0.33938
 Alpha virt. eigenvalues --    0.34430   0.36038   0.36680   0.38774   0.39284
 Alpha virt. eigenvalues --    0.41198   0.45565   0.46006   0.53543   0.54387
 Alpha virt. eigenvalues --    0.55426   0.62683   0.63187   0.63525   0.66203
 Alpha virt. eigenvalues --    0.81572   0.85390   0.90496   0.93094   0.99265
 Alpha virt. eigenvalues --    1.11599   1.11884   1.15491   1.16009   1.17640
 Alpha virt. eigenvalues --    1.18030   1.19907   1.19990   1.20438   1.22329
 Alpha virt. eigenvalues --    1.22899   1.27537   1.31245   1.33919   1.38920
 Alpha virt. eigenvalues --    1.45484   1.46504   1.49268   1.57012   1.58129
 Alpha virt. eigenvalues --    1.60023   1.64326   1.68036   1.71391   1.73208
 Alpha virt. eigenvalues --    1.76847   1.78165   1.78945   1.81319   1.84876
 Alpha virt. eigenvalues --    1.86382   1.87077   1.89492   1.90270   1.91249
 Alpha virt. eigenvalues --    1.92842   1.93662   1.99362   2.00499   2.11307
 Alpha virt. eigenvalues --    2.21663   2.24626   2.36573   2.52340   2.56769
 Alpha virt. eigenvalues --    3.07046   3.54032   4.03173   4.09906   4.14248
 Alpha virt. eigenvalues --    4.19213   4.32870
          Condensed to atoms (all electrons):
              1          2          3          4          5          6
     1  O    8.964576   0.029619   0.074771  -0.177563   0.060508   0.050094
     2  O    0.029619   8.604482   0.088689  -0.024555   0.038133   0.022354
     3  Ca   0.074771   0.088689  18.362265   0.026310  -0.045089   0.013844
     4  P   -0.177563  -0.024555   0.026310  14.403743   0.017311  -0.171553
     5  Ca   0.060508   0.038133  -0.045089   0.017311  18.339246   0.065872
     6  O    0.050094   0.022354   0.013844  -0.171553   0.065872   8.936384
     7  O    0.043489   0.029619   0.074771  -0.177568   0.004972   0.050092
     8  Ca   0.004972   0.038133  -0.045088   0.017313  -0.047838   0.065872
     9  O   -0.006630  -0.101015  -0.033283   0.003281   0.104085   0.002029
              7          8          9
     1  O    0.043489   0.004972  -0.006630
     2  O    0.029619   0.038133  -0.101015
     3  Ca   0.074771  -0.045088  -0.033283
     4  P   -0.177568   0.017313   0.003281
     5  Ca   0.004972  -0.047838   0.104085
     6  O    0.050092   0.065872   0.002029
     7  O    8.964573   0.060508  -0.006631
     8  Ca   0.060508  18.339237   0.104085
     9  O   -0.006631   0.104085   8.577668
 Mulliken atomic charges:
              1
     1  O   -1.043835
     2  O   -0.725459
     3  Ca   1.482809
     4  P    1.083281
     5  Ca   1.462800
     6  O   -1.034987
     7  O   -1.043826
     8  Ca   1.462807
     9  O   -0.643589
 Sum of Mulliken charges=   1.00000
 Atomic charges with hydrogens summed into heavy atoms:
              1
     1  O   -1.043835
     2  O   -0.725459
     3  Ca   1.482809
     4  P    1.083281
     5  Ca   1.462800
     6  O   -1.034987
     7  O   -1.043826
     8  Ca   1.462807
     9  O   -0.643589
 Sum of Mulliken charges=   1.00000
 Electronic spatial extent (au):  <R**2>=  1729.1717
 Charge=     1.0000 electrons
 Dipole moment (field-independent basis, Debye):
    X=    -0.9514    Y=    -0.0001    Z=     6.2007  Tot=     6.2733
 Quadrupole moment (field-independent basis, Debye-Ang):
   XX=   -63.7325   YY=   -44.2072   ZZ=   -80.5252
   XY=     0.0008   XZ=    28.3231   YZ=    -0.0007
 Traceless Quadrupole moment (field-independent basis, Debye-Ang):
   XX=    -0.9109   YY=    18.6144   ZZ=   -17.7035
   XY=     0.0008   XZ=    28.3231   YZ=    -0.0007
 Octapole moment (field-independent basis, Debye-Ang**2):
  XXX=    20.0684  YYY=     0.0019  ZZZ=    45.2485  XYY=   -73.8400
  XXY=    -0.0023  XXZ=    28.1376  XZZ=    39.2268  YZZ=    -0.0001
  YYZ=     4.8679  XYZ=     0.0012
 Hexadecapole moment (field-independent basis, Debye-Ang**3):
 XXXX=  -746.1869 YYYY=  -401.4038 ZZZZ=  -673.9818 XXXY=     0.0049
 XXXZ=   157.7830 YYYX=     0.0035 YYYZ=    -0.0039 ZZZX=   109.8996
 ZZZY=    -0.0033 XXYY=  -182.4043 XXZZ=  -218.9217 YYZZ=  -189.6911
 XXYZ=    -0.0016 YYXZ=    34.9957 ZZXY=     0.0009
 N-N= 1.104853868087D+03 E-N=-8.710363777965D+03  KE= 2.742230673605D+03
 Merz-Kollman atomic radii used.
 Read replacement radii for each type of atom:
 Rad(20) =   1.188000000000D+00
 Atom Element Radius
    1     8    1.40
    2     8    1.40
    3    20    1.19
    4    15    1.80
    5    20    1.19
    6     8    1.40
    7     8    1.40
    8    20    1.19
    9     8    1.40

 **********************************************************************

            Electrostatic Properties Using The SCF Density

 **********************************************************************

       Atomic Center    1 is at   1.238018  1.285072 -0.440791
       Atomic Center    2 is at  -0.608430  0.000029  1.521679
       Atomic Center    3 is at   1.625800  0.000002  1.390149
       Atomic Center    4 is at   1.065660 -0.000039 -1.530631
       Atomic Center    5 is at  -1.054443  1.671998 -0.138511
       Atomic Center    6 is at  -0.589680 -0.000011 -1.656301
       Atomic Center    7 is at   1.237992 -1.285108 -0.440761
       Atomic Center    8 is at  -1.054497 -1.671982 -0.138471
       Atomic Center    9 is at  -2.068160  0.000046  1.103189
     736 points will be used for fitting atomic charges
 Fitting point charges to eletrostatic potential
 Charges from ESP fit, RMS=   0.00664 RRMS=   0.04144:
 Charge=   1.00000 Dipole=    -0.8033    -0.0001     6.0432 Tot=     6.0963
              1
     1  O   -0.990114
     2  O   -0.930373
     3  Ca   1.651076
     4  P    0.545348
     5  Ca   1.674932
     6  O   -0.945446
     7  O   -0.990101
     8  Ca   1.674932
     9  O   -0.690254
 -----------------------------------------------------------------

              Electrostatic Properties (Atomic Units)

 -----------------------------------------------------------------
    Center     Electric         -------- Electric Field --------
               Potential          X             Y             Z
 -----------------------------------------------------------------
    1 Atom    -22.248571
    2 Atom    -22.204663
    3 Atom    -80.016396
    4 Atom    -53.962553
    5 Atom    -80.038932
    6 Atom    -22.248680
    7 Atom    -22.248562
    8 Atom    -80.038927
    9 Atom    -22.216102
 -----------------------------------------------------------------
 1\1\GINC-N026\SP\RB3LYP\6-31+G(d,p)\Ca3O5P1(1+)\TIMN\12-Jun-2015\0\\# 
 b3lyp/6-31+G(d,p) int=ultrafine pop=(ReadRadii,MK)\\mol_17.28.24.pdbcc
 cc_plusQ.z58547.zip.xyz\\1,1\O,0,1.23802,1.28507,-0.44079\O,0,-0.60843
 ,0.00003,1.52168\Ca,0,1.6258,0.,1.39015\P,0,1.06566,-0.00004,-1.53063\
 Ca,0,-1.05444,1.672,-0.13851\O,0,-0.58968,-0.00001,-1.6563\O,0,1.23799
 ,-1.28511,-0.44076\Ca,0,-1.0545,-1.67198,-0.13847\O,0,-2.06816,0.00005
 ,1.10319\\Version=EM64T-G03RevE.01\State=1-A\HF=-2750.2488176\RMSD=5.3
 90e-05\Thermal=0.\Dipole=-0.3743146,-0.0000349,2.4395527\PG=C01 [X(Ca3
 O5P1)]\\@


 ... THIS SEEMS PLAINLY ABSURD; BUT WHOEVER WISHES TO BECOME A 
 PHILOSOPHER MUST LEARN NOT TO BE FRIGHTENED BY ABSURDITIES.

                          -- BERTRAND RUSSELL
 Job cpu time:  0 days  0 hours  1 minutes 59.2 seconds.
 File lengths (MBytes):  RWF=     36 Int=      0 D2E=      0 Chk=     11 Scr=      1
 Normal termination of Gaussian 03 at Fri Jun 12 18:08:44 2015.
