 Entering Gaussian System, Link 0=/home/timn/tmp/g03.e01/g03
 Input=mol_17.26.55.pdbccc_plusQ.z58467.zip.xyz.gjf
 Output=mol_17.26.55.pdbccc_plusQ.z58467.zip.xyz.out
 Initial command:
 /home/timn/tmp/g03.e01/l1.exe /home/timn/tmp/g03.e01/Gau-15208.inp -scrdir=/home/timn/tmp/g03.e01/
 Default is to use a total of   2 processors:
                                2 via shared-memory
                                1 via Linda
 Entering Link 1 = /home/timn/tmp/g03.e01/l1.exe PID=     15209.
  
 Copyright (c) 1988,1990,1992,1993,1995,1998,2003,2004,2007, Gaussian, Inc.
                  All Rights Reserved.
  
 This is the Gaussian(R) 03 program.  It is based on the
 the Gaussian(R) 98 system (copyright 1998, Gaussian, Inc.),
 the Gaussian(R) 94 system (copyright 1995, Gaussian, Inc.),
 the Gaussian 92(TM) system (copyright 1992, Gaussian, Inc.),
 the Gaussian 90(TM) system (copyright 1990, Gaussian, Inc.),
 the Gaussian 88(TM) system (copyright 1988, Gaussian, Inc.),
 the Gaussian 86(TM) system (copyright 1986, Carnegie Mellon
 University), and the Gaussian 82(TM) system (copyright 1983,
 Carnegie Mellon University). Gaussian is a federally registered
 trademark of Gaussian, Inc.
  
 This software contains proprietary and confidential information,
 including trade secrets, belonging to Gaussian, Inc.
  
 This software is provided under written license and may be
 used, copied, transmitted, or stored only in accord with that
 written license.
  
 The following legend is applicable only to US Government
 contracts under FAR:
  
                    RESTRICTED RIGHTS LEGEND
  
 Use, reproduction and disclosure by the US Government is
 subject to restrictions as set forth in subparagraphs (a)
 and (c) of the Commercial Computer Software - Restricted
 Rights clause in FAR 52.227-19.
  
 Gaussian, Inc.
 340 Quinnipiac St., Bldg. 40, Wallingford CT 06492
  
  
 ---------------------------------------------------------------
 Warning -- This program may not be used in any manner that
 competes with the business of Gaussian, Inc. or will provide
 assistance to any competitor of Gaussian, Inc.  The licensee
 of this program is prohibited from giving any competitor of
 Gaussian, Inc. access to this program.  By using this program,
 the user acknowledges that Gaussian, Inc. is engaged in the
 business of creating and licensing software in the field of
 computational chemistry and represents and warrants to the
 licensee that it is not a competitor of Gaussian, Inc. and that
 it will not use this program in any manner prohibited above.
 ---------------------------------------------------------------
  

 Cite this work as:
 Gaussian 03, Revision E.01,
 M. J. Frisch, G. W. Trucks, H. B. Schlegel, G. E. Scuseria, 
 M. A. Robb, J. R. Cheeseman, J. A. Montgomery, Jr., T. Vreven, 
 K. N. Kudin, J. C. Burant, J. M. Millam, S. S. Iyengar, J. Tomasi, 
 V. Barone, B. Mennucci, M. Cossi, G. Scalmani, N. Rega, 
 G. A. Petersson, H. Nakatsuji, M. Hada, M. Ehara, K. Toyota, 
 R. Fukuda, J. Hasegawa, M. Ishida, T. Nakajima, Y. Honda, O. Kitao, 
 H. Nakai, M. Klene, X. Li, J. E. Knox, H. P. Hratchian, J. B. Cross, 
 V. Bakken, C. Adamo, J. Jaramillo, R. Gomperts, R. E. Stratmann, 
 O. Yazyev, A. J. Austin, R. Cammi, C. Pomelli, J. W. Ochterski, 
 P. Y. Ayala, K. Morokuma, G. A. Voth, P. Salvador, J. J. Dannenberg, 
 V. G. Zakrzewski, S. Dapprich, A. D. Daniels, M. C. Strain, 
 O. Farkas, D. K. Malick, A. D. Rabuck, K. Raghavachari, 
 J. B. Foresman, J. V. Ortiz, Q. Cui, A. G. Baboul, S. Clifford, 
 J. Cioslowski, B. B. Stefanov, G. Liu, A. Liashenko, P. Piskorz, 
 I. Komaromi, R. L. Martin, D. J. Fox, T. Keith, M. A. Al-Laham, 
 C. Y. Peng, A. Nanayakkara, M. Challacombe, P. M. W. Gill, 
 B. Johnson, W. Chen, M. W. Wong, C. Gonzalez, and J. A. Pople, 
 Gaussian, Inc., Wallingford CT, 2004.
 
 ******************************************
 Gaussian 03:  EM64T-G03RevE.01 11-Sep-2007
                12-Jun-2015 
 ******************************************
 %nproc=2
 Will use up to    2 processors via shared memory.
 Default route:  MP2=Direct MaxDisk=2000MB
 ----------------------------------------------------
 # b3lyp/6-31+G(d,p) int=ultrafine pop=(ReadRadii,MK)
 ----------------------------------------------------

 Warning!  SCF SP cutoffs with diffuse functions may be unreliable.
 Consider SCF=Tight

 1/38=1/1;
 2/17=6,18=5,40=1/2;
 3/5=1,6=6,7=111,11=2,16=1,25=1,30=1,74=-5,75=5/1,2,3;
 4//1;
 5/5=2,32=1,38=5/2;
 6/7=2,8=2,9=2,10=2,15=8,20=101,28=1/1,2;
 99/5=1,9=1/99;
 ----------------------------------------
 mol_17.26.55.pdbccc_plusQ.z58467.zip.xyz
 ----------------------------------------
 Symbolic Z-matrix:
 Charge =  1 Multiplicity = 1
 O                     1.68717  -1.04078  -0.00039 
 O                    -2.78802  -1.05479  -0.78438 
 O                    -2.7875   -1.05487   0.7848 
 Ca                   -2.87064   1.03811   0.00035 
 O                    -0.62467   1.1051    0.00011 
 Ca                   -0.67989  -1.27822  -0.0005 
 P                     3.25032  -0.96628   0.00048 
 O                     3.59133   0.53458   0.00059 
 Ca                    1.48147   1.56912  -0.00051 
 
                          Input orientation:                          
 ---------------------------------------------------------------------
 Center     Atomic     Atomic              Coordinates (Angstroms)
 Number     Number      Type              X           Y           Z
 ---------------------------------------------------------------------
    1          8             0        1.687170   -1.040780   -0.000390
    2          8             0       -2.788020   -1.054790   -0.784380
    3          8             0       -2.787500   -1.054870    0.784800
    4         20             0       -2.870640    1.038110    0.000350
    5          8             0       -0.624670    1.105100    0.000110
    6         20             0       -0.679890   -1.278220   -0.000500
    7         15             0        3.250320   -0.966280    0.000480
    8          8             0        3.591330    0.534580    0.000590
    9         20             0        1.481470    1.569120   -0.000510
 ---------------------------------------------------------------------
                    Distance matrix (angstroms):
                    1          2          3          4          5
     1  O    0.000000
     2  O    4.543365   0.000000
     3  O    4.543060   1.569180   0.000000
     4  Ca   5.009533   2.236707   2.236703   0.000000
     5  O    3.154268   3.156047   3.155795   2.246969   0.000000
     6  Ca   2.378939   2.260221   2.260221   3.188224   2.383960
     7  P    1.564925   6.089777   6.089193   6.440786   4.393878
     8  O    2.471353   6.621056   6.620484   6.481558   4.254427
     9  Ca   2.617994   5.072268   5.072094   4.384385   2.156650
                    6          7          8          9
     6  Ca   0.000000
     7  P    3.942570   0.000000
     8  O    4.639996   1.539113   0.000000
     9  Ca   3.574748   3.091453   2.349848   0.000000
 Stoichiometry    Ca3O5P(1+)
 Framework group  C1[X(Ca3O5P)]
 Deg. of freedom    21
 Full point group                 C1
 Largest Abelian subgroup         C1      NOp   1
 Largest concise Abelian subgroup C1      NOp   1
                         Standard orientation:                         
 ---------------------------------------------------------------------
 Center     Atomic     Atomic              Coordinates (Angstroms)
 Number     Number      Type              X           Y           Z
 ---------------------------------------------------------------------
    1          8             0        1.687170   -1.040778   -0.000389
    2          8             0       -2.788020   -1.054791   -0.784379
    3          8             0       -2.787500   -1.054871    0.784801
    4         20             0       -2.870641    1.038109    0.000351
    5          8             0       -0.624671    1.105100    0.000111
    6         20             0       -0.679890   -1.278220   -0.000499
    7         15             0        3.250320   -0.966278    0.000481
    8          8             0        3.591329    0.534583    0.000591
    9         20             0        1.481468    1.569122   -0.000509
 ---------------------------------------------------------------------
 Rotational constants (GHZ):      1.5205046      0.3920531      0.3194459
 Standard basis: 6-31+G(d,p) (6D, 7F)
 There are   199 symmetry adapted basis functions of A   symmetry.
 Integral buffers will be    131072 words long.
 Raffenetti 2 integral format.
 Two-electron integral symmetry is turned on.
   199 basis functions,   456 primitive gaussians,   199 cartesian basis functions
    57 alpha electrons       57 beta electrons
       nuclear repulsion energy       956.5256733606 Hartrees.
 NAtoms=    9 NActive=    9 NUniq=    9 SFac= 7.50D-01 NAtFMM=   80 NAOKFM=F Big=F
 One-electron integrals computed using PRISM.
 NBasis=   199 RedAO= T  NBF=   199
 NBsUse=   199 1.00D-06 NBFU=   199
 Harris functional with IExCor=  402 diagonalized for initial guess.
 ExpMin= 7.10D-03 ExpMax= 3.53D+04 ExpMxC= 5.30D+03 IAcc=3 IRadAn=         5 AccDes= 0.00D+00
 HarFok:  IExCor= 402 AccDes= 0.00D+00 IRadAn=         5 IDoV=1
 ScaDFX=  1.000000  1.000000  1.000000  1.000000
 Initial guess orbital symmetries:
       Occupied  (A) (A) (A) (A) (A) (A) (A) (A) (A) (A) (A) (A)
                 (A) (A) (A) (A) (A) (A) (A) (A) (A) (A) (A) (A)
                 (A) (A) (A) (A) (A) (A) (A) (A) (A) (A) (A) (A)
                 (A) (A) (A) (A) (A) (A) (A) (A) (A) (A) (A) (A)
                 (A) (A) (A) (A) (A) (A) (A) (A) (A)
       Virtual   (A) (A) (A) (A) (A) (A) (A) (A) (A) (A) (A) (A)
                 (A) (A) (A) (A) (A) (A) (A) (A) (A) (A) (A) (A)
                 (A) (A) (A) (A) (A) (A) (A) (A) (A) (A) (A) (A)
                 (A) (A) (A) (A) (A) (A) (A) (A) (A) (A) (A) (A)
                 (A) (A) (A) (A) (A) (A) (A) (A) (A) (A) (A) (A)
                 (A) (A) (A) (A) (A) (A) (A) (A) (A) (A) (A) (A)
                 (A) (A) (A) (A) (A) (A) (A) (A) (A) (A) (A) (A)
                 (A) (A) (A) (A) (A) (A) (A) (A) (A) (A) (A) (A)
                 (A) (A) (A) (A) (A) (A) (A) (A) (A) (A) (A) (A)
                 (A) (A) (A) (A) (A) (A) (A) (A) (A) (A) (A) (A)
                 (A) (A) (A) (A) (A) (A) (A) (A) (A) (A) (A) (A)
                 (A) (A) (A) (A) (A) (A) (A) (A) (A) (A)
 The electronic state of the initial guess is 1-A.
 Requested convergence on RMS density matrix=1.00D-04 within 128 cycles.
 Requested convergence on MAX density matrix=1.00D-02.
 Requested convergence on             energy=1.00D-02.
 No special actions if energy rises.
 EnCoef did     2 forward-backward iterations
 EnCoef did     2 forward-backward iterations
 SCF Done:  E(RB+HF-LYP) =  -2750.21059104     A.U. after    9 cycles
             Convg  =    0.7410D-04             -V/T =  2.0029
             S**2   =   0.0000

 **********************************************************************

            Population analysis using the SCF density.

 **********************************************************************

 Orbital symmetries:
       Occupied  (A) (A) (A) (A) (A) (A) (A) (A) (A) (A) (A) (A)
                 (A) (A) (A) (A) (A) (A) (A) (A) (A) (A) (A) (A)
                 (A) (A) (A) (A) (A) (A) (A) (A) (A) (A) (A) (A)
                 (A) (A) (A) (A) (A) (A) (A) (A) (A) (A) (A) (A)
                 (A) (A) (A) (A) (A) (A) (A) (A) (A)
       Virtual   (A) (A) (A) (A) (A) (A) (A) (A) (A) (A) (A) (A)
                 (A) (A) (A) (A) (A) (A) (A) (A) (A) (A) (A) (A)
                 (A) (A) (A) (A) (A) (A) (A) (A) (A) (A) (A) (A)
                 (A) (A) (A) (A) (A) (A) (A) (A) (A) (A) (A) (A)
                 (A) (A) (A) (A) (A) (A) (A) (A) (A) (A) (A) (A)
                 (A) (A) (A) (A) (A) (A) (A) (A) (A) (A) (A) (A)
                 (A) (A) (A) (A) (A) (A) (A) (A) (A) (A) (A) (A)
                 (A) (A) (A) (A) (A) (A) (A) (A) (A) (A) (A) (A)
                 (A) (A) (A) (A) (A) (A) (A) (A) (A) (A) (A) (A)
                 (A) (A) (A) (A) (A) (A) (A) (A) (A) (A) (A) (A)
                 (A) (A) (A) (A) (A) (A) (A) (A) (A) (A) (A) (A)
                 (A) (A) (A) (A) (A) (A) (A) (A) (A) (A)
 The electronic state is 1-A.
 Alpha  occ. eigenvalues -- -145.52559-145.47904-145.45930 -77.31433 -19.29693
 Alpha  occ. eigenvalues --  -19.28903 -19.20255 -19.20249 -19.17095 -15.59458
 Alpha  occ. eigenvalues --  -15.54772 -15.52793 -12.72723 -12.72680 -12.72478
 Alpha  occ. eigenvalues --  -12.67982 -12.67952 -12.67881 -12.66030 -12.65992
 Alpha  occ. eigenvalues --  -12.65878  -6.77033  -4.93463  -4.93238  -4.92819
 Alpha  occ. eigenvalues --   -1.96691  -1.92077  -1.90161  -1.24615  -1.24613
 Alpha  occ. eigenvalues --   -1.23577  -1.20504  -1.19686  -1.19274  -1.18006
 Alpha  occ. eigenvalues --   -1.17959  -1.17613  -1.15364  -1.09601  -1.02799
 Alpha  occ. eigenvalues --   -0.91876  -0.84035  -0.68622  -0.57618  -0.54917
 Alpha  occ. eigenvalues --   -0.54229  -0.46662  -0.45214  -0.43697  -0.42878
 Alpha  occ. eigenvalues --   -0.41967  -0.41270  -0.37528  -0.36624  -0.35918
 Alpha  occ. eigenvalues --   -0.30800  -0.29151
 Alpha virt. eigenvalues --   -0.21351  -0.20121  -0.17697  -0.14555  -0.13030
 Alpha virt. eigenvalues --   -0.11137  -0.10817  -0.10363  -0.09100  -0.08476
 Alpha virt. eigenvalues --   -0.07858  -0.07110  -0.06764  -0.06248  -0.05628
 Alpha virt. eigenvalues --   -0.05188  -0.04734  -0.04684  -0.04464  -0.04344
 Alpha virt. eigenvalues --   -0.04003  -0.03716  -0.03703  -0.03624  -0.03171
 Alpha virt. eigenvalues --   -0.02777  -0.02662  -0.02453  -0.01921  -0.00113
 Alpha virt. eigenvalues --    0.01317   0.02752   0.03372   0.03460   0.03668
 Alpha virt. eigenvalues --    0.04873   0.05033   0.05905   0.05976   0.06290
 Alpha virt. eigenvalues --    0.06568   0.07097   0.07282   0.08206   0.08736
 Alpha virt. eigenvalues --    0.09189   0.10297   0.10752   0.10898   0.11383
 Alpha virt. eigenvalues --    0.11450   0.13512   0.15040   0.15049   0.16478
 Alpha virt. eigenvalues --    0.17257   0.17694   0.19056   0.19834   0.20078
 Alpha virt. eigenvalues --    0.21544   0.22354   0.23466   0.24142   0.26711
 Alpha virt. eigenvalues --    0.27509   0.28812   0.30331   0.31207   0.31256
 Alpha virt. eigenvalues --    0.32412   0.33480   0.34886   0.36801   0.38059
 Alpha virt. eigenvalues --    0.40606   0.42565   0.45768   0.46796   0.52513
 Alpha virt. eigenvalues --    0.52886   0.54094   0.57480   0.60735   0.64098
 Alpha virt. eigenvalues --    0.65165   0.85563   0.92272   0.94287   1.05089
 Alpha virt. eigenvalues --    1.07489   1.07497   1.10991   1.12550   1.14738
 Alpha virt. eigenvalues --    1.16110   1.16288   1.17433   1.19992   1.20582
 Alpha virt. eigenvalues --    1.21706   1.22840   1.25526   1.28483   1.32392
 Alpha virt. eigenvalues --    1.37941   1.41083   1.48240   1.53866   1.54130
 Alpha virt. eigenvalues --    1.54827   1.63719   1.66323   1.68682   1.69452
 Alpha virt. eigenvalues --    1.72704   1.73038   1.76701   1.78361   1.80066
 Alpha virt. eigenvalues --    1.80380   1.83367   1.84205   1.85127   1.86542
 Alpha virt. eigenvalues --    1.89055   1.92092   1.95256   2.01464   2.05562
 Alpha virt. eigenvalues --    2.12185   2.21710   2.24046   2.51047   2.67672
 Alpha virt. eigenvalues --    3.06794   3.38677   3.85993   3.88088   3.95559
 Alpha virt. eigenvalues --    4.10896   4.14242
          Condensed to atoms (all electrons):
              1          2          3          4          5          6
     1  O    8.914753  -0.001588  -0.001578   0.005407  -0.012910   0.037204
     2  O   -0.001588   8.485314  -0.029977   0.098457  -0.003698   0.106822
     3  O   -0.001578  -0.029977   8.485284   0.098443  -0.003698   0.106783
     4  Ca   0.005407   0.098457   0.098443  18.303179   0.109015  -0.047308
     5  O   -0.012910  -0.003698  -0.003698   0.109015   8.991777   0.055040
     6  Ca   0.037204   0.106822   0.106783  -0.047308   0.055040  18.343106
     7  P   -0.144221  -0.000086  -0.000090  -0.012680  -0.008593   0.004712
     8  O   -0.075166   0.000005   0.000005   0.002350  -0.000422   0.005417
     9  Ca   0.017694  -0.000996  -0.000986  -0.013902   0.196296  -0.005193
              7          8          9
     1  O   -0.144221  -0.075166   0.017694
     2  O   -0.000086   0.000005  -0.000996
     3  O   -0.000090   0.000005  -0.000986
     4  Ca  -0.012680   0.002350  -0.013902
     5  O   -0.008593  -0.000422   0.196296
     6  Ca   0.004712   0.005417  -0.005193
     7  P   14.409478   0.091288  -0.020003
     8  O    0.091288   8.555376   0.076975
     9  Ca  -0.020003   0.076975  18.254097
 Mulliken atomic charges:
              1
     1  O   -0.739594
     2  O   -0.654253
     3  O   -0.654186
     4  Ca   1.457039
     5  O   -1.322808
     6  Ca   1.393416
     7  P    0.680195
     8  O   -0.655829
     9  Ca   1.496019
 Sum of Mulliken charges=   1.00000
 Atomic charges with hydrogens summed into heavy atoms:
              1
     1  O   -0.739594
     2  O   -0.654253
     3  O   -0.654186
     4  Ca   1.457039
     5  O   -1.322808
     6  Ca   1.393416
     7  P    0.680195
     8  O   -0.655829
     9  Ca   1.496019
 Sum of Mulliken charges=   1.00000
 Electronic spatial extent (au):  <R**2>=  2984.8971
 Charge=     1.0000 electrons
 Dipole moment (field-independent basis, Debye):
    X=     1.5364    Y=     9.0250    Z=    -0.0054  Tot=     9.1548
 Quadrupole moment (field-independent basis, Debye-Ang):
   XX=   -64.0773   YY=   -51.7033   ZZ=   -77.1285
   XY=   -21.8700   XZ=    -0.0105   YZ=    -0.0003
 Traceless Quadrupole moment (field-independent basis, Debye-Ang):
   XX=     0.2258   YY=    12.5997   ZZ=   -12.8254
   XY=   -21.8700   XZ=    -0.0105   YZ=    -0.0003
 Octapole moment (field-independent basis, Debye-Ang**2):
  XXX=   -95.1102  YYY=    45.5214  ZZZ=    -0.0141  XYY=     9.0031
  XXY=   118.3342  XXZ=    -0.0025  XZZ=     9.7538  YZZ=    10.9559
  YYZ=    -0.0196  XYZ=    -0.0328
 Hexadecapole moment (field-independent basis, Debye-Ang**3):
 XXXX= -2682.9820 YYYY=  -563.4740 ZZZZ=  -128.6395 XXXY=  -454.6182
 XXXZ=    -0.1716 YYYX=    22.1385 YYYZ=     0.0029 ZZZX=    -0.0189
 ZZZY=     0.0066 XXYY=  -492.2632 XXZZ=  -482.1750 YYZZ=  -129.6316
 XXYZ=     0.0016 YYXZ=    -0.0293 ZZXY=   -17.0368
 N-N= 9.565256733606D+02 E-N=-8.414220604693D+03  KE= 2.742250302545D+03
 Merz-Kollman atomic radii used.
 Read replacement radii for each type of atom:
 Rad(20) =   1.188000000000D+00
 Atom Element Radius
    1     8    1.40
    2     8    1.40
    3     8    1.40
    4    20    1.19
    5     8    1.40
    6    20    1.19
    7    15    1.80
    8     8    1.40
    9    20    1.19

 **********************************************************************

            Electrostatic Properties Using The SCF Density

 **********************************************************************

       Atomic Center    1 is at   1.687170 -1.040778 -0.000389
       Atomic Center    2 is at  -2.788020 -1.054791 -0.784379
       Atomic Center    3 is at  -2.787500 -1.054871  0.784801
       Atomic Center    4 is at  -2.870641  1.038109  0.000351
       Atomic Center    5 is at  -0.624671  1.105100  0.000111
       Atomic Center    6 is at  -0.679890 -1.278220 -0.000499
       Atomic Center    7 is at   3.250320 -0.966278  0.000481
       Atomic Center    8 is at   3.591329  0.534583  0.000591
       Atomic Center    9 is at   1.481468  1.569122 -0.000509
     879 points will be used for fitting atomic charges
 Fitting point charges to eletrostatic potential
 Charges from ESP fit, RMS=   0.00471 RRMS=   0.03207:
 Charge=   1.00000 Dipole=     1.5351     9.2116    -0.0058 Tot=     9.3386
              1
     1  O   -0.748202
     2  O   -0.776290
     3  O   -0.775983
     4  Ca   1.699139
     5  O   -1.751054
     6  Ca   1.665470
     7  P    0.603265
     8  O   -0.661423
     9  Ca   1.745078
 -----------------------------------------------------------------

              Electrostatic Properties (Atomic Units)

 -----------------------------------------------------------------
    Center     Electric         -------- Electric Field --------
               Potential          X             Y             Z
 -----------------------------------------------------------------
    1 Atom    -22.167449
    2 Atom    -22.273268
    3 Atom    -22.273274
    4 Atom    -80.062077
    5 Atom    -22.293122
    6 Atom    -80.080897
    7 Atom    -53.901548
    8 Atom    -22.177642
    9 Atom    -80.015424
 -----------------------------------------------------------------
 1\1\GINC-N035\SP\RB3LYP\6-31+G(d,p)\Ca3O5P1(1+)\TIMN\12-Jun-2015\0\\# 
 b3lyp/6-31+G(d,p) int=ultrafine pop=(ReadRadii,MK)\\mol_17.26.55.pdbcc
 c_plusQ.z58467.zip.xyz\\1,1\O,0,1.68717,-1.04078,-0.00039\O,0,-2.78802
 ,-1.05479,-0.78438\O,0,-2.7875,-1.05487,0.7848\Ca,0,-2.87064,1.03811,0
 .00035\O,0,-0.62467,1.1051,0.00011\Ca,0,-0.67989,-1.27822,-0.0005\P,0,
 3.25032,-0.96628,0.00048\O,0,3.59133,0.53458,0.00059\Ca,0,1.48147,1.56
 912,-0.00051\\Version=EM64T-G03RevE.01\State=1-A\HF=-2750.210591\RMSD=
 7.410e-05\Thermal=0.\Dipole=0.6044695,3.5507045,-0.0021185\PG=C01 [X(C
 a3O5P1)]\\@


 THE POLHOLDE ROLLS WITHOUT SLIPPING ON THE HERPOLHOLDE LYING IN
 THE INVARIABLE PLANE.
 H.GOLDSTEIN, "CLASSICAL MECHANICS", PG 161
 Job cpu time:  0 days  0 hours  2 minutes  5.0 seconds.
 File lengths (MBytes):  RWF=     36 Int=      0 D2E=      0 Chk=     11 Scr=      1
 Normal termination of Gaussian 03 at Fri Jun 12 18:02:13 2015.
