 Entering Gaussian System, Link 0=/home/timn/tmp/g03.e01/g03
 Input=mol_17.26.38.pdbcccc_plusQ.z58449.zip.xyz.gjf
 Output=mol_17.26.38.pdbcccc_plusQ.z58449.zip.xyz.out
 Initial command:
 /home/timn/tmp/g03.e01/l1.exe /home/timn/tmp/g03.e01/Gau-13885.inp -scrdir=/home/timn/tmp/g03.e01/
 Default is to use a total of   2 processors:
                                2 via shared-memory
                                1 via Linda
 Entering Link 1 = /home/timn/tmp/g03.e01/l1.exe PID=     13886.
  
 Copyright (c) 1988,1990,1992,1993,1995,1998,2003,2004,2007, Gaussian, Inc.
                  All Rights Reserved.
  
 This is the Gaussian(R) 03 program.  It is based on the
 the Gaussian(R) 98 system (copyright 1998, Gaussian, Inc.),
 the Gaussian(R) 94 system (copyright 1995, Gaussian, Inc.),
 the Gaussian 92(TM) system (copyright 1992, Gaussian, Inc.),
 the Gaussian 90(TM) system (copyright 1990, Gaussian, Inc.),
 the Gaussian 88(TM) system (copyright 1988, Gaussian, Inc.),
 the Gaussian 86(TM) system (copyright 1986, Carnegie Mellon
 University), and the Gaussian 82(TM) system (copyright 1983,
 Carnegie Mellon University). Gaussian is a federally registered
 trademark of Gaussian, Inc.
  
 This software contains proprietary and confidential information,
 including trade secrets, belonging to Gaussian, Inc.
  
 This software is provided under written license and may be
 used, copied, transmitted, or stored only in accord with that
 written license.
  
 The following legend is applicable only to US Government
 contracts under FAR:
  
                    RESTRICTED RIGHTS LEGEND
  
 Use, reproduction and disclosure by the US Government is
 subject to restrictions as set forth in subparagraphs (a)
 and (c) of the Commercial Computer Software - Restricted
 Rights clause in FAR 52.227-19.
  
 Gaussian, Inc.
 340 Quinnipiac St., Bldg. 40, Wallingford CT 06492
  
  
 ---------------------------------------------------------------
 Warning -- This program may not be used in any manner that
 competes with the business of Gaussian, Inc. or will provide
 assistance to any competitor of Gaussian, Inc.  The licensee
 of this program is prohibited from giving any competitor of
 Gaussian, Inc. access to this program.  By using this program,
 the user acknowledges that Gaussian, Inc. is engaged in the
 business of creating and licensing software in the field of
 computational chemistry and represents and warrants to the
 licensee that it is not a competitor of Gaussian, Inc. and that
 it will not use this program in any manner prohibited above.
 ---------------------------------------------------------------
  

 Cite this work as:
 Gaussian 03, Revision E.01,
 M. J. Frisch, G. W. Trucks, H. B. Schlegel, G. E. Scuseria, 
 M. A. Robb, J. R. Cheeseman, J. A. Montgomery, Jr., T. Vreven, 
 K. N. Kudin, J. C. Burant, J. M. Millam, S. S. Iyengar, J. Tomasi, 
 V. Barone, B. Mennucci, M. Cossi, G. Scalmani, N. Rega, 
 G. A. Petersson, H. Nakatsuji, M. Hada, M. Ehara, K. Toyota, 
 R. Fukuda, J. Hasegawa, M. Ishida, T. Nakajima, Y. Honda, O. Kitao, 
 H. Nakai, M. Klene, X. Li, J. E. Knox, H. P. Hratchian, J. B. Cross, 
 V. Bakken, C. Adamo, J. Jaramillo, R. Gomperts, R. E. Stratmann, 
 O. Yazyev, A. J. Austin, R. Cammi, C. Pomelli, J. W. Ochterski, 
 P. Y. Ayala, K. Morokuma, G. A. Voth, P. Salvador, J. J. Dannenberg, 
 V. G. Zakrzewski, S. Dapprich, A. D. Daniels, M. C. Strain, 
 O. Farkas, D. K. Malick, A. D. Rabuck, K. Raghavachari, 
 J. B. Foresman, J. V. Ortiz, Q. Cui, A. G. Baboul, S. Clifford, 
 J. Cioslowski, B. B. Stefanov, G. Liu, A. Liashenko, P. Piskorz, 
 I. Komaromi, R. L. Martin, D. J. Fox, T. Keith, M. A. Al-Laham, 
 C. Y. Peng, A. Nanayakkara, M. Challacombe, P. M. W. Gill, 
 B. Johnson, W. Chen, M. W. Wong, C. Gonzalez, and J. A. Pople, 
 Gaussian, Inc., Wallingford CT, 2004.
 
 ******************************************
 Gaussian 03:  EM64T-G03RevE.01 11-Sep-2007
                12-Jun-2015 
 ******************************************
 %nproc=2
 Will use up to    2 processors via shared memory.
 Default route:  MP2=Direct MaxDisk=2000MB
 ----------------------------------------------------
 # b3lyp/6-31+G(d,p) int=ultrafine pop=(ReadRadii,MK)
 ----------------------------------------------------

 Warning!  SCF SP cutoffs with diffuse functions may be unreliable.
 Consider SCF=Tight

 1/38=1/1;
 2/17=6,18=5,40=1/2;
 3/5=1,6=6,7=111,11=2,16=1,25=1,30=1,74=-5,75=5/1,2,3;
 4//1;
 5/5=2,32=1,38=5/2;
 6/7=2,8=2,9=2,10=2,15=8,20=101,28=1/1,2;
 99/5=1,9=1/99;
 -----------------------------------------
 mol_17.26.38.pdbcccc_plusQ.z58449.zip.xyz
 -----------------------------------------
 Symbolic Z-matrix:
 Charge =  1 Multiplicity = 1
 O                     2.09573   0.17516  -0.37067 
 O                     3.34477  -0.56389  -0.18631 
 O                     2.85818  -1.46507   0.75055 
 P                     1.07276  -0.73829   0.76443 
 O                    -0.18775   0.293     0.20486 
 O                    -3.02781  -0.74571  -0.23456 
 Ca                   -2.43591   1.09337   0.65491 
 Ca                    0.92886   2.28729  -0.57895 
 Ca                   -1.33077  -1.90433  -0.71482 
 
                          Input orientation:                          
 ---------------------------------------------------------------------
 Center     Atomic     Atomic              Coordinates (Angstroms)
 Number     Number      Type              X           Y           Z
 ---------------------------------------------------------------------
    1          8             0        2.095730    0.175160   -0.370670
    2          8             0        3.344770   -0.563890   -0.186310
    3          8             0        2.858180   -1.465070    0.750550
    4         15             0        1.072760   -0.738290    0.764430
    5          8             0       -0.187750    0.293000    0.204860
    6          8             0       -3.027810   -0.745710   -0.234560
    7         20             0       -2.435910    1.093370    0.654910
    8         20             0        0.928860    2.287290   -0.578950
    9         20             0       -1.330770   -1.904330   -0.714820
 ---------------------------------------------------------------------
                    Distance matrix (angstroms):
                    1          2          3          4          5
     1  O    0.000000
     2  O    1.462971   0.000000
     3  O    2.128102   1.388021   0.000000
     4  P    1.780256   2.469079   1.927726   0.000000
     5  O    2.357838   3.655950   3.558971   1.722081   0.000000
     6  O    5.207417   6.375356   6.011056   4.220511   3.055806
     7  Ca   4.736104   6.072102   5.880659   3.959512   2.428448
     8  Ca   2.421995   3.757661   4.423805   3.313535   2.416272
     9  Ca   4.022887   4.892523   4.459547   3.053651   2.642076
                    6          7          8          9
     6  O    0.000000
     7  Ca   2.126903   0.000000
     8  Ca   4.997292   3.777503   0.000000
     9  Ca   2.110212   3.476162   4.763829   0.000000
 Stoichiometry    Ca3O5P(1+)
 Framework group  C1[X(Ca3O5P)]
 Deg. of freedom    21
 Full point group                 C1
 Largest Abelian subgroup         C1      NOp   1
 Largest concise Abelian subgroup C1      NOp   1
                         Standard orientation:                         
 ---------------------------------------------------------------------
 Center     Atomic     Atomic              Coordinates (Angstroms)
 Number     Number      Type              X           Y           Z
 ---------------------------------------------------------------------
    1          8             0        2.095731    0.175156   -0.370672
    2          8             0        3.344770   -0.563895   -0.186312
    3          8             0        2.858179   -1.465075    0.750548
    4         15             0        1.072760   -0.738293    0.764428
    5          8             0       -0.187749    0.292999    0.204858
    6          8             0       -3.027810   -0.745708   -0.234562
    7         20             0       -2.435908    1.093371    0.654908
    8         20             0        0.928863    2.287287   -0.578952
    9         20             0       -1.330772   -1.904330   -0.714822
 ---------------------------------------------------------------------
 Rotational constants (GHZ):      0.9168881      0.5118072      0.3678425
 Standard basis: 6-31+G(d,p) (6D, 7F)
 There are   199 symmetry adapted basis functions of A   symmetry.
 Integral buffers will be    131072 words long.
 Raffenetti 2 integral format.
 Two-electron integral symmetry is turned on.
   199 basis functions,   456 primitive gaussians,   199 cartesian basis functions
    57 alpha electrons       57 beta electrons
       nuclear repulsion energy       951.7555402823 Hartrees.
 NAtoms=    9 NActive=    9 NUniq=    9 SFac= 7.50D-01 NAtFMM=   80 NAOKFM=F Big=F
 One-electron integrals computed using PRISM.
 NBasis=   199 RedAO= T  NBF=   199
 NBsUse=   199 1.00D-06 NBFU=   199
 Harris functional with IExCor=  402 diagonalized for initial guess.
 ExpMin= 7.10D-03 ExpMax= 3.53D+04 ExpMxC= 5.30D+03 IAcc=3 IRadAn=         5 AccDes= 0.00D+00
 HarFok:  IExCor= 402 AccDes= 0.00D+00 IRadAn=         5 IDoV=1
 ScaDFX=  1.000000  1.000000  1.000000  1.000000
 Initial guess orbital symmetries:
       Occupied  (A) (A) (A) (A) (A) (A) (A) (A) (A) (A) (A) (A)
                 (A) (A) (A) (A) (A) (A) (A) (A) (A) (A) (A) (A)
                 (A) (A) (A) (A) (A) (A) (A) (A) (A) (A) (A) (A)
                 (A) (A) (A) (A) (A) (A) (A) (A) (A) (A) (A) (A)
                 (A) (A) (A) (A) (A) (A) (A) (A) (A)
       Virtual   (A) (A) (A) (A) (A) (A) (A) (A) (A) (A) (A) (A)
                 (A) (A) (A) (A) (A) (A) (A) (A) (A) (A) (A) (A)
                 (A) (A) (A) (A) (A) (A) (A) (A) (A) (A) (A) (A)
                 (A) (A) (A) (A) (A) (A) (A) (A) (A) (A) (A) (A)
                 (A) (A) (A) (A) (A) (A) (A) (A) (A) (A) (A) (A)
                 (A) (A) (A) (A) (A) (A) (A) (A) (A) (A) (A) (A)
                 (A) (A) (A) (A) (A) (A) (A) (A) (A) (A) (A) (A)
                 (A) (A) (A) (A) (A) (A) (A) (A) (A) (A) (A) (A)
                 (A) (A) (A) (A) (A) (A) (A) (A) (A) (A) (A) (A)
                 (A) (A) (A) (A) (A) (A) (A) (A) (A) (A) (A) (A)
                 (A) (A) (A) (A) (A) (A) (A) (A) (A) (A) (A) (A)
                 (A) (A) (A) (A) (A) (A) (A) (A) (A) (A)
 The electronic state of the initial guess is 1-A.
 Requested convergence on RMS density matrix=1.00D-04 within 128 cycles.
 Requested convergence on MAX density matrix=1.00D-02.
 Requested convergence on             energy=1.00D-02.
 No special actions if energy rises.
 EnCoef did     4 forward-backward iterations
 EnCoef did     1 forward-backward iterations
 EnCoef did     3 forward-backward iterations
 EnCoef did     3 forward-backward iterations
 SCF Done:  E(RB+HF-LYP) =  -2749.87675743     A.U. after   14 cycles
             Convg  =    0.2074D-04             -V/T =  2.0028
             S**2   =   0.0000

 **********************************************************************

            Population analysis using the SCF density.

 **********************************************************************

 Orbital symmetries:
       Occupied  (A) (A) (A) (A) (A) (A) (A) (A) (A) (A) (A) (A)
                 (A) (A) (A) (A) (A) (A) (A) (A) (A) (A) (A) (A)
                 (A) (A) (A) (A) (A) (A) (A) (A) (A) (A) (A) (A)
                 (A) (A) (A) (A) (A) (A) (A) (A) (A) (A) (A) (A)
                 (A) (A) (A) (A) (A) (A) (A) (A) (A)
       Virtual   (A) (A) (A) (A) (A) (A) (A) (A) (A) (A) (A) (A)
                 (A) (A) (A) (A) (A) (A) (A) (A) (A) (A) (A) (A)
                 (A) (A) (A) (A) (A) (A) (A) (A) (A) (A) (A) (A)
                 (A) (A) (A) (A) (A) (A) (A) (A) (A) (A) (A) (A)
                 (A) (A) (A) (A) (A) (A) (A) (A) (A) (A) (A) (A)
                 (A) (A) (A) (A) (A) (A) (A) (A) (A) (A) (A) (A)
                 (A) (A) (A) (A) (A) (A) (A) (A) (A) (A) (A) (A)
                 (A) (A) (A) (A) (A) (A) (A) (A) (A) (A) (A) (A)
                 (A) (A) (A) (A) (A) (A) (A) (A) (A) (A) (A) (A)
                 (A) (A) (A) (A) (A) (A) (A) (A) (A) (A) (A) (A)
                 (A) (A) (A) (A) (A) (A) (A) (A) (A) (A) (A) (A)
                 (A) (A) (A) (A) (A) (A) (A) (A) (A) (A)
 The electronic state is 1-A.
 Alpha  occ. eigenvalues -- -145.54749-145.52114-145.50307 -77.29500 -19.40240
 Alpha  occ. eigenvalues --  -19.36481 -19.31735 -19.27748 -19.14313 -15.61677
 Alpha  occ. eigenvalues --  -15.58967 -15.57220 -12.74886 -12.74834 -12.74787
 Alpha  occ. eigenvalues --  -12.72207 -12.72165 -12.72041 -12.70457 -12.70395
 Alpha  occ. eigenvalues --  -12.70294  -6.74774  -4.91142  -4.90912  -4.90673
 Alpha  occ. eigenvalues --   -1.98721  -1.96063  -1.94436  -1.31628  -1.26260
 Alpha  occ. eigenvalues --   -1.26012  -1.25948  -1.23807  -1.23608  -1.22967
 Alpha  occ. eigenvalues --   -1.22224  -1.21935  -1.21297  -1.11696  -1.07141
 Alpha  occ. eigenvalues --   -0.94216  -0.88535  -0.69371  -0.66538  -0.61109
 Alpha  occ. eigenvalues --   -0.59903  -0.53956  -0.49856  -0.48735  -0.46277
 Alpha  occ. eigenvalues --   -0.45645  -0.38915  -0.37285  -0.34419  -0.32650
 Alpha  occ. eigenvalues --   -0.32375  -0.27701
 Alpha virt. eigenvalues --   -0.24402  -0.20239  -0.19618  -0.15820  -0.15521
 Alpha virt. eigenvalues --   -0.14509  -0.14157  -0.11910  -0.11214  -0.10575
 Alpha virt. eigenvalues --   -0.09875  -0.09016  -0.08044  -0.07845  -0.07288
 Alpha virt. eigenvalues --   -0.06192  -0.05909  -0.05810  -0.05374  -0.04954
 Alpha virt. eigenvalues --   -0.04798  -0.04403  -0.04250  -0.04088  -0.03765
 Alpha virt. eigenvalues --   -0.03438  -0.03348  -0.03101  -0.01625  -0.01352
 Alpha virt. eigenvalues --   -0.00911  -0.00387   0.00877   0.01544   0.01877
 Alpha virt. eigenvalues --    0.02400   0.03027   0.03775   0.04301   0.04395
 Alpha virt. eigenvalues --    0.04718   0.05095   0.05267   0.05431   0.06333
 Alpha virt. eigenvalues --    0.07021   0.07777   0.08059   0.08527   0.09192
 Alpha virt. eigenvalues --    0.10204   0.10261   0.11297   0.12280   0.12939
 Alpha virt. eigenvalues --    0.13679   0.14230   0.14895   0.15904   0.17021
 Alpha virt. eigenvalues --    0.17720   0.20393   0.21906   0.22149   0.22238
 Alpha virt. eigenvalues --    0.22987   0.24363   0.25247   0.27366   0.28873
 Alpha virt. eigenvalues --    0.30405   0.30830   0.32694   0.33590   0.34729
 Alpha virt. eigenvalues --    0.35679   0.36610   0.38551   0.41187   0.41792
 Alpha virt. eigenvalues --    0.47956   0.49563   0.54787   0.55990   0.59759
 Alpha virt. eigenvalues --    0.64304   0.65998   0.73925   0.78103   0.85876
 Alpha virt. eigenvalues --    0.92647   0.98998   1.00616   1.04651   1.07240
 Alpha virt. eigenvalues --    1.09297   1.11416   1.14348   1.15179   1.16262
 Alpha virt. eigenvalues --    1.17849   1.18504   1.22726   1.23422   1.24385
 Alpha virt. eigenvalues --    1.32888   1.34552   1.38323   1.41991   1.45095
 Alpha virt. eigenvalues --    1.49784   1.52070   1.53443   1.67292   1.69168
 Alpha virt. eigenvalues --    1.72424   1.73576   1.75535   1.78293   1.79925
 Alpha virt. eigenvalues --    1.82964   1.83151   1.83725   1.88823   1.89771
 Alpha virt. eigenvalues --    1.93351   2.00041   2.02590   2.07683   2.20061
 Alpha virt. eigenvalues --    2.22639   2.33340   2.38230   2.50558   3.01739
 Alpha virt. eigenvalues --    3.08059   3.48050   3.87897   3.96262   3.98828
 Alpha virt. eigenvalues --    4.06688   4.34032
          Condensed to atoms (all electrons):
              1          2          3          4          5          6
     1  O    8.475769  -0.017983  -0.045587  -0.105118   0.084308   0.001312
     2  O   -0.017983   7.751164   0.170778   0.070124  -0.002220   0.000308
     3  O   -0.045587   0.170778   8.249869  -0.074453  -0.004506  -0.000046
     4  P   -0.105118   0.070124  -0.074453  15.656183  -0.789236  -0.006267
     5  O    0.084308  -0.002220  -0.004506  -0.789236   9.776188   0.005350
     6  O    0.001312   0.000308  -0.000046  -0.006267   0.005350   8.691254
     7  Ca  -0.017313   0.003693   0.010330  -0.044420  -0.082790   0.188787
     8  Ca  -0.017454  -0.006993   0.012319  -0.087014  -0.156654  -0.014707
     9  Ca  -0.006346   0.004170  -0.014829   0.079963  -0.007887   0.225473
              7          8          9
     1  O   -0.017313  -0.017454  -0.006346
     2  O    0.003693  -0.006993   0.004170
     3  O    0.010330   0.012319  -0.014829
     4  P   -0.044420  -0.087014   0.079963
     5  O   -0.082790  -0.156654  -0.007887
     6  O    0.188787  -0.014707   0.225473
     7  Ca  18.562608   0.262387   0.007128
     8  Ca   0.262387  19.158683   0.026493
     9  Ca   0.007128   0.026493  18.376081
 Mulliken atomic charges:
              1
     1  O   -0.351589
     2  O    0.026959
     3  O   -0.303874
     4  P    0.300238
     5  O   -0.822554
     6  O   -1.091464
     7  Ca   1.109590
     8  Ca   0.822940
     9  Ca   1.309755
 Sum of Mulliken charges=   1.00000
 Atomic charges with hydrogens summed into heavy atoms:
              1
     1  O   -0.351589
     2  O    0.026959
     3  O   -0.303874
     4  P    0.300238
     5  O   -0.822554
     6  O   -1.091464
     7  Ca   1.109590
     8  Ca   0.822940
     9  Ca   1.309755
 Sum of Mulliken charges=   1.00000
 Electronic spatial extent (au):  <R**2>=  2758.9233
 Charge=     1.0000 electrons
 Dipole moment (field-independent basis, Debye):
    X=    -3.4322    Y=     3.9715    Z=    -2.2076  Tot=     5.6944
 Quadrupole moment (field-independent basis, Debye-Ang):
   XX=   -93.0954   YY=   -48.0378   ZZ=   -75.4122
   XY=     6.0933   XZ=   -12.2387   YZ=     8.9041
 Traceless Quadrupole moment (field-independent basis, Debye-Ang):
   XX=   -20.9136   YY=    24.1440   ZZ=    -3.2304
   XY=     6.0933   XZ=   -12.2387   YZ=     8.9041
 Octapole moment (field-independent basis, Debye-Ang**2):
  XXX=    13.2876  YYY=   -53.0920  ZZZ=    -8.0667  XYY=   -21.2308
  XXY=    76.7062  XXZ=    24.8817  XZZ=   -15.5189  YZZ=    -9.1477
  YYZ=   -30.6352  XYZ=   -26.4620
 Hexadecapole moment (field-independent basis, Debye-Ang**3):
 XXXX= -2319.2661 YYYY= -1073.5554 ZZZZ=  -289.7645 XXXY=  -154.7193
 XXXZ=  -142.6630 YYYX=   154.7078 YYYZ=    46.9618 ZZZX=   -29.1465
 ZZZY=    39.1831 XXYY=  -461.6494 XXZZ=  -366.0394 YYZZ=  -222.2357
 XXYZ=    54.5785 YYXZ=   -11.3139 ZZXY=    15.8692
 N-N= 9.517555402823D+02 E-N=-8.400266400548D+03  KE= 2.742065741586D+03
 Merz-Kollman atomic radii used.
 Read replacement radii for each type of atom:
 Rad(20) =   1.188000000000D+00
 Atom Element Radius
    1     8    1.40
    2     8    1.40
    3     8    1.40
    4    15    1.80
    5     8    1.40
    6     8    1.40
    7    20    1.19
    8    20    1.19
    9    20    1.19

 **********************************************************************

            Electrostatic Properties Using The SCF Density

 **********************************************************************

       Atomic Center    1 is at   2.095731  0.175156 -0.370672
       Atomic Center    2 is at   3.344770 -0.563895 -0.186312
       Atomic Center    3 is at   2.858179 -1.465075  0.750548
       Atomic Center    4 is at   1.072760 -0.738293  0.764428
       Atomic Center    5 is at  -0.187749  0.292999  0.204858
       Atomic Center    6 is at  -3.027810 -0.745708 -0.234562
       Atomic Center    7 is at  -2.435908  1.093371  0.654908
       Atomic Center    8 is at   0.928863  2.287287 -0.578952
       Atomic Center    9 is at  -1.330772 -1.904330 -0.714822
     833 points will be used for fitting atomic charges
 Fitting point charges to eletrostatic potential
 Charges from ESP fit, RMS=   0.01963 RRMS=   0.12233:
 Charge=   1.00000 Dipole=    -4.6689     6.8618    -3.2940 Tot=     8.9294
              1
     1  O    0.176368
     2  O   -0.191189
     3  O   -0.282941
     4  P    0.197975
     5  O   -1.069452
     6  O   -1.284791
     7  Ca   1.230820
     8  Ca   0.778881
     9  Ca   1.444329
 -----------------------------------------------------------------

              Electrostatic Properties (Atomic Units)

 -----------------------------------------------------------------
    Center     Electric         -------- Electric Field --------
               Potential          X             Y             Z
 -----------------------------------------------------------------
    1 Atom    -22.105356
    2 Atom    -22.076912
    3 Atom    -22.157102
    4 Atom    -53.923044
    5 Atom    -22.188710
    6 Atom    -22.322335
    7 Atom    -80.038606
    8 Atom    -79.995593
    9 Atom    -80.021117
 -----------------------------------------------------------------
 1\1\GINC-N059\SP\RB3LYP\6-31+G(d,p)\Ca3O5P1(1+)\TIMN\12-Jun-2015\0\\# 
 b3lyp/6-31+G(d,p) int=ultrafine pop=(ReadRadii,MK)\\mol_17.26.38.pdbcc
 cc_plusQ.z58449.zip.xyz\\1,1\O,0,2.09573,0.17516,-0.37067\O,0,3.34477,
 -0.56389,-0.18631\O,0,2.85818,-1.46507,0.75055\P,0,1.07276,-0.73829,0.
 76443\O,0,-0.18775,0.293,0.20486\O,0,-3.02781,-0.74571,-0.23456\Ca,0,-
 2.43591,1.09337,0.65491\Ca,0,0.92886,2.28729,-0.57895\Ca,0,-1.33077,-1
 .90433,-0.71482\\Version=EM64T-G03RevE.01\State=1-A\HF=-2749.8767574\R
 MSD=2.074e-05\Thermal=0.\Dipole=-1.3503186,1.5625004,-0.868547\PG=C01 
 [X(Ca3O5P1)]\\@


 TRUTH, IN SCIENCE, CAN BE DEFINED AS THE WORKING HYPOTHESIS 
 BEST FITTED TO OPEN THE WAY TO THE NEXT BETTER ONE.

                              -- KONRAD LORENZ
 Job cpu time:  0 days  0 hours  3 minutes 30.1 seconds.
 File lengths (MBytes):  RWF=     36 Int=      0 D2E=      0 Chk=     11 Scr=      1
 Normal termination of Gaussian 03 at Fri Jun 12 18:01:54 2015.
