 Entering Gaussian System, Link 0=/home/timn/tmp/g03.e01/g03
 Input=mol_17.23.52.pdbcccc_plusQ.z58253.zip.xyz.gjf
 Output=mol_17.23.52.pdbcccc_plusQ.z58253.zip.xyz.out
 Initial command:
 /home/timn/tmp/g03.e01/l1.exe /home/timn/tmp/g03.e01/Gau-12704.inp -scrdir=/home/timn/tmp/g03.e01/
 Default is to use a total of   2 processors:
                                2 via shared-memory
                                1 via Linda
 Entering Link 1 = /home/timn/tmp/g03.e01/l1.exe PID=     12705.
  
 Copyright (c) 1988,1990,1992,1993,1995,1998,2003,2004,2007, Gaussian, Inc.
                  All Rights Reserved.
  
 This is the Gaussian(R) 03 program.  It is based on the
 the Gaussian(R) 98 system (copyright 1998, Gaussian, Inc.),
 the Gaussian(R) 94 system (copyright 1995, Gaussian, Inc.),
 the Gaussian 92(TM) system (copyright 1992, Gaussian, Inc.),
 the Gaussian 90(TM) system (copyright 1990, Gaussian, Inc.),
 the Gaussian 88(TM) system (copyright 1988, Gaussian, Inc.),
 the Gaussian 86(TM) system (copyright 1986, Carnegie Mellon
 University), and the Gaussian 82(TM) system (copyright 1983,
 Carnegie Mellon University). Gaussian is a federally registered
 trademark of Gaussian, Inc.
  
 This software contains proprietary and confidential information,
 including trade secrets, belonging to Gaussian, Inc.
  
 This software is provided under written license and may be
 used, copied, transmitted, or stored only in accord with that
 written license.
  
 The following legend is applicable only to US Government
 contracts under FAR:
  
                    RESTRICTED RIGHTS LEGEND
  
 Use, reproduction and disclosure by the US Government is
 subject to restrictions as set forth in subparagraphs (a)
 and (c) of the Commercial Computer Software - Restricted
 Rights clause in FAR 52.227-19.
  
 Gaussian, Inc.
 340 Quinnipiac St., Bldg. 40, Wallingford CT 06492
  
  
 ---------------------------------------------------------------
 Warning -- This program may not be used in any manner that
 competes with the business of Gaussian, Inc. or will provide
 assistance to any competitor of Gaussian, Inc.  The licensee
 of this program is prohibited from giving any competitor of
 Gaussian, Inc. access to this program.  By using this program,
 the user acknowledges that Gaussian, Inc. is engaged in the
 business of creating and licensing software in the field of
 computational chemistry and represents and warrants to the
 licensee that it is not a competitor of Gaussian, Inc. and that
 it will not use this program in any manner prohibited above.
 ---------------------------------------------------------------
  

 Cite this work as:
 Gaussian 03, Revision E.01,
 M. J. Frisch, G. W. Trucks, H. B. Schlegel, G. E. Scuseria, 
 M. A. Robb, J. R. Cheeseman, J. A. Montgomery, Jr., T. Vreven, 
 K. N. Kudin, J. C. Burant, J. M. Millam, S. S. Iyengar, J. Tomasi, 
 V. Barone, B. Mennucci, M. Cossi, G. Scalmani, N. Rega, 
 G. A. Petersson, H. Nakatsuji, M. Hada, M. Ehara, K. Toyota, 
 R. Fukuda, J. Hasegawa, M. Ishida, T. Nakajima, Y. Honda, O. Kitao, 
 H. Nakai, M. Klene, X. Li, J. E. Knox, H. P. Hratchian, J. B. Cross, 
 V. Bakken, C. Adamo, J. Jaramillo, R. Gomperts, R. E. Stratmann, 
 O. Yazyev, A. J. Austin, R. Cammi, C. Pomelli, J. W. Ochterski, 
 P. Y. Ayala, K. Morokuma, G. A. Voth, P. Salvador, J. J. Dannenberg, 
 V. G. Zakrzewski, S. Dapprich, A. D. Daniels, M. C. Strain, 
 O. Farkas, D. K. Malick, A. D. Rabuck, K. Raghavachari, 
 J. B. Foresman, J. V. Ortiz, Q. Cui, A. G. Baboul, S. Clifford, 
 J. Cioslowski, B. B. Stefanov, G. Liu, A. Liashenko, P. Piskorz, 
 I. Komaromi, R. L. Martin, D. J. Fox, T. Keith, M. A. Al-Laham, 
 C. Y. Peng, A. Nanayakkara, M. Challacombe, P. M. W. Gill, 
 B. Johnson, W. Chen, M. W. Wong, C. Gonzalez, and J. A. Pople, 
 Gaussian, Inc., Wallingford CT, 2004.
 
 ******************************************
 Gaussian 03:  EM64T-G03RevE.01 11-Sep-2007
                12-Jun-2015 
 ******************************************
 %nproc=2
 Will use up to    2 processors via shared memory.
 Default route:  MP2=Direct MaxDisk=2000MB
 ----------------------------------------------------
 # b3lyp/6-31+G(d,p) int=ultrafine pop=(ReadRadii,MK)
 ----------------------------------------------------

 Warning!  SCF SP cutoffs with diffuse functions may be unreliable.
 Consider SCF=Tight

 1/38=1/1;
 2/17=6,18=5,40=1/2;
 3/5=1,6=6,7=111,11=2,16=1,25=1,30=1,74=-5,75=5/1,2,3;
 4//1;
 5/5=2,32=1,38=5/2;
 6/7=2,8=2,9=2,10=2,15=8,20=101,28=1/1,2;
 99/5=1,9=1/99;
 -----------------------------------------
 mol_17.23.52.pdbcccc_plusQ.z58253.zip.xyz
 -----------------------------------------
 Symbolic Z-matrix:
 Charge =  1 Multiplicity = 1
 O                    -2.03596  -0.14807   1.26082 
 P                    -1.0806   -0.54003   0.02869 
 Ca                   -3.76576   0.38106  -0.01635 
 O                    -2.0365   -0.26599  -1.23555 
 O                     0.16438   0.49952  -0.02244 
 Ca                    1.58302  -1.57998   0.00734 
 Ca                    2.06322   1.67458  -0.01573 
 O                     3.11306  -0.12504   0.78745 
 O                     3.11997  -0.13701  -0.78225 
 
                          Input orientation:                          
 ---------------------------------------------------------------------
 Center     Atomic     Atomic              Coordinates (Angstroms)
 Number     Number      Type              X           Y           Z
 ---------------------------------------------------------------------
    1          8             0       -2.035960   -0.148070    1.260820
    2         15             0       -1.080600   -0.540030    0.028690
    3         20             0       -3.765760    0.381060   -0.016350
    4          8             0       -2.036500   -0.265990   -1.235550
    5          8             0        0.164380    0.499520   -0.022440
    6         20             0        1.583020   -1.579980    0.007340
    7         20             0        2.063220    1.674580   -0.015730
    8          8             0        3.113060   -0.125040    0.787450
    9          8             0        3.119970   -0.137010   -0.782250
 ---------------------------------------------------------------------
                    Distance matrix (angstroms):
                    1          2          3          4          5
     1  O    0.000000
     2  P    1.607635   0.000000
     3  Ca   2.214351   2.839105   0.000000
     4  O    2.499154   1.608461   2.212569   0.000000
     5  O    2.628236   1.622730   3.931930   2.627073   0.000000
     6  Ca   4.088838   2.859515   5.696989   4.046266   2.517488
     7  Ca   4.664216   3.845787   5.970779   4.696965   2.233026
     8  O    5.170785   4.281906   6.944091   5.534471   3.121011
     9  O    5.545978   4.297073   6.947537   5.177963   3.117370
                    6          7          8          9
     6  Ca   0.000000
     7  Ca   3.289876   0.000000
     8  O    2.250876   2.232912   0.000000
     9  O    2.251184   2.232965   1.569761   0.000000
 Stoichiometry    Ca3O5P(1+)
 Framework group  C1[X(Ca3O5P)]
 Deg. of freedom    21
 Full point group                 C1
 Largest Abelian subgroup         C1      NOp   1
 Largest concise Abelian subgroup C1      NOp   1
                         Standard orientation:                         
 ---------------------------------------------------------------------
 Center     Atomic     Atomic              Coordinates (Angstroms)
 Number     Number      Type              X           Y           Z
 ---------------------------------------------------------------------
    1          8             0       -2.035962   -0.148071    1.260822
    2         15             0       -1.080602   -0.540031    0.028692
    3         20             0       -3.765762    0.381058   -0.016348
    4          8             0       -2.036502   -0.265991   -1.235548
    5          8             0        0.164378    0.499520   -0.022438
    6         20             0        1.583019   -1.579980    0.007342
    7         20             0        2.063218    1.674581   -0.015728
    8          8             0        3.113058   -0.125039    0.787452
    9          8             0        3.119968   -0.137009   -0.782248
 ---------------------------------------------------------------------
 Rotational constants (GHZ):      1.6718467      0.3644963      0.3261374
 Standard basis: 6-31+G(d,p) (6D, 7F)
 There are   199 symmetry adapted basis functions of A   symmetry.
 Integral buffers will be    131072 words long.
 Raffenetti 2 integral format.
 Two-electron integral symmetry is turned on.
   199 basis functions,   456 primitive gaussians,   199 cartesian basis functions
    57 alpha electrons       57 beta electrons
       nuclear repulsion energy       968.1537033607 Hartrees.
 NAtoms=    9 NActive=    9 NUniq=    9 SFac= 7.50D-01 NAtFMM=   80 NAOKFM=F Big=F
 One-electron integrals computed using PRISM.
 NBasis=   199 RedAO= T  NBF=   199
 NBsUse=   199 1.00D-06 NBFU=   199
 Harris functional with IExCor=  402 diagonalized for initial guess.
 ExpMin= 7.10D-03 ExpMax= 3.53D+04 ExpMxC= 5.30D+03 IAcc=3 IRadAn=         5 AccDes= 0.00D+00
 HarFok:  IExCor= 402 AccDes= 0.00D+00 IRadAn=         5 IDoV=1
 ScaDFX=  1.000000  1.000000  1.000000  1.000000
 Initial guess orbital symmetries:
       Occupied  (A) (A) (A) (A) (A) (A) (A) (A) (A) (A) (A) (A)
                 (A) (A) (A) (A) (A) (A) (A) (A) (A) (A) (A) (A)
                 (A) (A) (A) (A) (A) (A) (A) (A) (A) (A) (A) (A)
                 (A) (A) (A) (A) (A) (A) (A) (A) (A) (A) (A) (A)
                 (A) (A) (A) (A) (A) (A) (A) (A) (A)
       Virtual   (A) (A) (A) (A) (A) (A) (A) (A) (A) (A) (A) (A)
                 (A) (A) (A) (A) (A) (A) (A) (A) (A) (A) (A) (A)
                 (A) (A) (A) (A) (A) (A) (A) (A) (A) (A) (A) (A)
                 (A) (A) (A) (A) (A) (A) (A) (A) (A) (A) (A) (A)
                 (A) (A) (A) (A) (A) (A) (A) (A) (A) (A) (A) (A)
                 (A) (A) (A) (A) (A) (A) (A) (A) (A) (A) (A) (A)
                 (A) (A) (A) (A) (A) (A) (A) (A) (A) (A) (A) (A)
                 (A) (A) (A) (A) (A) (A) (A) (A) (A) (A) (A) (A)
                 (A) (A) (A) (A) (A) (A) (A) (A) (A) (A) (A) (A)
                 (A) (A) (A) (A) (A) (A) (A) (A) (A) (A) (A) (A)
                 (A) (A) (A) (A) (A) (A) (A) (A) (A) (A) (A) (A)
                 (A) (A) (A) (A) (A) (A) (A) (A) (A) (A)
 The electronic state of the initial guess is 1-A.
 Requested convergence on RMS density matrix=1.00D-04 within 128 cycles.
 Requested convergence on MAX density matrix=1.00D-02.
 Requested convergence on             energy=1.00D-02.
 No special actions if energy rises.
 SCF Done:  E(RB+HF-LYP) =  -2750.17194278     A.U. after    7 cycles
             Convg  =    0.4503D-04             -V/T =  2.0029
             S**2   =   0.0000

 **********************************************************************

            Population analysis using the SCF density.

 **********************************************************************

 Orbital symmetries:
       Occupied  (A) (A) (A) (A) (A) (A) (A) (A) (A) (A) (A) (A)
                 (A) (A) (A) (A) (A) (A) (A) (A) (A) (A) (A) (A)
                 (A) (A) (A) (A) (A) (A) (A) (A) (A) (A) (A) (A)
                 (A) (A) (A) (A) (A) (A) (A) (A) (A) (A) (A) (A)
                 (A) (A) (A) (A) (A) (A) (A) (A) (A)
       Virtual   (A) (A) (A) (A) (A) (A) (A) (A) (A) (A) (A) (A)
                 (A) (A) (A) (A) (A) (A) (A) (A) (A) (A) (A) (A)
                 (A) (A) (A) (A) (A) (A) (A) (A) (A) (A) (A) (A)
                 (A) (A) (A) (A) (A) (A) (A) (A) (A) (A) (A) (A)
                 (A) (A) (A) (A) (A) (A) (A) (A) (A) (A) (A) (A)
                 (A) (A) (A) (A) (A) (A) (A) (A) (A) (A) (A) (A)
                 (A) (A) (A) (A) (A) (A) (A) (A) (A) (A) (A) (A)
                 (A) (A) (A) (A) (A) (A) (A) (A) (A) (A) (A) (A)
                 (A) (A) (A) (A) (A) (A) (A) (A) (A) (A) (A) (A)
                 (A) (A) (A) (A) (A) (A) (A) (A) (A) (A) (A) (A)
                 (A) (A) (A) (A) (A) (A) (A) (A) (A) (A) (A) (A)
                 (A) (A) (A) (A) (A) (A) (A) (A) (A) (A)
 The electronic state is 1-A.
 Alpha  occ. eigenvalues -- -145.53642-145.49338-145.48183 -77.24119 -19.20894
 Alpha  occ. eigenvalues --  -19.20711 -19.20630 -19.19333 -19.19241 -15.60490
 Alpha  occ. eigenvalues --  -15.56141 -15.55048 -12.73722 -12.73628 -12.73622
 Alpha  occ. eigenvalues --  -12.69351 -12.69327 -12.69265 -12.68266 -12.68264
 Alpha  occ. eigenvalues --  -12.68136  -6.69161  -4.85578  -4.85491  -4.85111
 Alpha  occ. eigenvalues --   -1.97578  -1.93342  -1.92241  -1.25233  -1.25110
 Alpha  occ. eigenvalues --   -1.24690  -1.21727  -1.20864  -1.20776  -1.19828
 Alpha  occ. eigenvalues --   -1.19795  -1.19417  -1.06614  -1.03540  -1.00548
 Alpha  occ. eigenvalues --   -0.99039  -0.84673  -0.60982  -0.50064  -0.48603
 Alpha  occ. eigenvalues --   -0.47731  -0.44236  -0.42866  -0.42013  -0.41550
 Alpha  occ. eigenvalues --   -0.40262  -0.38181  -0.36200  -0.35013  -0.31631
 Alpha  occ. eigenvalues --   -0.29764  -0.29745
 Alpha virt. eigenvalues --   -0.21411  -0.17993  -0.15547  -0.12881  -0.11862
 Alpha virt. eigenvalues --   -0.11071  -0.09857  -0.09106  -0.08401  -0.07186
 Alpha virt. eigenvalues --   -0.06693  -0.06186  -0.05753  -0.05730  -0.05003
 Alpha virt. eigenvalues --   -0.04629  -0.04609  -0.03932  -0.03844  -0.03796
 Alpha virt. eigenvalues --   -0.03517  -0.03302  -0.03088  -0.02620  -0.02553
 Alpha virt. eigenvalues --   -0.02300  -0.01245   0.00035   0.01291   0.02329
 Alpha virt. eigenvalues --    0.02503   0.03022   0.03859   0.04405   0.04632
 Alpha virt. eigenvalues --    0.04698   0.05155   0.05939   0.06239   0.07028
 Alpha virt. eigenvalues --    0.07140   0.07248   0.08274   0.08711   0.09995
 Alpha virt. eigenvalues --    0.10287   0.10837   0.10938   0.11385   0.11880
 Alpha virt. eigenvalues --    0.15062   0.15492   0.15674   0.16675   0.17206
 Alpha virt. eigenvalues --    0.17624   0.18513   0.18939   0.20726   0.21491
 Alpha virt. eigenvalues --    0.22017   0.22685   0.23311   0.24684   0.25640
 Alpha virt. eigenvalues --    0.27465   0.28604   0.31516   0.31879   0.33234
 Alpha virt. eigenvalues --    0.34477   0.35461   0.36570   0.36896   0.37011
 Alpha virt. eigenvalues --    0.42134   0.43307   0.46122   0.50162   0.53460
 Alpha virt. eigenvalues --    0.56751   0.60946   0.62153   0.64184   0.69198
 Alpha virt. eigenvalues --    0.73675   0.82273   0.86701   0.96438   0.98689
 Alpha virt. eigenvalues --    1.11378   1.12164   1.14983   1.15809   1.16149
 Alpha virt. eigenvalues --    1.17831   1.18353   1.18552   1.20282   1.21670
 Alpha virt. eigenvalues --    1.22994   1.24668   1.26157   1.27673   1.31059
 Alpha virt. eigenvalues --    1.37996   1.47709   1.53151   1.53720   1.54227
 Alpha virt. eigenvalues --    1.58876   1.66151   1.69308   1.72106   1.74890
 Alpha virt. eigenvalues --    1.76173   1.76387   1.79827   1.80779   1.80865
 Alpha virt. eigenvalues --    1.82986   1.83919   1.87678   1.90732   1.91282
 Alpha virt. eigenvalues --    1.92041   1.98635   2.05519   2.06419   2.11348
 Alpha virt. eigenvalues --    2.20931   2.23063   2.48495   2.67335   2.68135
 Alpha virt. eigenvalues --    3.05915   3.52884   3.99500   4.03300   4.04753
 Alpha virt. eigenvalues --    4.12915   4.12997
          Condensed to atoms (all electrons):
              1          2          3          4          5          6
     1  O    8.910604  -0.279621   0.125538  -0.065310   0.154981   0.018158
     2  P   -0.279621  16.741379  -0.019441  -0.306763  -1.638292  -0.098046
     3  Ca   0.125538  -0.019441  18.289410   0.127167   0.024866  -0.000756
     4  O   -0.065310  -0.306763   0.127167   8.918587   0.167192   0.018515
     5  O    0.154981  -1.638292   0.024866   0.167192   9.943020   0.129453
     6  Ca   0.018158  -0.098046  -0.000756   0.018515   0.129453  18.350275
     7  Ca  -0.016506   0.151553   0.002378  -0.016970   0.007142  -0.079137
     8  O   -0.000177  -0.004698   0.000637   0.000962   0.002432   0.101655
     9  O    0.000929  -0.005020   0.000507  -0.000224   0.001875   0.102376
              7          8          9
     1  O   -0.016506  -0.000177   0.000929
     2  P    0.151553  -0.004698  -0.005020
     3  Ca   0.002378   0.000637   0.000507
     4  O   -0.016970   0.000962  -0.000224
     5  O    0.007142   0.002432   0.001875
     6  Ca  -0.079137   0.101655   0.102376
     7  Ca  18.322573   0.099332   0.098319
     8  O    0.099332   8.478243  -0.023449
     9  O    0.098319  -0.023449   8.482794
 Mulliken atomic charges:
              1
     1  O   -0.848596
     2  P    0.458950
     3  Ca   1.449693
     4  O   -0.843156
     5  O   -0.792668
     6  Ca   1.457507
     7  Ca   1.431315
     8  O   -0.654937
     9  O   -0.658108
 Sum of Mulliken charges=   1.00000
 Atomic charges with hydrogens summed into heavy atoms:
              1
     1  O   -0.848596
     2  P    0.458950
     3  Ca   1.449693
     4  O   -0.843156
     5  O   -0.792668
     6  Ca   1.457507
     7  Ca   1.431315
     8  O   -0.654937
     9  O   -0.658108
 Sum of Mulliken charges=   1.00000
 Electronic spatial extent (au):  <R**2>=  2996.3937
 Charge=     1.0000 electrons
 Dipole moment (field-independent basis, Debye):
    X=    -9.3702    Y=     5.0579    Z=    -0.1800  Tot=    10.6496
 Quadrupole moment (field-independent basis, Debye-Ang):
   XX=   -14.1898   YY=   -36.6169   ZZ=   -91.4149
   XY=    -2.9671   XZ=     0.4084   YZ=    -0.7317
 Traceless Quadrupole moment (field-independent basis, Debye-Ang):
   XX=    33.2174   YY=    10.7903   ZZ=   -44.0077
   XY=    -2.9671   XZ=     0.4084   YZ=    -0.7317
 Octapole moment (field-independent basis, Debye-Ang**2):
  XXX=  -447.7908  YYY=    28.3768  ZZZ=    -0.9695  XYY=    78.2100
  XXY=    81.7986  XXZ=    -2.3382  XZZ=    13.3957  YZZ=     7.0678
  YYZ=    -0.5327  XYZ=     0.7411
 Hexadecapole moment (field-independent basis, Debye-Ang**3):
 XXXX= -1523.5453 YYYY=  -312.4711 ZZZZ=  -285.2500 XXXY=   -67.9844
 XXXZ=     7.1324 YYYX=    18.2708 YYYZ=    -1.2711 ZZZX=     1.4315
 ZZZY=    -1.4564 XXYY=  -313.1817 XXZZ=  -557.3475 YYZZ=  -115.9736
 XXYZ=    -5.3289 YYXZ=    -0.5136 ZZXY=    -4.6293
 N-N= 9.681537033607D+02 E-N=-8.438564631775D+03  KE= 2.742166602360D+03
 Merz-Kollman atomic radii used.
 Read replacement radii for each type of atom:
 Rad(20) =   1.188000000000D+00
 Atom Element Radius
    1     8    1.40
    2    15    1.80
    3    20    1.19
    4     8    1.40
    5     8    1.40
    6    20    1.19
    7    20    1.19
    8     8    1.40
    9     8    1.40

 **********************************************************************

            Electrostatic Properties Using The SCF Density

 **********************************************************************

       Atomic Center    1 is at  -2.035962 -0.148071  1.260822
       Atomic Center    2 is at  -1.080602 -0.540031  0.028692
       Atomic Center    3 is at  -3.765762  0.381058 -0.016348
       Atomic Center    4 is at  -2.036502 -0.265991 -1.235548
       Atomic Center    5 is at   0.164378  0.499520 -0.022438
       Atomic Center    6 is at   1.583019 -1.579980  0.007342
       Atomic Center    7 is at   2.063218  1.674581 -0.015728
       Atomic Center    8 is at   3.113058 -0.125039  0.787452
       Atomic Center    9 is at   3.119968 -0.137009 -0.782248
     788 points will be used for fitting atomic charges
 Fitting point charges to eletrostatic potential
 Charges from ESP fit, RMS=   0.00696 RRMS=   0.04615:
 Charge=   1.00000 Dipole=    -9.8692     5.0709    -0.2027 Tot=    11.0976
              1
     1  O   -0.666957
     2  P   -0.216340
     3  Ca   1.593456
     4  O   -0.671297
     5  O   -0.710629
     6  Ca   1.572094
     7  Ca   1.609581
     8  O   -0.752841
     9  O   -0.757067
 -----------------------------------------------------------------

              Electrostatic Properties (Atomic Units)

 -----------------------------------------------------------------
    Center     Electric         -------- Electric Field --------
               Potential          X             Y             Z
 -----------------------------------------------------------------
    1 Atom    -22.268662
    2 Atom    -53.966191
    3 Atom    -80.005778
    4 Atom    -22.272189
    5 Atom    -22.253942
    6 Atom    -80.058831
    7 Atom    -80.046715
    8 Atom    -22.258407
    9 Atom    -22.264030
 -----------------------------------------------------------------
 1\1\GINC-N033\SP\RB3LYP\6-31+G(d,p)\Ca3O5P1(1+)\TIMN\12-Jun-2015\0\\# 
 b3lyp/6-31+G(d,p) int=ultrafine pop=(ReadRadii,MK)\\mol_17.23.52.pdbcc
 cc_plusQ.z58253.zip.xyz\\1,1\O,0,-2.03596,-0.14807,1.26082\P,0,-1.0806
 ,-0.54003,0.02869\Ca,0,-3.76576,0.38106,-0.01635\O,0,-2.0365,-0.26599,
 -1.23555\O,0,0.16438,0.49952,-0.02244\Ca,0,1.58302,-1.57998,0.00734\Ca
 ,0,2.06322,1.67458,-0.01573\O,0,3.11306,-0.12504,0.78745\O,0,3.11997,-
 0.13701,-0.78225\\Version=EM64T-G03RevE.01\State=1-A\HF=-2750.1719428\
 RMSD=4.503e-05\Thermal=0.\Dipole=-3.6865215,1.9899155,-0.070798\PG=C01
  [X(Ca3O5P1)]\\@


 EVERY WORD THAT YOU WRITE IS A BLOW THAT SMITES THE DEVIL.
     -- ST. BERNARD OF CLAIRVAUX
 Job cpu time:  0 days  0 hours  1 minutes 40.3 seconds.
 File lengths (MBytes):  RWF=     36 Int=      0 D2E=      0 Chk=     11 Scr=      1
 Normal termination of Gaussian 03 at Fri Jun 12 17:53:45 2015.
