 Entering Gaussian System, Link 0=/home/timn/tmp/g03.e01/g03
 Input=mol_17.23.41.pdbc_plusQ.z58242.zip.xyz.gjf
 Output=mol_17.23.41.pdbc_plusQ.z58242.zip.xyz.out
 Initial command:
 /home/timn/tmp/g03.e01/l1.exe /home/timn/tmp/g03.e01/Gau-14673.inp -scrdir=/home/timn/tmp/g03.e01/
 Default is to use a total of   2 processors:
                                2 via shared-memory
                                1 via Linda
 Entering Link 1 = /home/timn/tmp/g03.e01/l1.exe PID=     14674.
  
 Copyright (c) 1988,1990,1992,1993,1995,1998,2003,2004,2007, Gaussian, Inc.
                  All Rights Reserved.
  
 This is the Gaussian(R) 03 program.  It is based on the
 the Gaussian(R) 98 system (copyright 1998, Gaussian, Inc.),
 the Gaussian(R) 94 system (copyright 1995, Gaussian, Inc.),
 the Gaussian 92(TM) system (copyright 1992, Gaussian, Inc.),
 the Gaussian 90(TM) system (copyright 1990, Gaussian, Inc.),
 the Gaussian 88(TM) system (copyright 1988, Gaussian, Inc.),
 the Gaussian 86(TM) system (copyright 1986, Carnegie Mellon
 University), and the Gaussian 82(TM) system (copyright 1983,
 Carnegie Mellon University). Gaussian is a federally registered
 trademark of Gaussian, Inc.
  
 This software contains proprietary and confidential information,
 including trade secrets, belonging to Gaussian, Inc.
  
 This software is provided under written license and may be
 used, copied, transmitted, or stored only in accord with that
 written license.
  
 The following legend is applicable only to US Government
 contracts under FAR:
  
                    RESTRICTED RIGHTS LEGEND
  
 Use, reproduction and disclosure by the US Government is
 subject to restrictions as set forth in subparagraphs (a)
 and (c) of the Commercial Computer Software - Restricted
 Rights clause in FAR 52.227-19.
  
 Gaussian, Inc.
 340 Quinnipiac St., Bldg. 40, Wallingford CT 06492
  
  
 ---------------------------------------------------------------
 Warning -- This program may not be used in any manner that
 competes with the business of Gaussian, Inc. or will provide
 assistance to any competitor of Gaussian, Inc.  The licensee
 of this program is prohibited from giving any competitor of
 Gaussian, Inc. access to this program.  By using this program,
 the user acknowledges that Gaussian, Inc. is engaged in the
 business of creating and licensing software in the field of
 computational chemistry and represents and warrants to the
 licensee that it is not a competitor of Gaussian, Inc. and that
 it will not use this program in any manner prohibited above.
 ---------------------------------------------------------------
  

 Cite this work as:
 Gaussian 03, Revision E.01,
 M. J. Frisch, G. W. Trucks, H. B. Schlegel, G. E. Scuseria, 
 M. A. Robb, J. R. Cheeseman, J. A. Montgomery, Jr., T. Vreven, 
 K. N. Kudin, J. C. Burant, J. M. Millam, S. S. Iyengar, J. Tomasi, 
 V. Barone, B. Mennucci, M. Cossi, G. Scalmani, N. Rega, 
 G. A. Petersson, H. Nakatsuji, M. Hada, M. Ehara, K. Toyota, 
 R. Fukuda, J. Hasegawa, M. Ishida, T. Nakajima, Y. Honda, O. Kitao, 
 H. Nakai, M. Klene, X. Li, J. E. Knox, H. P. Hratchian, J. B. Cross, 
 V. Bakken, C. Adamo, J. Jaramillo, R. Gomperts, R. E. Stratmann, 
 O. Yazyev, A. J. Austin, R. Cammi, C. Pomelli, J. W. Ochterski, 
 P. Y. Ayala, K. Morokuma, G. A. Voth, P. Salvador, J. J. Dannenberg, 
 V. G. Zakrzewski, S. Dapprich, A. D. Daniels, M. C. Strain, 
 O. Farkas, D. K. Malick, A. D. Rabuck, K. Raghavachari, 
 J. B. Foresman, J. V. Ortiz, Q. Cui, A. G. Baboul, S. Clifford, 
 J. Cioslowski, B. B. Stefanov, G. Liu, A. Liashenko, P. Piskorz, 
 I. Komaromi, R. L. Martin, D. J. Fox, T. Keith, M. A. Al-Laham, 
 C. Y. Peng, A. Nanayakkara, M. Challacombe, P. M. W. Gill, 
 B. Johnson, W. Chen, M. W. Wong, C. Gonzalez, and J. A. Pople, 
 Gaussian, Inc., Wallingford CT, 2004.
 
 ******************************************
 Gaussian 03:  EM64T-G03RevE.01 11-Sep-2007
                12-Jun-2015 
 ******************************************
 %nproc=2
 Will use up to    2 processors via shared memory.
 Default route:  MP2=Direct MaxDisk=2000MB
 ----------------------------------------------------
 # b3lyp/6-31+G(d,p) int=ultrafine pop=(ReadRadii,MK)
 ----------------------------------------------------

 Warning!  SCF SP cutoffs with diffuse functions may be unreliable.
 Consider SCF=Tight

 1/38=1/1;
 2/17=6,18=5,40=1/2;
 3/5=1,6=6,7=111,11=2,16=1,25=1,30=1,74=-5,75=5/1,2,3;
 4//1;
 5/5=2,32=1,38=5/2;
 6/7=2,8=2,9=2,10=2,15=8,20=101,28=1/1,2;
 99/5=1,9=1/99;
 --------------------------------------
 mol_17.23.41.pdbc_plusQ.z58242.zip.xyz
 --------------------------------------
 Symbolic Z-matrix:
 Charge =  1 Multiplicity = 1
 O                     4.28798  -0.04754   1.20828 
 P                     3.53569  -0.74573   0.13937 
 O                     2.03084   0.05283   0.11453 
 O                     1.21731  -0.32973  -1.08948 
 Ca                   -0.94813  -1.29783  -0.4338 
 O                    -2.99646  -1.62447   0.16338 
 Ca                   -3.49776   0.40657   0.57268 
 O                    -1.40321   1.00638   0. 
 Ca                    0.53954   1.82757  -0.40209 
 
                          Input orientation:                          
 ---------------------------------------------------------------------
 Center     Atomic     Atomic              Coordinates (Angstroms)
 Number     Number      Type              X           Y           Z
 ---------------------------------------------------------------------
    1          8             0        4.287980   -0.047540    1.208280
    2         15             0        3.535690   -0.745730    0.139370
    3          8             0        2.030840    0.052830    0.114530
    4          8             0        1.217310   -0.329730   -1.089480
    5         20             0       -0.948130   -1.297830   -0.433800
    6          8             0       -2.996460   -1.624470    0.163380
    7         20             0       -3.497760    0.406570    0.572680
    8          8             0       -1.403210    1.006380    0.000000
    9         20             0        0.539540    1.827570   -0.402090
 ---------------------------------------------------------------------
                    Distance matrix (angstroms):
                    1          2          3          4          5
     1  O    0.000000
     2  P    1.481883   0.000000
     3  O    2.510188   1.703787   0.000000
     4  O    3.845562   2.656692   1.502606   0.000000
     5  Ca   5.628188   4.553897   3.316506   2.460948   0.000000
     6  O    7.526061   6.591035   5.299950   4.582779   2.158466
     7  Ca   7.824829   7.140376   5.558817   5.053395   3.227785
     8  O    5.912726   5.242332   3.565820   3.136763   2.388444
     9  Ca   4.490004   3.986473   2.374989   2.363434   3.461545
                    6          7          8          9
     6  O    0.000000
     7  Ca   2.131655   0.000000
     8  O    3.080018   2.252748   0.000000
     9  Ca   4.973895   4.389671   2.147163   0.000000
 Stoichiometry    Ca3O5P(1+)
 Framework group  C1[X(Ca3O5P)]
 Deg. of freedom    21
 Full point group                 C1
 Largest Abelian subgroup         C1      NOp   1
 Largest concise Abelian subgroup C1      NOp   1
                         Standard orientation:                         
 ---------------------------------------------------------------------
 Center     Atomic     Atomic              Coordinates (Angstroms)
 Number     Number      Type              X           Y           Z
 ---------------------------------------------------------------------
    1          8             0        4.287980   -0.047539    1.208280
    2         15             0        3.535690   -0.745729    0.139370
    3          8             0        2.030840    0.052830    0.114530
    4          8             0        1.217310   -0.329730   -1.089480
    5         20             0       -0.948130   -1.297830   -0.433800
    6          8             0       -2.996460   -1.624471    0.163380
    7         20             0       -3.497760    0.406569    0.572680
    8          8             0       -1.403211    1.006380    0.000000
    9         20             0        0.539539    1.827570   -0.402090
 ---------------------------------------------------------------------
 Rotational constants (GHZ):      1.4215976      0.3253864      0.2859544
 Standard basis: 6-31+G(d,p) (6D, 7F)
 There are   199 symmetry adapted basis functions of A   symmetry.
 Integral buffers will be    131072 words long.
 Raffenetti 2 integral format.
 Two-electron integral symmetry is turned on.
   199 basis functions,   456 primitive gaussians,   199 cartesian basis functions
    57 alpha electrons       57 beta electrons
       nuclear repulsion energy       914.3235944611 Hartrees.
 NAtoms=    9 NActive=    9 NUniq=    9 SFac= 7.50D-01 NAtFMM=   80 NAOKFM=F Big=F
 One-electron integrals computed using PRISM.
 NBasis=   199 RedAO= T  NBF=   199
 NBsUse=   199 1.00D-06 NBFU=   199
 Harris functional with IExCor=  402 diagonalized for initial guess.
 ExpMin= 7.10D-03 ExpMax= 3.53D+04 ExpMxC= 5.30D+03 IAcc=3 IRadAn=         5 AccDes= 0.00D+00
 HarFok:  IExCor= 402 AccDes= 0.00D+00 IRadAn=         5 IDoV=1
 ScaDFX=  1.000000  1.000000  1.000000  1.000000
 Initial guess orbital symmetries:
       Occupied  (A) (A) (A) (A) (A) (A) (A) (A) (A) (A) (A) (A)
                 (A) (A) (A) (A) (A) (A) (A) (A) (A) (A) (A) (A)
                 (A) (A) (A) (A) (A) (A) (A) (A) (A) (A) (A) (A)
                 (A) (A) (A) (A) (A) (A) (A) (A) (A) (A) (A) (A)
                 (A) (A) (A) (A) (A) (A) (A) (A) (A)
       Virtual   (A) (A) (A) (A) (A) (A) (A) (A) (A) (A) (A) (A)
                 (A) (A) (A) (A) (A) (A) (A) (A) (A) (A) (A) (A)
                 (A) (A) (A) (A) (A) (A) (A) (A) (A) (A) (A) (A)
                 (A) (A) (A) (A) (A) (A) (A) (A) (A) (A) (A) (A)
                 (A) (A) (A) (A) (A) (A) (A) (A) (A) (A) (A) (A)
                 (A) (A) (A) (A) (A) (A) (A) (A) (A) (A) (A) (A)
                 (A) (A) (A) (A) (A) (A) (A) (A) (A) (A) (A) (A)
                 (A) (A) (A) (A) (A) (A) (A) (A) (A) (A) (A) (A)
                 (A) (A) (A) (A) (A) (A) (A) (A) (A) (A) (A) (A)
                 (A) (A) (A) (A) (A) (A) (A) (A) (A) (A) (A) (A)
                 (A) (A) (A) (A) (A) (A) (A) (A) (A) (A) (A) (A)
                 (A) (A) (A) (A) (A) (A) (A) (A) (A) (A)
 The electronic state of the initial guess is 1-A.
 Requested convergence on RMS density matrix=1.00D-04 within 128 cycles.
 Requested convergence on MAX density matrix=1.00D-02.
 Requested convergence on             energy=1.00D-02.
 No special actions if energy rises.
 EnCoef did     4 forward-backward iterations
 EnCoef did   100 forward-backward iterations
 EnCoef did     5 forward-backward iterations
 EnCoef did     3 forward-backward iterations
 SCF Done:  E(RB+HF-LYP) =  -2750.08915876     A.U. after   11 cycles
             Convg  =    0.7855D-04             -V/T =  2.0029
             S**2   =   0.0000

 **********************************************************************

            Population analysis using the SCF density.

 **********************************************************************

 Orbital symmetries:
       Occupied  (A) (A) (A) (A) (A) (A) (A) (A) (A) (A) (A) (A)
                 (A) (A) (A) (A) (A) (A) (A) (A) (A) (A) (A) (A)
                 (A) (A) (A) (A) (A) (A) (A) (A) (A) (A) (A) (A)
                 (A) (A) (A) (A) (A) (A) (A) (A) (A) (A) (A) (A)
                 (A) (A) (A) (A) (A) (A) (A) (A) (A)
       Virtual   (A) (A) (A) (A) (A) (A) (A) (A) (A) (A) (A) (A)
                 (A) (A) (A) (A) (A) (A) (A) (A) (A) (A) (A) (A)
                 (A) (A) (A) (A) (A) (A) (A) (A) (A) (A) (A) (A)
                 (A) (A) (A) (A) (A) (A) (A) (A) (A) (A) (A) (A)
                 (A) (A) (A) (A) (A) (A) (A) (A) (A) (A) (A) (A)
                 (A) (A) (A) (A) (A) (A) (A) (A) (A) (A) (A) (A)
                 (A) (A) (A) (A) (A) (A) (A) (A) (A) (A) (A) (A)
                 (A) (A) (A) (A) (A) (A) (A) (A) (A) (A) (A) (A)
                 (A) (A) (A) (A) (A) (A) (A) (A) (A) (A) (A) (A)
                 (A) (A) (A) (A) (A) (A) (A) (A) (A) (A) (A) (A)
                 (A) (A) (A) (A) (A) (A) (A) (A) (A) (A) (A) (A)
                 (A) (A) (A) (A) (A) (A) (A) (A) (A) (A)
 The electronic state is 1-A.
 Alpha  occ. eigenvalues -- -145.53213-145.47015-145.45591 -77.31020 -19.36979
 Alpha  occ. eigenvalues --  -19.30568 -19.28828 -19.16995 -19.10529 -15.60022
 Alpha  occ. eigenvalues --  -15.53916 -15.52534 -12.73261 -12.73209 -12.73117
 Alpha  occ. eigenvalues --  -12.67158 -12.67072 -12.66995 -12.65807 -12.65714
 Alpha  occ. eigenvalues --  -12.65573  -6.76904  -4.93232  -4.93190  -4.92637
 Alpha  occ. eigenvalues --   -1.97167  -1.91202  -1.89932  -1.25938  -1.24830
 Alpha  occ. eigenvalues --   -1.24191  -1.20961  -1.19070  -1.18815  -1.18157
 Alpha  occ. eigenvalues --   -1.18009  -1.17323  -1.16637  -1.12832  -0.98326
 Alpha  occ. eigenvalues --   -0.91754  -0.84524  -0.70413  -0.59346  -0.57572
 Alpha  occ. eigenvalues --   -0.57097  -0.48965  -0.48367  -0.44220  -0.41562
 Alpha  occ. eigenvalues --   -0.40656  -0.38014  -0.36639  -0.35773  -0.30078
 Alpha  occ. eigenvalues --   -0.28627  -0.28305
 Alpha virt. eigenvalues --   -0.21818  -0.21183  -0.18164  -0.17015  -0.14243
 Alpha virt. eigenvalues --   -0.12573  -0.11861  -0.10411  -0.10044  -0.09910
 Alpha virt. eigenvalues --   -0.08751  -0.08500  -0.07475  -0.07030  -0.06595
 Alpha virt. eigenvalues --   -0.05934  -0.05348  -0.05184  -0.04826  -0.04424
 Alpha virt. eigenvalues --   -0.04281  -0.04093  -0.03971  -0.03712  -0.03357
 Alpha virt. eigenvalues --   -0.02946  -0.02792  -0.01932  -0.01247  -0.00450
 Alpha virt. eigenvalues --    0.00755   0.01420   0.01776   0.02615   0.03459
 Alpha virt. eigenvalues --    0.04150   0.04340   0.05379   0.05979   0.06037
 Alpha virt. eigenvalues --    0.06430   0.06597   0.07298   0.07858   0.08667
 Alpha virt. eigenvalues --    0.08994   0.09689   0.10017   0.10542   0.10843
 Alpha virt. eigenvalues --    0.11639   0.12168   0.13150   0.13571   0.13992
 Alpha virt. eigenvalues --    0.15473   0.17243   0.17748   0.18988   0.19555
 Alpha virt. eigenvalues --    0.20778   0.21287   0.22782   0.24411   0.25615
 Alpha virt. eigenvalues --    0.26366   0.27602   0.28187   0.29188   0.30622
 Alpha virt. eigenvalues --    0.31522   0.32357   0.34040   0.36282   0.37070
 Alpha virt. eigenvalues --    0.38789   0.40095   0.40569   0.42401   0.48084
 Alpha virt. eigenvalues --    0.49634   0.53125   0.55556   0.57281   0.59333
 Alpha virt. eigenvalues --    0.63135   0.77978   0.82123   0.89942   0.94886
 Alpha virt. eigenvalues --    1.01193   1.05507   1.09932   1.10196   1.11979
 Alpha virt. eigenvalues --    1.12176   1.13956   1.15023   1.15833   1.18501
 Alpha virt. eigenvalues --    1.19021   1.24055   1.25297   1.26441   1.28819
 Alpha virt. eigenvalues --    1.31634   1.39553   1.40337   1.44611   1.48740
 Alpha virt. eigenvalues --    1.53592   1.55563   1.62297   1.66524   1.70871
 Alpha virt. eigenvalues --    1.71453   1.75343   1.78166   1.78346   1.80718
 Alpha virt. eigenvalues --    1.82157   1.86619   1.87716   1.88348   1.90687
 Alpha virt. eigenvalues --    1.91201   1.93961   1.95009   1.99357   2.01496
 Alpha virt. eigenvalues --    2.14932   2.16233   2.19869   2.30155   2.72513
 Alpha virt. eigenvalues --    3.02074   3.37642   3.83860   3.89464   3.95053
 Alpha virt. eigenvalues --    4.03154   4.16973
          Condensed to atoms (all electrons):
              1          2          3          4          5          6
     1  O    8.255041   0.180832   0.057194  -0.005398   0.002741   0.000013
     2  P    0.180832  14.364846  -0.326125   0.027975  -0.001256  -0.000654
     3  O    0.057194  -0.326125   8.764144  -0.077082   0.006397   0.001622
     4  O   -0.005398   0.027975  -0.077082   8.484102   0.046477  -0.002936
     5  Ca   0.002741  -0.001256   0.006397   0.046477  18.396960   0.228828
     6  O    0.000013  -0.000654   0.001622  -0.002936   0.228828   8.704716
     7  Ca   0.001830  -0.006614   0.002898   0.000608  -0.043071   0.224748
     8  O   -0.000016  -0.001471  -0.008021   0.008461   0.053983  -0.024970
     9  Ca  -0.005818  -0.018442   0.034482   0.071441  -0.005713  -0.002570
              7          8          9
     1  O    0.001830  -0.000016  -0.005818
     2  P   -0.006614  -0.001471  -0.018442
     3  O    0.002898  -0.008021   0.034482
     4  O    0.000608   0.008461   0.071441
     5  Ca  -0.043071   0.053983  -0.005713
     6  O    0.224748  -0.024970  -0.002570
     7  Ca  18.396260   0.101440  -0.016481
     8  O    0.101440   8.994251   0.182258
     9  Ca  -0.016481   0.182258  18.264499
 Mulliken atomic charges:
              1
     1  O   -0.486419
     2  P    0.780908
     3  O   -0.455508
     4  O   -0.553649
     5  Ca   1.314654
     6  O   -1.128796
     7  Ca   1.338382
     8  O   -1.305916
     9  Ca   1.496344
 Sum of Mulliken charges=   1.00000
 Atomic charges with hydrogens summed into heavy atoms:
              1
     1  O   -0.486419
     2  P    0.780908
     3  O   -0.455508
     4  O   -0.553649
     5  Ca   1.314654
     6  O   -1.128796
     7  Ca   1.338382
     8  O   -1.305916
     9  Ca   1.496344
 Sum of Mulliken charges=   1.00000
 Electronic spatial extent (au):  <R**2>=  3403.6324
 Charge=     1.0000 electrons
 Dipole moment (field-independent basis, Debye):
    X=    -2.7114    Y=     9.4832    Z=    -1.8234  Tot=    10.0304
 Quadrupole moment (field-independent basis, Debye-Ang):
   XX=   -57.3719   YY=   -58.0783   ZZ=   -76.6006
   XY=   -21.2391   XZ=   -14.8578   YZ=    -0.1914
 Traceless Quadrupole moment (field-independent basis, Debye-Ang):
   XX=     6.6450   YY=     5.9387   ZZ=   -12.5837
   XY=   -21.2391   XZ=   -14.8578   YZ=    -0.1914
 Octapole moment (field-independent basis, Debye-Ang**2):
  XXX=  -184.8675  YYY=    72.9496  ZZZ=    -3.4155  XYY=    58.7488
  XXY=   100.9794  XXZ=     7.3604  XZZ=   -31.5831  YZZ=    10.2294
  YYZ=   -18.8423  XYZ=   -24.7634
 Hexadecapole moment (field-independent basis, Debye-Ang**3):
 XXXX= -2700.5342 YYYY=  -537.2205 ZZZZ=  -231.5647 XXXY=  -486.9369
 XXXZ=  -342.3223 YYYX=   -36.1489 YYYZ=    -9.8921 ZZZX=   -33.6920
 ZZZY=     1.6685 XXYY=  -740.3231 XXZZ=  -582.4125 YYZZ=  -131.6432
 XXYZ=    22.3867 YYXZ=     6.1610 ZZXY=    -6.6336
 N-N= 9.143235944611D+02 E-N=-8.329369028428D+03  KE= 2.742134852234D+03
 Merz-Kollman atomic radii used.
 Read replacement radii for each type of atom:
 Rad(20) =   1.188000000000D+00
 Atom Element Radius
    1     8    1.40
    2    15    1.80
    3     8    1.40
    4     8    1.40
    5    20    1.19
    6     8    1.40
    7    20    1.19
    8     8    1.40
    9    20    1.19

 **********************************************************************

            Electrostatic Properties Using The SCF Density

 **********************************************************************

       Atomic Center    1 is at   4.287980 -0.047539  1.208280
       Atomic Center    2 is at   3.535690 -0.745729  0.139370
       Atomic Center    3 is at   2.030840  0.052830  0.114530
       Atomic Center    4 is at   1.217310 -0.329730 -1.089480
       Atomic Center    5 is at  -0.948130 -1.297830 -0.433800
       Atomic Center    6 is at  -2.996460 -1.624471  0.163380
       Atomic Center    7 is at  -3.497760  0.406569  0.572680
       Atomic Center    8 is at  -1.403211  1.006380  0.000000
       Atomic Center    9 is at   0.539539  1.827570 -0.402090
     924 points will be used for fitting atomic charges
 Fitting point charges to eletrostatic potential
 Charges from ESP fit, RMS=   0.00547 RRMS=   0.03657:
 Charge=   1.00000 Dipole=    -3.2845     9.7613    -1.8749 Tot=    10.4683
              1
     1  O   -0.399553
     2  P    0.617871
     3  O   -0.352126
     4  O   -0.706487
     5  Ca   1.703999
     6  O   -1.493774
     7  Ca   1.641854
     8  O   -1.703119
     9  Ca   1.691335
 -----------------------------------------------------------------

              Electrostatic Properties (Atomic Units)

 -----------------------------------------------------------------
    Center     Electric         -------- Electric Field --------
               Potential          X             Y             Z
 -----------------------------------------------------------------
    1 Atom    -22.179658
    2 Atom    -53.903725
    3 Atom    -22.103025
    4 Atom    -22.165179
    5 Atom    -80.086158
    6 Atom    -22.360385
    7 Atom    -80.073575
    8 Atom    -22.291298
    9 Atom    -80.008746
 -----------------------------------------------------------------
 1\1\GINC-N030\SP\RB3LYP\6-31+G(d,p)\Ca3O5P1(1+)\TIMN\12-Jun-2015\0\\# 
 b3lyp/6-31+G(d,p) int=ultrafine pop=(ReadRadii,MK)\\mol_17.23.41.pdbc_
 plusQ.z58242.zip.xyz\\1,1\O,0,4.28798,-0.04754,1.20828\P,0,3.53569,-0.
 74573,0.13937\O,0,2.03084,0.05283,0.11453\O,0,1.21731,-0.32973,-1.0894
 8\Ca,0,-0.94813,-1.29783,-0.4338\O,0,-2.99646,-1.62447,0.16338\Ca,0,-3
 .49776,0.40657,0.57268\O,0,-1.40321,1.00638,0.\Ca,0,0.53954,1.82757,-0
 .40209\\Version=EM64T-G03RevE.01\State=1-A\HF=-2750.0891588\RMSD=7.855
 e-05\Thermal=0.\Dipole=-1.0667617,3.7309863,-0.7173967\PG=C01 [X(Ca3O5
 P1)]\\@


 YOU CANNOT THROW TO THE GROUND THE LETTERS OF
 THE GREEK ALPHABET AND PICK UP THE ILIAD.
        - RUFUS CHOATE, 1799-1859
 Job cpu time:  0 days  0 hours  2 minutes 26.0 seconds.
 File lengths (MBytes):  RWF=     36 Int=      0 D2E=      0 Chk=     11 Scr=      1
 Normal termination of Gaussian 03 at Fri Jun 12 17:53:52 2015.
