 Entering Gaussian System, Link 0=/home/timn/tmp/g03.e01/g03
 Input=mol_17.26.20.pdbcccc_plusQ.z58380.zip.xyz.gjf
 Output=mol_17.26.20.pdbcccc_plusQ.z58380.zip.xyz.out
 Initial command:
 /home/timn/tmp/g03.e01/l1.exe /home/timn/tmp/g03.e01/Gau-17376.inp -scrdir=/home/timn/tmp/g03.e01/
 Default is to use a total of   2 processors:
                                2 via shared-memory
                                1 via Linda
 Entering Link 1 = /home/timn/tmp/g03.e01/l1.exe PID=     17377.
  
 Copyright (c) 1988,1990,1992,1993,1995,1998,2003,2004,2007, Gaussian, Inc.
                  All Rights Reserved.
  
 This is the Gaussian(R) 03 program.  It is based on the
 the Gaussian(R) 98 system (copyright 1998, Gaussian, Inc.),
 the Gaussian(R) 94 system (copyright 1995, Gaussian, Inc.),
 the Gaussian 92(TM) system (copyright 1992, Gaussian, Inc.),
 the Gaussian 90(TM) system (copyright 1990, Gaussian, Inc.),
 the Gaussian 88(TM) system (copyright 1988, Gaussian, Inc.),
 the Gaussian 86(TM) system (copyright 1986, Carnegie Mellon
 University), and the Gaussian 82(TM) system (copyright 1983,
 Carnegie Mellon University). Gaussian is a federally registered
 trademark of Gaussian, Inc.
  
 This software contains proprietary and confidential information,
 including trade secrets, belonging to Gaussian, Inc.
  
 This software is provided under written license and may be
 used, copied, transmitted, or stored only in accord with that
 written license.
  
 The following legend is applicable only to US Government
 contracts under FAR:
  
                    RESTRICTED RIGHTS LEGEND
  
 Use, reproduction and disclosure by the US Government is
 subject to restrictions as set forth in subparagraphs (a)
 and (c) of the Commercial Computer Software - Restricted
 Rights clause in FAR 52.227-19.
  
 Gaussian, Inc.
 340 Quinnipiac St., Bldg. 40, Wallingford CT 06492
  
  
 ---------------------------------------------------------------
 Warning -- This program may not be used in any manner that
 competes with the business of Gaussian, Inc. or will provide
 assistance to any competitor of Gaussian, Inc.  The licensee
 of this program is prohibited from giving any competitor of
 Gaussian, Inc. access to this program.  By using this program,
 the user acknowledges that Gaussian, Inc. is engaged in the
 business of creating and licensing software in the field of
 computational chemistry and represents and warrants to the
 licensee that it is not a competitor of Gaussian, Inc. and that
 it will not use this program in any manner prohibited above.
 ---------------------------------------------------------------
  

 Cite this work as:
 Gaussian 03, Revision E.01,
 M. J. Frisch, G. W. Trucks, H. B. Schlegel, G. E. Scuseria, 
 M. A. Robb, J. R. Cheeseman, J. A. Montgomery, Jr., T. Vreven, 
 K. N. Kudin, J. C. Burant, J. M. Millam, S. S. Iyengar, J. Tomasi, 
 V. Barone, B. Mennucci, M. Cossi, G. Scalmani, N. Rega, 
 G. A. Petersson, H. Nakatsuji, M. Hada, M. Ehara, K. Toyota, 
 R. Fukuda, J. Hasegawa, M. Ishida, T. Nakajima, Y. Honda, O. Kitao, 
 H. Nakai, M. Klene, X. Li, J. E. Knox, H. P. Hratchian, J. B. Cross, 
 V. Bakken, C. Adamo, J. Jaramillo, R. Gomperts, R. E. Stratmann, 
 O. Yazyev, A. J. Austin, R. Cammi, C. Pomelli, J. W. Ochterski, 
 P. Y. Ayala, K. Morokuma, G. A. Voth, P. Salvador, J. J. Dannenberg, 
 V. G. Zakrzewski, S. Dapprich, A. D. Daniels, M. C. Strain, 
 O. Farkas, D. K. Malick, A. D. Rabuck, K. Raghavachari, 
 J. B. Foresman, J. V. Ortiz, Q. Cui, A. G. Baboul, S. Clifford, 
 J. Cioslowski, B. B. Stefanov, G. Liu, A. Liashenko, P. Piskorz, 
 I. Komaromi, R. L. Martin, D. J. Fox, T. Keith, M. A. Al-Laham, 
 C. Y. Peng, A. Nanayakkara, M. Challacombe, P. M. W. Gill, 
 B. Johnson, W. Chen, M. W. Wong, C. Gonzalez, and J. A. Pople, 
 Gaussian, Inc., Wallingford CT, 2004.
 
 ******************************************
 Gaussian 03:  EM64T-G03RevE.01 11-Sep-2007
                12-Jun-2015 
 ******************************************
 %nproc=2
 Will use up to    2 processors via shared memory.
 Default route:  MP2=Direct MaxDisk=2000MB
 ----------------------------------------------------
 # b3lyp/6-31+G(d,p) int=ultrafine pop=(ReadRadii,MK)
 ----------------------------------------------------

 Warning!  SCF SP cutoffs with diffuse functions may be unreliable.
 Consider SCF=Tight

 1/38=1/1;
 2/17=6,18=5,40=1/2;
 3/5=1,6=6,7=111,11=2,16=1,25=1,30=1,74=-5,75=5/1,2,3;
 4//1;
 5/5=2,32=1,38=5/2;
 6/7=2,8=2,9=2,10=2,15=8,20=101,28=1/1,2;
 99/5=1,9=1/99;
 -----------------------------------------
 mol_17.26.20.pdbcccc_plusQ.z58380.zip.xyz
 -----------------------------------------
 Symbolic Z-matrix:
 Charge =  1 Multiplicity = 1
 O                     1.68745  -1.0441   -0.02967 
 O                     3.58851   0.53471   0.03261 
 O                    -2.77966  -1.0579    0.79176 
 O                    -2.79543  -1.05247  -0.77718 
 Ca                   -2.87008   1.03809   0.01541 
 O                    -0.62418   1.10602  -0.00639 
 Ca                    1.48206   1.56993  -0.01911 
 P                     3.24946  -0.96653   0.01866 
 Ca                   -0.67975  -1.27763  -0.01475 
 
                          Input orientation:                          
 ---------------------------------------------------------------------
 Center     Atomic     Atomic              Coordinates (Angstroms)
 Number     Number      Type              X           Y           Z
 ---------------------------------------------------------------------
    1          8             0        1.687450   -1.044100   -0.029670
    2          8             0        3.588510    0.534710    0.032610
    3          8             0       -2.779660   -1.057900    0.791760
    4          8             0       -2.795430   -1.052470   -0.777180
    5         20             0       -2.870080    1.038090    0.015410
    6          8             0       -0.624180    1.106020   -0.006390
    7         20             0        1.482060    1.569930   -0.019110
    8         15             0        3.249460   -0.966530    0.018660
    9         20             0       -0.679750   -1.277630   -0.014750
 ---------------------------------------------------------------------
                    Distance matrix (angstroms):
                    1          2          3          4          5
     1  O    0.000000
     2  O    2.471952   0.000000
     3  O    4.542027   6.608048   0.000000
     4  O    4.544783   6.627940   1.569029   0.000000
     5  Ca   5.010851   6.478200   2.236978   2.237010   0.000000
     6  O    3.157086   4.251432   3.156848   3.157138   2.247033
     7  Ca   2.622108   2.347656   5.072007   5.074305   4.384651
     8  P    1.564681   1.539114   6.079171   6.097659   6.439509
     9  Ca   2.378738   4.637334   2.260169   2.260110   3.187635
                    6          7          8          9
     6  O    0.000000
     7  Ca   2.156762   0.000000
     8  P    4.393311   3.091724   0.000000
     9  Ca   2.384312   3.575198   3.941648   0.000000
 Stoichiometry    Ca3O5P(1+)
 Framework group  C1[X(Ca3O5P)]
 Deg. of freedom    21
 Full point group                 C1
 Largest Abelian subgroup         C1      NOp   1
 Largest concise Abelian subgroup C1      NOp   1
                         Standard orientation:                         
 ---------------------------------------------------------------------
 Center     Atomic     Atomic              Coordinates (Angstroms)
 Number     Number      Type              X           Y           Z
 ---------------------------------------------------------------------
    1          8             0        1.687450   -1.044099   -0.029669
    2          8             0        3.588510    0.534712    0.032611
    3          8             0       -2.779660   -1.057900    0.791761
    4          8             0       -2.795430   -1.052470   -0.777179
    5         20             0       -2.870081    1.038090    0.015411
    6          8             0       -0.624181    1.106020   -0.006389
    7         20             0        1.482059    1.569931   -0.019109
    8         15             0        3.249460   -0.966528    0.018661
    9         20             0       -0.679750   -1.277630   -0.014749
 ---------------------------------------------------------------------
 Rotational constants (GHZ):      1.5191551      0.3922123      0.3195206
 Standard basis: 6-31+G(d,p) (6D, 7F)
 There are   199 symmetry adapted basis functions of A   symmetry.
 Integral buffers will be    131072 words long.
 Raffenetti 2 integral format.
 Two-electron integral symmetry is turned on.
   199 basis functions,   456 primitive gaussians,   199 cartesian basis functions
    57 alpha electrons       57 beta electrons
       nuclear repulsion energy       956.5172920393 Hartrees.
 NAtoms=    9 NActive=    9 NUniq=    9 SFac= 7.50D-01 NAtFMM=   80 NAOKFM=F Big=F
 One-electron integrals computed using PRISM.
 NBasis=   199 RedAO= T  NBF=   199
 NBsUse=   199 1.00D-06 NBFU=   199
 Harris functional with IExCor=  402 diagonalized for initial guess.
 ExpMin= 7.10D-03 ExpMax= 3.53D+04 ExpMxC= 5.30D+03 IAcc=3 IRadAn=         5 AccDes= 0.00D+00
 HarFok:  IExCor= 402 AccDes= 0.00D+00 IRadAn=         5 IDoV=1
 ScaDFX=  1.000000  1.000000  1.000000  1.000000
 Initial guess orbital symmetries:
       Occupied  (A) (A) (A) (A) (A) (A) (A) (A) (A) (A) (A) (A)
                 (A) (A) (A) (A) (A) (A) (A) (A) (A) (A) (A) (A)
                 (A) (A) (A) (A) (A) (A) (A) (A) (A) (A) (A) (A)
                 (A) (A) (A) (A) (A) (A) (A) (A) (A) (A) (A) (A)
                 (A) (A) (A) (A) (A) (A) (A) (A) (A)
       Virtual   (A) (A) (A) (A) (A) (A) (A) (A) (A) (A) (A) (A)
                 (A) (A) (A) (A) (A) (A) (A) (A) (A) (A) (A) (A)
                 (A) (A) (A) (A) (A) (A) (A) (A) (A) (A) (A) (A)
                 (A) (A) (A) (A) (A) (A) (A) (A) (A) (A) (A) (A)
                 (A) (A) (A) (A) (A) (A) (A) (A) (A) (A) (A) (A)
                 (A) (A) (A) (A) (A) (A) (A) (A) (A) (A) (A) (A)
                 (A) (A) (A) (A) (A) (A) (A) (A) (A) (A) (A) (A)
                 (A) (A) (A) (A) (A) (A) (A) (A) (A) (A) (A) (A)
                 (A) (A) (A) (A) (A) (A) (A) (A) (A) (A) (A) (A)
                 (A) (A) (A) (A) (A) (A) (A) (A) (A) (A) (A) (A)
                 (A) (A) (A) (A) (A) (A) (A) (A) (A) (A) (A) (A)
                 (A) (A) (A) (A) (A) (A) (A) (A) (A) (A)
 The electronic state of the initial guess is 1-A.
 Requested convergence on RMS density matrix=1.00D-04 within 128 cycles.
 Requested convergence on MAX density matrix=1.00D-02.
 Requested convergence on             energy=1.00D-02.
 No special actions if energy rises.
 EnCoef did     2 forward-backward iterations
 SCF Done:  E(RB+HF-LYP) =  -2750.21057900     A.U. after    9 cycles
             Convg  =    0.7452D-04             -V/T =  2.0029
             S**2   =   0.0000

 **********************************************************************

            Population analysis using the SCF density.

 **********************************************************************

 Orbital symmetries:
       Occupied  (A) (A) (A) (A) (A) (A) (A) (A) (A) (A) (A) (A)
                 (A) (A) (A) (A) (A) (A) (A) (A) (A) (A) (A) (A)
                 (A) (A) (A) (A) (A) (A) (A) (A) (A) (A) (A) (A)
                 (A) (A) (A) (A) (A) (A) (A) (A) (A) (A) (A) (A)
                 (A) (A) (A) (A) (A) (A) (A) (A) (A)
       Virtual   (A) (A) (A) (A) (A) (A) (A) (A) (A) (A) (A) (A)
                 (A) (A) (A) (A) (A) (A) (A) (A) (A) (A) (A) (A)
                 (A) (A) (A) (A) (A) (A) (A) (A) (A) (A) (A) (A)
                 (A) (A) (A) (A) (A) (A) (A) (A) (A) (A) (A) (A)
                 (A) (A) (A) (A) (A) (A) (A) (A) (A) (A) (A) (A)
                 (A) (A) (A) (A) (A) (A) (A) (A) (A) (A) (A) (A)
                 (A) (A) (A) (A) (A) (A) (A) (A) (A) (A) (A) (A)
                 (A) (A) (A) (A) (A) (A) (A) (A) (A) (A) (A) (A)
                 (A) (A) (A) (A) (A) (A) (A) (A) (A) (A) (A) (A)
                 (A) (A) (A) (A) (A) (A) (A) (A) (A) (A) (A) (A)
                 (A) (A) (A) (A) (A) (A) (A) (A) (A) (A) (A) (A)
                 (A) (A) (A) (A) (A) (A) (A) (A) (A) (A)
 The electronic state is 1-A.
 Alpha  occ. eigenvalues -- -145.52565-145.47912-145.45929 -77.31431 -19.29693
 Alpha  occ. eigenvalues --  -19.28907 -19.20258 -19.20253 -19.17107 -15.59465
 Alpha  occ. eigenvalues --  -15.54780 -15.52792 -12.72730 -12.72687 -12.72485
 Alpha  occ. eigenvalues --  -12.67991 -12.67960 -12.67889 -12.66029 -12.65991
 Alpha  occ. eigenvalues --  -12.65877  -6.77031  -4.93461  -4.93236  -4.92817
 Alpha  occ. eigenvalues --   -1.96698  -1.92085  -1.90160  -1.24625  -1.24619
 Alpha  occ. eigenvalues --   -1.23586  -1.20510  -1.19694  -1.19282  -1.18008
 Alpha  occ. eigenvalues --   -1.17959  -1.17613  -1.15367  -1.09608  -1.02807
 Alpha  occ. eigenvalues --   -0.91885  -0.84035  -0.68623  -0.57627  -0.54916
 Alpha  occ. eigenvalues --   -0.54232  -0.46670  -0.45219  -0.43701  -0.42873
 Alpha  occ. eigenvalues --   -0.41969  -0.41274  -0.37538  -0.36633  -0.35926
 Alpha  occ. eigenvalues --   -0.30799  -0.29154
 Alpha virt. eigenvalues --   -0.21347  -0.20127  -0.17700  -0.14550  -0.13032
 Alpha virt. eigenvalues --   -0.11138  -0.10816  -0.10364  -0.09100  -0.08470
 Alpha virt. eigenvalues --   -0.07856  -0.07110  -0.06764  -0.06250  -0.05627
 Alpha virt. eigenvalues --   -0.05190  -0.04734  -0.04684  -0.04465  -0.04344
 Alpha virt. eigenvalues --   -0.04002  -0.03717  -0.03702  -0.03625  -0.03170
 Alpha virt. eigenvalues --   -0.02778  -0.02662  -0.02445  -0.01919  -0.00108
 Alpha virt. eigenvalues --    0.01314   0.02749   0.03367   0.03459   0.03666
 Alpha virt. eigenvalues --    0.04869   0.05029   0.05907   0.05968   0.06287
 Alpha virt. eigenvalues --    0.06565   0.07087   0.07275   0.08200   0.08729
 Alpha virt. eigenvalues --    0.09187   0.10292   0.10748   0.10896   0.11382
 Alpha virt. eigenvalues --    0.11456   0.13507   0.14989   0.15091   0.16481
 Alpha virt. eigenvalues --    0.17253   0.17694   0.19053   0.19829   0.20073
 Alpha virt. eigenvalues --    0.21510   0.22356   0.23438   0.24220   0.26694
 Alpha virt. eigenvalues --    0.27505   0.28817   0.30341   0.31200   0.31260
 Alpha virt. eigenvalues --    0.32414   0.33475   0.34886   0.36798   0.38058
 Alpha virt. eigenvalues --    0.40603   0.42565   0.45753   0.46782   0.52507
 Alpha virt. eigenvalues --    0.52894   0.54097   0.57475   0.60732   0.64078
 Alpha virt. eigenvalues --    0.65181   0.85582   0.92227   0.94271   1.05084
 Alpha virt. eigenvalues --    1.07290   1.07609   1.10982   1.12515   1.14708
 Alpha virt. eigenvalues --    1.16076   1.16257   1.17442   1.19995   1.20553
 Alpha virt. eigenvalues --    1.21651   1.22865   1.25499   1.28435   1.32398
 Alpha virt. eigenvalues --    1.37934   1.41049   1.48218   1.53329   1.54505
 Alpha virt. eigenvalues --    1.54817   1.63719   1.66319   1.68689   1.69445
 Alpha virt. eigenvalues --    1.72728   1.72967   1.76710   1.78352   1.80090
 Alpha virt. eigenvalues --    1.80379   1.83442   1.84221   1.85127   1.86553
 Alpha virt. eigenvalues --    1.89045   1.92098   1.95241   2.01459   2.05558
 Alpha virt. eigenvalues --    2.12233   2.21724   2.24061   2.51084   2.67668
 Alpha virt. eigenvalues --    3.06806   3.38663   3.85966   3.88088   3.95538
 Alpha virt. eigenvalues --    4.10909   4.14273
          Condensed to atoms (all electrons):
              1          2          3          4          5          6
     1  O    8.913787  -0.075251  -0.001499  -0.001638   0.005393  -0.012983
     2  O   -0.075251   8.556394   0.000006   0.000004   0.002385  -0.000380
     3  O   -0.001499   0.000006   8.485645  -0.030068   0.098455  -0.003845
     4  O   -0.001638   0.000004  -0.030068   8.485048   0.098462  -0.003532
     5  Ca   0.005393   0.002385   0.098455   0.098462  18.303199   0.108996
     6  O   -0.012983  -0.000380  -0.003845  -0.003532   0.108996   8.991807
     7  Ca   0.017699   0.077136  -0.000835  -0.001136  -0.013908   0.196269
     8  P   -0.143873   0.090245  -0.000233   0.000055  -0.012699  -0.008605
     9  Ca   0.037216   0.005370   0.106810   0.106781  -0.047358   0.055129
              7          8          9
     1  O    0.017699  -0.143873   0.037216
     2  O    0.077136   0.090245   0.005370
     3  O   -0.000835  -0.000233   0.106810
     4  O   -0.001136   0.000055   0.106781
     5  Ca  -0.013908  -0.012699  -0.047358
     6  O    0.196269  -0.008605   0.055129
     7  Ca  18.254135  -0.020123  -0.005154
     8  P   -0.020123  14.410639   0.004749
     9  Ca  -0.005154   0.004749  18.343263
 Mulliken atomic charges:
              1
     1  O   -0.738851
     2  O   -0.655909
     3  O   -0.654437
     4  O   -0.653977
     5  Ca   1.457074
     6  O   -1.322856
     7  Ca   1.495917
     8  P    0.679845
     9  Ca   1.393196
 Sum of Mulliken charges=   1.00000
 Atomic charges with hydrogens summed into heavy atoms:
              1
     1  O   -0.738851
     2  O   -0.655909
     3  O   -0.654437
     4  O   -0.653977
     5  Ca   1.457074
     6  O   -1.322856
     7  Ca   1.495917
     8  P    0.679845
     9  Ca   1.393196
 Sum of Mulliken charges=   1.00000
 Electronic spatial extent (au):  <R**2>=  2984.3703
 Charge=     1.0000 electrons
 Dipole moment (field-independent basis, Debye):
    X=     1.5412    Y=     9.0401    Z=    -0.1037  Tot=     9.1712
 Quadrupole moment (field-independent basis, Debye-Ang):
   XX=   -64.0534   YY=   -51.7260   ZZ=   -77.1281
   XY=   -21.8383   XZ=    -0.5392   YZ=    -0.0351
 Traceless Quadrupole moment (field-independent basis, Debye-Ang):
   XX=     0.2491   YY=    12.5765   ZZ=   -12.8256
   XY=   -21.8383   XZ=    -0.5392   YZ=    -0.0351
 Octapole moment (field-independent basis, Debye-Ang**2):
  XXX=   -94.8752  YYY=    45.6376  ZZZ=    -0.3929  XYY=     9.0487
  XXY=   118.4243  XXZ=    -0.3972  XZZ=     9.7320  YZZ=    10.9714
  YYZ=    -0.5299  XYZ=    -1.4781
 Hexadecapole moment (field-independent basis, Debye-Ang**3):
 XXXX= -2681.1012 YYYY=  -563.9546 ZZZZ=  -128.7738 XXXY=  -454.0991
 XXXZ=    -8.4989 YYYX=    22.3017 YYYZ=     0.0859 ZZZX=    -0.9385
 ZZZY=     0.2172 XXYY=  -492.1092 XXZZ=  -482.0092 YYZZ=  -129.7324
 XXYZ=    -0.0260 YYXZ=    -1.2598 ZZXY=   -17.0135
 N-N= 9.565172920393D+02 E-N=-8.414200545109D+03  KE= 2.742251276252D+03
 Merz-Kollman atomic radii used.
 Read replacement radii for each type of atom:
 Rad(20) =   1.188000000000D+00
 Atom Element Radius
    1     8    1.40
    2     8    1.40
    3     8    1.40
    4     8    1.40
    5    20    1.19
    6     8    1.40
    7    20    1.19
    8    15    1.80
    9    20    1.19

 **********************************************************************

            Electrostatic Properties Using The SCF Density

 **********************************************************************

       Atomic Center    1 is at   1.687450 -1.044099 -0.029669
       Atomic Center    2 is at   3.588510  0.534712  0.032611
       Atomic Center    3 is at  -2.779660 -1.057900  0.791761
       Atomic Center    4 is at  -2.795430 -1.052470 -0.777179
       Atomic Center    5 is at  -2.870081  1.038090  0.015411
       Atomic Center    6 is at  -0.624181  1.106020 -0.006389
       Atomic Center    7 is at   1.482059  1.569931 -0.019109
       Atomic Center    8 is at   3.249460 -0.966528  0.018661
       Atomic Center    9 is at  -0.679750 -1.277630 -0.014749
     880 points will be used for fitting atomic charges
 Fitting point charges to eletrostatic potential
 Charges from ESP fit, RMS=   0.00472 RRMS=   0.03211:
 Charge=   1.00000 Dipole=     1.5422     9.2275    -0.0928 Tot=     9.3559
              1
     1  O   -0.745738
     2  O   -0.661969
     3  O   -0.775413
     4  O   -0.776368
     5  Ca   1.699478
     6  O   -1.752244
     7  Ca   1.745941
     8  P    0.602193
     9  Ca   1.664120
 -----------------------------------------------------------------

              Electrostatic Properties (Atomic Units)

 -----------------------------------------------------------------
    Center     Electric         -------- Electric Field --------
               Potential          X             Y             Z
 -----------------------------------------------------------------
    1 Atom    -22.167446
    2 Atom    -22.177603
    3 Atom    -22.273283
    4 Atom    -22.273275
    5 Atom    -80.061989
    6 Atom    -22.293035
    7 Atom    -80.015373
    8 Atom    -53.901551
    9 Atom    -80.080913
 -----------------------------------------------------------------
 1\1\GINC-N028\SP\RB3LYP\6-31+G(d,p)\Ca3O5P1(1+)\TIMN\12-Jun-2015\0\\# 
 b3lyp/6-31+G(d,p) int=ultrafine pop=(ReadRadii,MK)\\mol_17.26.20.pdbcc
 cc_plusQ.z58380.zip.xyz\\1,1\O,0,1.68745,-1.0441,-0.02967\O,0,3.58851,
 0.53471,0.03261\O,0,-2.77966,-1.0579,0.79176\O,0,-2.79543,-1.05247,-0.
 77718\Ca,0,-2.87008,1.03809,0.01541\O,0,-0.62418,1.10602,-0.00639\Ca,0
 ,1.48206,1.56993,-0.01911\P,0,3.24946,-0.96653,0.01866\Ca,0,-0.67975,-
 1.27763,-0.01475\\Version=EM64T-G03RevE.01\State=1-A\HF=-2750.210579\R
 MSD=7.452e-05\Thermal=0.\Dipole=0.6063686,3.5566616,-0.0407822\PG=C01 
 [X(Ca3O5P1)]\\@


 This summer one third of the nation will be ill-housed
 ill-nourished and ill-clad. Only they call it a vacation.
 -- Jonas Salk
 Job cpu time:  0 days  0 hours  2 minutes  3.5 seconds.
 File lengths (MBytes):  RWF=     36 Int=      0 D2E=      0 Chk=     11 Scr=      1
 Normal termination of Gaussian 03 at Fri Jun 12 18:00:01 2015.
