 Entering Gaussian System, Link 0=/home/timn/tmp/g03.e01/g03
 Input=mol_17.26.33.pdbccc_plusQ.z58445.zip.xyz.gjf
 Output=mol_17.26.33.pdbccc_plusQ.z58445.zip.xyz.out
 Initial command:
 /home/timn/tmp/g03.e01/l1.exe /home/timn/tmp/g03.e01/Gau-19411.inp -scrdir=/home/timn/tmp/g03.e01/
 Default is to use a total of   2 processors:
                                2 via shared-memory
                                1 via Linda
 Entering Link 1 = /home/timn/tmp/g03.e01/l1.exe PID=     19412.
  
 Copyright (c) 1988,1990,1992,1993,1995,1998,2003,2004,2007, Gaussian, Inc.
                  All Rights Reserved.
  
 This is the Gaussian(R) 03 program.  It is based on the
 the Gaussian(R) 98 system (copyright 1998, Gaussian, Inc.),
 the Gaussian(R) 94 system (copyright 1995, Gaussian, Inc.),
 the Gaussian 92(TM) system (copyright 1992, Gaussian, Inc.),
 the Gaussian 90(TM) system (copyright 1990, Gaussian, Inc.),
 the Gaussian 88(TM) system (copyright 1988, Gaussian, Inc.),
 the Gaussian 86(TM) system (copyright 1986, Carnegie Mellon
 University), and the Gaussian 82(TM) system (copyright 1983,
 Carnegie Mellon University). Gaussian is a federally registered
 trademark of Gaussian, Inc.
  
 This software contains proprietary and confidential information,
 including trade secrets, belonging to Gaussian, Inc.
  
 This software is provided under written license and may be
 used, copied, transmitted, or stored only in accord with that
 written license.
  
 The following legend is applicable only to US Government
 contracts under FAR:
  
                    RESTRICTED RIGHTS LEGEND
  
 Use, reproduction and disclosure by the US Government is
 subject to restrictions as set forth in subparagraphs (a)
 and (c) of the Commercial Computer Software - Restricted
 Rights clause in FAR 52.227-19.
  
 Gaussian, Inc.
 340 Quinnipiac St., Bldg. 40, Wallingford CT 06492
  
  
 ---------------------------------------------------------------
 Warning -- This program may not be used in any manner that
 competes with the business of Gaussian, Inc. or will provide
 assistance to any competitor of Gaussian, Inc.  The licensee
 of this program is prohibited from giving any competitor of
 Gaussian, Inc. access to this program.  By using this program,
 the user acknowledges that Gaussian, Inc. is engaged in the
 business of creating and licensing software in the field of
 computational chemistry and represents and warrants to the
 licensee that it is not a competitor of Gaussian, Inc. and that
 it will not use this program in any manner prohibited above.
 ---------------------------------------------------------------
  

 Cite this work as:
 Gaussian 03, Revision E.01,
 M. J. Frisch, G. W. Trucks, H. B. Schlegel, G. E. Scuseria, 
 M. A. Robb, J. R. Cheeseman, J. A. Montgomery, Jr., T. Vreven, 
 K. N. Kudin, J. C. Burant, J. M. Millam, S. S. Iyengar, J. Tomasi, 
 V. Barone, B. Mennucci, M. Cossi, G. Scalmani, N. Rega, 
 G. A. Petersson, H. Nakatsuji, M. Hada, M. Ehara, K. Toyota, 
 R. Fukuda, J. Hasegawa, M. Ishida, T. Nakajima, Y. Honda, O. Kitao, 
 H. Nakai, M. Klene, X. Li, J. E. Knox, H. P. Hratchian, J. B. Cross, 
 V. Bakken, C. Adamo, J. Jaramillo, R. Gomperts, R. E. Stratmann, 
 O. Yazyev, A. J. Austin, R. Cammi, C. Pomelli, J. W. Ochterski, 
 P. Y. Ayala, K. Morokuma, G. A. Voth, P. Salvador, J. J. Dannenberg, 
 V. G. Zakrzewski, S. Dapprich, A. D. Daniels, M. C. Strain, 
 O. Farkas, D. K. Malick, A. D. Rabuck, K. Raghavachari, 
 J. B. Foresman, J. V. Ortiz, Q. Cui, A. G. Baboul, S. Clifford, 
 J. Cioslowski, B. B. Stefanov, G. Liu, A. Liashenko, P. Piskorz, 
 I. Komaromi, R. L. Martin, D. J. Fox, T. Keith, M. A. Al-Laham, 
 C. Y. Peng, A. Nanayakkara, M. Challacombe, P. M. W. Gill, 
 B. Johnson, W. Chen, M. W. Wong, C. Gonzalez, and J. A. Pople, 
 Gaussian, Inc., Wallingford CT, 2004.
 
 ******************************************
 Gaussian 03:  EM64T-G03RevE.01 11-Sep-2007
                12-Jun-2015 
 ******************************************
 %nproc=2
 Will use up to    2 processors via shared memory.
 Default route:  MP2=Direct MaxDisk=2000MB
 ----------------------------------------------------
 # b3lyp/6-31+G(d,p) int=ultrafine pop=(ReadRadii,MK)
 ----------------------------------------------------

 Warning!  SCF SP cutoffs with diffuse functions may be unreliable.
 Consider SCF=Tight

 1/38=1/1;
 2/17=6,18=5,40=1/2;
 3/5=1,6=6,7=111,11=2,16=1,25=1,30=1,74=-5,75=5/1,2,3;
 4//1;
 5/5=2,32=1,38=5/2;
 6/7=2,8=2,9=2,10=2,15=8,20=101,28=1/1,2;
 99/5=1,9=1/99;
 ----------------------------------------
 mol_17.26.33.pdbccc_plusQ.z58445.zip.xyz
 ----------------------------------------
 Symbolic Z-matrix:
 Charge =  1 Multiplicity = 1
 O                    -1.23738   1.28526  -0.44093 
 O                    -1.23758  -1.28491  -0.44182 
 O                     0.60765  -0.00044   1.52194 
 O                     2.06753  -0.0002    1.10404 
 Ca                    1.05444  -1.67188  -0.13855 
 O                     0.59067   0.00052  -1.6562 
 P                    -1.06472   0.0005   -1.53103 
 Ca                    1.05423   1.67196  -0.13756 
 Ca                   -1.62648  -0.00055   1.38957 
 
                          Input orientation:                          
 ---------------------------------------------------------------------
 Center     Atomic     Atomic              Coordinates (Angstroms)
 Number     Number      Type              X           Y           Z
 ---------------------------------------------------------------------
    1          8             0       -1.237380    1.285260   -0.440930
    2          8             0       -1.237580   -1.284910   -0.441820
    3          8             0        0.607650   -0.000440    1.521940
    4          8             0        2.067530   -0.000200    1.104040
    5         20             0        1.054440   -1.671880   -0.138550
    6          8             0        0.590670    0.000520   -1.656200
    7         15             0       -1.064720    0.000500   -1.531030
    8         20             0        1.054230    1.671960   -0.137560
    9         20             0       -1.626480   -0.000550    1.389570
 ---------------------------------------------------------------------
                    Distance matrix (angstroms):
                    1          2          3          4          5
     1  O    0.000000
     2  O    2.570170   0.000000
     3  O    2.984965   2.985145   0.000000
     4  O    3.868045   3.868322   1.518516   0.000000
     5  Ca   3.753472   2.344157   2.398033   2.316224   0.000000
     6  O    2.543463   2.543530   3.178186   3.130502   2.305486
     7  P    1.693735   1.693676   3.481013   4.093236   3.037547
     8  Ca   2.343725   3.753405   2.397977   2.316132   3.343840
     9  Ca   2.270559   2.270421   2.238048   3.705029   3.509391
                    6          7          8          9
     6  O    0.000000
     7  P    1.660116   0.000000
     8  Ca   2.305400   3.037349   0.000000
     9  Ca   3.767289   2.974135   3.509362   0.000000
 Stoichiometry    Ca3O5P(1+)
 Framework group  C1[X(Ca3O5P)]
 Deg. of freedom    21
 Full point group                 C1
 Largest Abelian subgroup         C1      NOp   1
 Largest concise Abelian subgroup C1      NOp   1
                         Standard orientation:                         
 ---------------------------------------------------------------------
 Center     Atomic     Atomic              Coordinates (Angstroms)
 Number     Number      Type              X           Y           Z
 ---------------------------------------------------------------------
    1          8             0       -1.237376    1.285266   -0.440930
    2          8             0       -1.237586   -1.284904   -0.441820
    3          8             0        0.607649   -0.000442    1.521940
    4          8             0        2.067529   -0.000208    1.104040
    5         20             0        1.054432   -1.671884   -0.138550
    6          8             0        0.590669    0.000518   -1.656200
    7         15             0       -1.064721    0.000505   -1.531030
    8         20             0        1.054236    1.671956   -0.137560
    9         20             0       -1.626481   -0.000543    1.389570
 ---------------------------------------------------------------------
 Rotational constants (GHZ):      0.9461354      0.8198175      0.7961315
 Standard basis: 6-31+G(d,p) (6D, 7F)
 There are   199 symmetry adapted basis functions of A   symmetry.
 Integral buffers will be    131072 words long.
 Raffenetti 2 integral format.
 Two-electron integral symmetry is turned on.
   199 basis functions,   456 primitive gaussians,   199 cartesian basis functions
    57 alpha electrons       57 beta electrons
       nuclear repulsion energy      1104.8973590197 Hartrees.
 NAtoms=    9 NActive=    9 NUniq=    9 SFac= 7.50D-01 NAtFMM=   80 NAOKFM=F Big=F
 One-electron integrals computed using PRISM.
 NBasis=   199 RedAO= T  NBF=   199
 NBsUse=   199 1.00D-06 NBFU=   199
 Harris functional with IExCor=  402 diagonalized for initial guess.
 ExpMin= 7.10D-03 ExpMax= 3.53D+04 ExpMxC= 5.30D+03 IAcc=3 IRadAn=         5 AccDes= 0.00D+00
 HarFok:  IExCor= 402 AccDes= 0.00D+00 IRadAn=         5 IDoV=1
 ScaDFX=  1.000000  1.000000  1.000000  1.000000
 Initial guess orbital symmetries:
       Occupied  (A) (A) (A) (A) (A) (A) (A) (A) (A) (A) (A) (A)
                 (A) (A) (A) (A) (A) (A) (A) (A) (A) (A) (A) (A)
                 (A) (A) (A) (A) (A) (A) (A) (A) (A) (A) (A) (A)
                 (A) (A) (A) (A) (A) (A) (A) (A) (A) (A) (A) (A)
                 (A) (A) (A) (A) (A) (A) (A) (A) (A)
       Virtual   (A) (A) (A) (A) (A) (A) (A) (A) (A) (A) (A) (A)
                 (A) (A) (A) (A) (A) (A) (A) (A) (A) (A) (A) (A)
                 (A) (A) (A) (A) (A) (A) (A) (A) (A) (A) (A) (A)
                 (A) (A) (A) (A) (A) (A) (A) (A) (A) (A) (A) (A)
                 (A) (A) (A) (A) (A) (A) (A) (A) (A) (A) (A) (A)
                 (A) (A) (A) (A) (A) (A) (A) (A) (A) (A) (A) (A)
                 (A) (A) (A) (A) (A) (A) (A) (A) (A) (A) (A) (A)
                 (A) (A) (A) (A) (A) (A) (A) (A) (A) (A) (A) (A)
                 (A) (A) (A) (A) (A) (A) (A) (A) (A) (A) (A) (A)
                 (A) (A) (A) (A) (A) (A) (A) (A) (A) (A) (A) (A)
                 (A) (A) (A) (A) (A) (A) (A) (A) (A) (A) (A) (A)
                 (A) (A) (A) (A) (A) (A) (A) (A) (A) (A)
 The electronic state of the initial guess is 1-A.
 Requested convergence on RMS density matrix=1.00D-04 within 128 cycles.
 Requested convergence on MAX density matrix=1.00D-02.
 Requested convergence on             energy=1.00D-02.
 No special actions if energy rises.
 SCF Done:  E(RB+HF-LYP) =  -2750.24881795     A.U. after    7 cycles
             Convg  =    0.5385D-04             -V/T =  2.0029
             S**2   =   0.0000

 **********************************************************************

            Population analysis using the SCF density.

 **********************************************************************

 Orbital symmetries:
       Occupied  (A) (A) (A) (A) (A) (A) (A) (A) (A) (A) (A) (A)
                 (A) (A) (A) (A) (A) (A) (A) (A) (A) (A) (A) (A)
                 (A) (A) (A) (A) (A) (A) (A) (A) (A) (A) (A) (A)
                 (A) (A) (A) (A) (A) (A) (A) (A) (A) (A) (A) (A)
                 (A) (A) (A) (A) (A) (A) (A) (A) (A)
       Virtual   (A) (A) (A) (A) (A) (A) (A) (A) (A) (A) (A) (A)
                 (A) (A) (A) (A) (A) (A) (A) (A) (A) (A) (A) (A)
                 (A) (A) (A) (A) (A) (A) (A) (A) (A) (A) (A) (A)
                 (A) (A) (A) (A) (A) (A) (A) (A) (A) (A) (A) (A)
                 (A) (A) (A) (A) (A) (A) (A) (A) (A) (A) (A) (A)
                 (A) (A) (A) (A) (A) (A) (A) (A) (A) (A) (A) (A)
                 (A) (A) (A) (A) (A) (A) (A) (A) (A) (A) (A) (A)
                 (A) (A) (A) (A) (A) (A) (A) (A) (A) (A) (A) (A)
                 (A) (A) (A) (A) (A) (A) (A) (A) (A) (A) (A) (A)
                 (A) (A) (A) (A) (A) (A) (A) (A) (A) (A) (A) (A)
                 (A) (A) (A) (A) (A) (A) (A) (A) (A) (A) (A) (A)
                 (A) (A) (A) (A) (A) (A) (A) (A) (A) (A)
 The electronic state is 1-A.
 Alpha  occ. eigenvalues -- -145.52380-145.50184-145.50176 -77.25153 -19.25911
 Alpha  occ. eigenvalues --  -19.25460 -19.21785 -19.21785 -19.21334 -15.59139
 Alpha  occ. eigenvalues --  -15.56982 -15.56976 -12.72327 -12.72322 -12.72297
 Alpha  occ. eigenvalues --  -12.70190 -12.70185 -12.70182 -12.70177 -12.70102
 Alpha  occ. eigenvalues --  -12.70097  -6.70242  -4.86596  -4.86587  -4.86027
 Alpha  occ. eigenvalues --   -1.96317  -1.94232  -1.94166  -1.24343  -1.23874
 Alpha  occ. eigenvalues --   -1.23776  -1.22783  -1.22078  -1.21719  -1.21643
 Alpha  occ. eigenvalues --   -1.21524  -1.21226  -1.10034  -1.07328  -1.00853
 Alpha  occ. eigenvalues --   -1.00733  -0.89076  -0.63093  -0.51344  -0.51078
 Alpha  occ. eigenvalues --   -0.50978  -0.49234  -0.48450  -0.46045  -0.43791
 Alpha  occ. eigenvalues --   -0.43558  -0.38834  -0.38642  -0.38611  -0.35300
 Alpha  occ. eigenvalues --   -0.33988  -0.31697
 Alpha virt. eigenvalues --   -0.20298  -0.18390  -0.17633  -0.12782  -0.12603
 Alpha virt. eigenvalues --   -0.10902  -0.09918  -0.09097  -0.08255  -0.07948
 Alpha virt. eigenvalues --   -0.07350  -0.06562  -0.06019  -0.05817  -0.04925
 Alpha virt. eigenvalues --   -0.04867  -0.04856  -0.04686  -0.04486  -0.04309
 Alpha virt. eigenvalues --   -0.04013  -0.03911  -0.03218  -0.02973  -0.02947
 Alpha virt. eigenvalues --   -0.02711  -0.01825  -0.00967   0.00847   0.01989
 Alpha virt. eigenvalues --    0.02248   0.03416   0.04334   0.04542   0.04866
 Alpha virt. eigenvalues --    0.05219   0.05245   0.06159   0.06287   0.07054
 Alpha virt. eigenvalues --    0.07072   0.07100   0.07501   0.07554   0.07793
 Alpha virt. eigenvalues --    0.08502   0.09367   0.10326   0.11202   0.11841
 Alpha virt. eigenvalues --    0.12315   0.14922   0.14936   0.16119   0.17402
 Alpha virt. eigenvalues --    0.18781   0.20646   0.21078   0.21099   0.23271
 Alpha virt. eigenvalues --    0.23558   0.23712   0.24623   0.25778   0.27281
 Alpha virt. eigenvalues --    0.27997   0.29798   0.31571   0.33554   0.33938
 Alpha virt. eigenvalues --    0.34432   0.36041   0.36683   0.38776   0.39285
 Alpha virt. eigenvalues --    0.41198   0.45566   0.46012   0.53542   0.54390
 Alpha virt. eigenvalues --    0.55426   0.62686   0.63188   0.63525   0.66207
 Alpha virt. eigenvalues --    0.81577   0.85404   0.90495   0.93104   0.99262
 Alpha virt. eigenvalues --    1.11600   1.11886   1.15492   1.16012   1.17641
 Alpha virt. eigenvalues --    1.18029   1.19908   1.19988   1.20440   1.22324
 Alpha virt. eigenvalues --    1.22901   1.27535   1.31242   1.33930   1.38914
 Alpha virt. eigenvalues --    1.45487   1.46503   1.49265   1.57014   1.58130
 Alpha virt. eigenvalues --    1.60025   1.64336   1.68038   1.71387   1.73206
 Alpha virt. eigenvalues --    1.76849   1.78167   1.78944   1.81322   1.84876
 Alpha virt. eigenvalues --    1.86382   1.87083   1.89497   1.90273   1.91252
 Alpha virt. eigenvalues --    1.92842   1.93662   1.99375   2.00500   2.11311
 Alpha virt. eigenvalues --    2.21665   2.24630   2.36584   2.52354   2.56770
 Alpha virt. eigenvalues --    3.07048   3.54033   4.03177   4.09914   4.14248
 Alpha virt. eigenvalues --    4.19214   4.32872
          Condensed to atoms (all electrons):
              1          2          3          4          5          6
     1  O    8.964753   0.043503   0.029634  -0.006638   0.004965   0.050175
     2  O    0.043503   8.964722   0.029640  -0.006639   0.060502   0.050146
     3  O    0.029634   0.029640   8.604473  -0.101015   0.038143   0.022335
     4  O   -0.006638  -0.006639  -0.101015   8.577654   0.104060   0.002050
     5  Ca   0.004965   0.060502   0.038143   0.104060  18.339352   0.065872
     6  O    0.050175   0.050146   0.022335   0.002050   0.065872   8.936297
     7  P   -0.177829  -0.177842  -0.024572   0.003294   0.017329  -0.171670
     8  Ca   0.060526   0.004986   0.038133   0.104052  -0.047884   0.065883
     9  Ca   0.074726   0.074748   0.088699  -0.033275  -0.045083   0.013814
              7          8          9
     1  O   -0.177829   0.060526   0.074726
     2  O   -0.177842   0.004986   0.074748
     3  O   -0.024572   0.038133   0.088699
     4  O    0.003294   0.104052  -0.033275
     5  Ca   0.017329  -0.047884  -0.045083
     6  O   -0.171670   0.065883   0.013814
     7  P   14.404452   0.017301   0.026361
     8  Ca   0.017301  18.339453  -0.045108
     9  Ca   0.026361  -0.045108  18.362198
 Mulliken atomic charges:
              1
     1  O   -1.043815
     2  O   -1.043766
     3  O   -0.725470
     4  O   -0.643542
     5  Ca   1.462745
     6  O   -1.034903
     7  P    1.083176
     8  Ca   1.462656
     9  Ca   1.482919
 Sum of Mulliken charges=   1.00000
 Atomic charges with hydrogens summed into heavy atoms:
              1
     1  O   -1.043815
     2  O   -1.043766
     3  O   -0.725470
     4  O   -0.643542
     5  Ca   1.462745
     6  O   -1.034903
     7  P    1.083176
     8  Ca   1.462656
     9  Ca   1.482919
 Sum of Mulliken charges=   1.00000
 Electronic spatial extent (au):  <R**2>=  1729.0358
 Charge=     1.0000 electrons
 Dipole moment (field-independent basis, Debye):
    X=     0.9429    Y=    -0.0041    Z=     6.2036  Tot=     6.2748
 Quadrupole moment (field-independent basis, Debye-Ang):
   XX=   -63.7050   YY=   -44.2105   ZZ=   -80.5499
   XY=     0.0064   XZ=   -28.3167   YZ=     0.0091
 Traceless Quadrupole moment (field-independent basis, Debye-Ang):
   XX=    -0.8832   YY=    18.6113   ZZ=   -17.7281
   XY=     0.0064   XZ=   -28.3167   YZ=     0.0091
 Octapole moment (field-independent basis, Debye-Ang**2):
  XXX=   -20.1382  YYY=    -0.0108  ZZZ=    45.2115  XYY=    73.8134
  XXY=    -0.0186  XXZ=    28.1782  XZZ=   -39.2303  YZZ=    -0.0141
  YYZ=     4.9006  XYZ=     0.0363
 Hexadecapole moment (field-independent basis, Debye-Ang**3):
 XXXX=  -745.7159 YYYY=  -401.3960 ZZZZ=  -674.2009 XXXY=     0.0324
 XXXZ=  -157.7763 YYYX=     0.0203 YYYZ=     0.0537 ZZZX=  -109.8532
 ZZZY=     0.0341 XXYY=  -182.3542 XXZZ=  -218.9312 YYZZ=  -189.7218
 XXYZ=     0.0065 YYXZ=   -34.9752 ZZXY=     0.0143
 N-N= 1.104897359020D+03 E-N=-8.710451064588D+03  KE= 2.742231411286D+03
 Merz-Kollman atomic radii used.
 Read replacement radii for each type of atom:
 Rad(20) =   1.188000000000D+00
 Atom Element Radius
    1     8    1.40
    2     8    1.40
    3     8    1.40
    4     8    1.40
    5    20    1.19
    6     8    1.40
    7    15    1.80
    8    20    1.19
    9    20    1.19

 **********************************************************************

            Electrostatic Properties Using The SCF Density

 **********************************************************************

       Atomic Center    1 is at  -1.237376  1.285266 -0.440930
       Atomic Center    2 is at  -1.237586 -1.284904 -0.441820
       Atomic Center    3 is at   0.607649 -0.000442  1.521940
       Atomic Center    4 is at   2.067529 -0.000208  1.104040
       Atomic Center    5 is at   1.054432 -1.671884 -0.138550
       Atomic Center    6 is at   0.590669  0.000518 -1.656200
       Atomic Center    7 is at  -1.064721  0.000505 -1.531030
       Atomic Center    8 is at   1.054236  1.671956 -0.137560
       Atomic Center    9 is at  -1.626481 -0.000543  1.389570
     741 points will be used for fitting atomic charges
 Fitting point charges to eletrostatic potential
 Charges from ESP fit, RMS=   0.00661 RRMS=   0.04152:
 Charge=   1.00000 Dipole=     0.8090    -0.0041     6.0210 Tot=     6.0751
              1
     1  O   -0.985391
     2  O   -0.985309
     3  O   -0.931295
     4  O   -0.691521
     5  Ca   1.675081
     6  O   -0.940771
     7  P    0.536188
     8  Ca   1.675112
     9  Ca   1.647907
 -----------------------------------------------------------------

              Electrostatic Properties (Atomic Units)

 -----------------------------------------------------------------
    Center     Electric         -------- Electric Field --------
               Potential          X             Y             Z
 -----------------------------------------------------------------
    1 Atom    -22.248567
    2 Atom    -22.248501
    3 Atom    -22.204665
    4 Atom    -22.216093
    5 Atom    -80.038948
    6 Atom    -22.248714
    7 Atom    -53.962550
    8 Atom    -80.039008
    9 Atom    -80.016331
 -----------------------------------------------------------------
 1\1\GINC-N027\SP\RB3LYP\6-31+G(d,p)\Ca3O5P1(1+)\TIMN\12-Jun-2015\0\\# 
 b3lyp/6-31+G(d,p) int=ultrafine pop=(ReadRadii,MK)\\mol_17.26.33.pdbcc
 c_plusQ.z58445.zip.xyz\\1,1\O,0,-1.23738,1.28526,-0.44093\O,0,-1.23758
 ,-1.28491,-0.44182\O,0,0.60765,-0.00044,1.52194\O,0,2.06753,-0.0002,1.
 10404\Ca,0,1.05444,-1.67188,-0.13855\O,0,0.59067,0.00052,-1.6562\P,0,-
 1.06472,0.0005,-1.53103\Ca,0,1.05423,1.67196,-0.13756\Ca,0,-1.62648,-0
 .00055,1.38957\\Version=EM64T-G03RevE.01\State=1-A\HF=-2750.2488179\RM
 SD=5.385e-05\Thermal=0.\Dipole=0.3709562,-0.0016188,2.4406854\PG=C01 [
 X(Ca3O5P1)]\\@


 Children are likely to live up to what you believe of them.
 -- Lady Bird Johnson
 Job cpu time:  0 days  0 hours  1 minutes 57.4 seconds.
 File lengths (MBytes):  RWF=     36 Int=      0 D2E=      0 Chk=     11 Scr=      1
 Normal termination of Gaussian 03 at Fri Jun 12 18:00:32 2015.
