 Entering Gaussian System, Link 0=/home/timn/tmp/g03.e01/g03
 Input=mol_16.4.12.pdbcc_plusQ.out.z51563.zip.xyz.gjf
 Output=mol_16.4.12.pdbcc_plusQ.out.z51563.zip.xyz.out
 Initial command:
 /home/timn/tmp/g03.e01/l1.exe /home/timn/tmp/g03.e01/Gau-12351.inp -scrdir=/home/timn/tmp/g03.e01/
 Default is to use a total of   2 processors:
                                2 via shared-memory
                                1 via Linda
 Entering Link 1 = /home/timn/tmp/g03.e01/l1.exe PID=     12352.
  
 Copyright (c) 1988,1990,1992,1993,1995,1998,2003,2004,2007, Gaussian, Inc.
                  All Rights Reserved.
  
 This is the Gaussian(R) 03 program.  It is based on the
 the Gaussian(R) 98 system (copyright 1998, Gaussian, Inc.),
 the Gaussian(R) 94 system (copyright 1995, Gaussian, Inc.),
 the Gaussian 92(TM) system (copyright 1992, Gaussian, Inc.),
 the Gaussian 90(TM) system (copyright 1990, Gaussian, Inc.),
 the Gaussian 88(TM) system (copyright 1988, Gaussian, Inc.),
 the Gaussian 86(TM) system (copyright 1986, Carnegie Mellon
 University), and the Gaussian 82(TM) system (copyright 1983,
 Carnegie Mellon University). Gaussian is a federally registered
 trademark of Gaussian, Inc.
  
 This software contains proprietary and confidential information,
 including trade secrets, belonging to Gaussian, Inc.
  
 This software is provided under written license and may be
 used, copied, transmitted, or stored only in accord with that
 written license.
  
 The following legend is applicable only to US Government
 contracts under FAR:
  
                    RESTRICTED RIGHTS LEGEND
  
 Use, reproduction and disclosure by the US Government is
 subject to restrictions as set forth in subparagraphs (a)
 and (c) of the Commercial Computer Software - Restricted
 Rights clause in FAR 52.227-19.
  
 Gaussian, Inc.
 340 Quinnipiac St., Bldg. 40, Wallingford CT 06492
  
  
 ---------------------------------------------------------------
 Warning -- This program may not be used in any manner that
 competes with the business of Gaussian, Inc. or will provide
 assistance to any competitor of Gaussian, Inc.  The licensee
 of this program is prohibited from giving any competitor of
 Gaussian, Inc. access to this program.  By using this program,
 the user acknowledges that Gaussian, Inc. is engaged in the
 business of creating and licensing software in the field of
 computational chemistry and represents and warrants to the
 licensee that it is not a competitor of Gaussian, Inc. and that
 it will not use this program in any manner prohibited above.
 ---------------------------------------------------------------
  

 Cite this work as:
 Gaussian 03, Revision E.01,
 M. J. Frisch, G. W. Trucks, H. B. Schlegel, G. E. Scuseria, 
 M. A. Robb, J. R. Cheeseman, J. A. Montgomery, Jr., T. Vreven, 
 K. N. Kudin, J. C. Burant, J. M. Millam, S. S. Iyengar, J. Tomasi, 
 V. Barone, B. Mennucci, M. Cossi, G. Scalmani, N. Rega, 
 G. A. Petersson, H. Nakatsuji, M. Hada, M. Ehara, K. Toyota, 
 R. Fukuda, J. Hasegawa, M. Ishida, T. Nakajima, Y. Honda, O. Kitao, 
 H. Nakai, M. Klene, X. Li, J. E. Knox, H. P. Hratchian, J. B. Cross, 
 V. Bakken, C. Adamo, J. Jaramillo, R. Gomperts, R. E. Stratmann, 
 O. Yazyev, A. J. Austin, R. Cammi, C. Pomelli, J. W. Ochterski, 
 P. Y. Ayala, K. Morokuma, G. A. Voth, P. Salvador, J. J. Dannenberg, 
 V. G. Zakrzewski, S. Dapprich, A. D. Daniels, M. C. Strain, 
 O. Farkas, D. K. Malick, A. D. Rabuck, K. Raghavachari, 
 J. B. Foresman, J. V. Ortiz, Q. Cui, A. G. Baboul, S. Clifford, 
 J. Cioslowski, B. B. Stefanov, G. Liu, A. Liashenko, P. Piskorz, 
 I. Komaromi, R. L. Martin, D. J. Fox, T. Keith, M. A. Al-Laham, 
 C. Y. Peng, A. Nanayakkara, M. Challacombe, P. M. W. Gill, 
 B. Johnson, W. Chen, M. W. Wong, C. Gonzalez, and J. A. Pople, 
 Gaussian, Inc., Wallingford CT, 2004.
 
 ******************************************
 Gaussian 03:  EM64T-G03RevE.01 11-Sep-2007
                12-Jun-2015 
 ******************************************
 %nproc=2
 Will use up to    2 processors via shared memory.
 Default route:  MP2=Direct MaxDisk=2000MB
 ----------------------------------------------------
 # b3lyp/6-31+G(d,p) int=ultrafine pop=(ReadRadii,MK)
 ----------------------------------------------------

 Warning!  SCF SP cutoffs with diffuse functions may be unreliable.
 Consider SCF=Tight

 1/38=1/1;
 2/17=6,18=5,40=1/2;
 3/5=1,6=6,7=111,11=2,16=1,25=1,30=1,74=-5,75=5/1,2,3;
 4//1;
 5/5=2,32=1,38=5/2;
 6/7=2,8=2,9=2,10=2,15=8,20=101,28=1/1,2;
 99/5=1,9=1/99;
 ------------------------------------------
 mol_16.4.12.pdbcc_plusQ.out.z51563.zip.xyz
 ------------------------------------------
 Symbolic Z-matrix:
 Charge =  1 Multiplicity = 1
 O                    -1.38143   1.46478  -0.00133 
 O                     1.38254   1.46237   0.00024 
 P                    -0.00021   0.7991    0.00009 
 O                     0.00031  -0.33122  -1.19629 
 O                    -0.00149  -0.32988   1.19757 
 Ca                    2.06988  -0.75268  -0.00008 
 Ca                   -2.06969  -0.75307  -0.00007 
 
                          Input orientation:                          
 ---------------------------------------------------------------------
 Center     Atomic     Atomic              Coordinates (Angstroms)
 Number     Number      Type              X           Y           Z
 ---------------------------------------------------------------------
    1          8             0       -1.381430    1.464780   -0.001330
    2          8             0        1.382540    1.462370    0.000240
    3         15             0       -0.000210    0.799100    0.000090
    4          8             0        0.000310   -0.331220   -1.196290
    5          8             0       -0.001490   -0.329880    1.197570
    6         20             0        2.069880   -0.752680   -0.000080
    7         20             0       -2.069690   -0.753070   -0.000070
 ---------------------------------------------------------------------
                    Distance matrix (angstroms):
                    1          2          3          4          5
     1  O    0.000000
     2  O    2.763971   0.000000
     3  P    1.533265   1.533599   0.000000
     4  O    2.561787   2.561095   1.645888   0.000000
     5  O    2.561718   2.561503   1.645769   2.393861   0.000000
     6  Ca   4.102276   2.319242   2.587140   2.427276   2.429753
     7  Ca   2.322189   4.101959   2.586886   2.427715   2.427114
                    6          7
     6  Ca   0.000000
     7  Ca   4.139570   0.000000
 Stoichiometry    Ca2O4P(1+)
 Framework group  C1[X(Ca2O4P)]
 Deg. of freedom    15
 Full point group                 C1
 Largest Abelian subgroup         C1      NOp   1
 Largest concise Abelian subgroup C1      NOp   1
                         Standard orientation:                         
 ---------------------------------------------------------------------
 Center     Atomic     Atomic              Coordinates (Angstroms)
 Number     Number      Type              X           Y           Z
 ---------------------------------------------------------------------
    1          8             0       -1.381429    1.464784   -0.001329
    2          8             0        1.382541    1.462369    0.000241
    3         15             0       -0.000210    0.799101    0.000091
    4          8             0        0.000308   -0.331219   -1.196289
    5          8             0       -0.001492   -0.329879    1.197571
    6         20             0        2.069878   -0.752682   -0.000079
    7         20             0       -2.069692   -0.753065   -0.000069
 ---------------------------------------------------------------------
 Rotational constants (GHZ):      2.7627321      1.1247462      0.9348580
 Standard basis: 6-31+G(d,p) (6D, 7F)
 There are   153 symmetry adapted basis functions of A   symmetry.
 Integral buffers will be    131072 words long.
 Raffenetti 2 integral format.
 Two-electron integral symmetry is turned on.
   153 basis functions,   344 primitive gaussians,   153 cartesian basis functions
    43 alpha electrons       43 beta electrons
       nuclear repulsion energy       666.8765161148 Hartrees.
 NAtoms=    7 NActive=    7 NUniq=    7 SFac= 7.50D-01 NAtFMM=   80 NAOKFM=F Big=F
 One-electron integrals computed using PRISM.
 NBasis=   153 RedAO= T  NBF=   153
 NBsUse=   153 1.00D-06 NBFU=   153
 Harris functional with IExCor=  402 diagonalized for initial guess.
 ExpMin= 7.10D-03 ExpMax= 3.53D+04 ExpMxC= 5.30D+03 IAcc=3 IRadAn=         5 AccDes= 0.00D+00
 HarFok:  IExCor= 402 AccDes= 0.00D+00 IRadAn=         5 IDoV=1
 ScaDFX=  1.000000  1.000000  1.000000  1.000000
 Initial guess orbital symmetries:
       Occupied  (A) (A) (A) (A) (A) (A) (A) (A) (A) (A) (A) (A)
                 (A) (A) (A) (A) (A) (A) (A) (A) (A) (A) (A) (A)
                 (A) (A) (A) (A) (A) (A) (A) (A) (A) (A) (A) (A)
                 (A) (A) (A) (A) (A) (A) (A)
       Virtual   (A) (A) (A) (A) (A) (A) (A) (A) (A) (A) (A) (A)
                 (A) (A) (A) (A) (A) (A) (A) (A) (A) (A) (A) (A)
                 (A) (A) (A) (A) (A) (A) (A) (A) (A) (A) (A) (A)
                 (A) (A) (A) (A) (A) (A) (A) (A) (A) (A) (A) (A)
                 (A) (A) (A) (A) (A) (A) (A) (A) (A) (A) (A) (A)
                 (A) (A) (A) (A) (A) (A) (A) (A) (A) (A) (A) (A)
                 (A) (A) (A) (A) (A) (A) (A) (A) (A) (A) (A) (A)
                 (A) (A) (A) (A) (A) (A) (A) (A) (A) (A) (A) (A)
                 (A) (A) (A) (A) (A) (A) (A) (A) (A) (A) (A) (A)
                 (A) (A)
 The electronic state of the initial guess is 1-A.
 Requested convergence on RMS density matrix=1.00D-04 within 128 cycles.
 Requested convergence on MAX density matrix=1.00D-02.
 Requested convergence on             energy=1.00D-02.
 No special actions if energy rises.
 SCF Done:  E(RB+HF-LYP) =  -1997.39007761     A.U. after    8 cycles
             Convg  =    0.1194D-04             -V/T =  2.0031
             S**2   =   0.0000

 **********************************************************************

            Population analysis using the SCF density.

 **********************************************************************

 Orbital symmetries:
       Occupied  (A) (A) (A) (A) (A) (A) (A) (A) (A) (A) (A) (A)
                 (A) (A) (A) (A) (A) (A) (A) (A) (A) (A) (A) (A)
                 (A) (A) (A) (A) (A) (A) (A) (A) (A) (A) (A) (A)
                 (A) (A) (A) (A) (A) (A) (A)
       Virtual   (A) (A) (A) (A) (A) (A) (A) (A) (A) (A) (A) (A)
                 (A) (A) (A) (A) (A) (A) (A) (A) (A) (A) (A) (A)
                 (A) (A) (A) (A) (A) (A) (A) (A) (A) (A) (A) (A)
                 (A) (A) (A) (A) (A) (A) (A) (A) (A) (A) (A) (A)
                 (A) (A) (A) (A) (A) (A) (A) (A) (A) (A) (A) (A)
                 (A) (A) (A) (A) (A) (A) (A) (A) (A) (A) (A) (A)
                 (A) (A) (A) (A) (A) (A) (A) (A) (A) (A) (A) (A)
                 (A) (A) (A) (A) (A) (A) (A) (A) (A) (A) (A) (A)
                 (A) (A) (A) (A) (A) (A) (A) (A) (A) (A) (A) (A)
                 (A) (A)
 The electronic state is 1-A.
 Alpha  occ. eigenvalues -- -145.57693-145.57683 -77.31329 -19.22628 -19.22593
 Alpha  occ. eigenvalues --  -19.22312 -19.22267 -15.64395 -15.64385 -12.77594
 Alpha  occ. eigenvalues --  -12.77585 -12.77582 -12.77580 -12.77572 -12.77570
 Alpha  occ. eigenvalues --   -6.76050  -4.92398  -4.92391  -4.92315  -2.01223
 Alpha  occ. eigenvalues --   -2.01212  -1.29331  -1.28816  -1.28436  -1.28436
 Alpha  occ. eigenvalues --   -1.28380  -1.28332  -1.12992  -1.05497  -1.03665
 Alpha  occ. eigenvalues --   -1.01684  -0.62398  -0.53176  -0.53145  -0.52459
 Alpha  occ. eigenvalues --   -0.45693  -0.45589  -0.45186  -0.42427  -0.40460
 Alpha  occ. eigenvalues --   -0.39280  -0.37994  -0.35882
 Alpha virt. eigenvalues --   -0.23652  -0.22441  -0.14867  -0.13485  -0.12799
 Alpha virt. eigenvalues --   -0.12505  -0.10777  -0.08513  -0.07909  -0.06634
 Alpha virt. eigenvalues --   -0.05355  -0.05333  -0.04645  -0.04455  -0.04312
 Alpha virt. eigenvalues --   -0.03597  -0.02865  -0.01981  -0.01522  -0.00806
 Alpha virt. eigenvalues --    0.00094   0.00401   0.01146   0.02148   0.02469
 Alpha virt. eigenvalues --    0.02608   0.02881   0.03018   0.03636   0.04699
 Alpha virt. eigenvalues --    0.05028   0.05162   0.06596   0.07256   0.08290
 Alpha virt. eigenvalues --    0.08753   0.11361   0.12093   0.14129   0.14921
 Alpha virt. eigenvalues --    0.15689   0.15782   0.17403   0.17727   0.17931
 Alpha virt. eigenvalues --    0.19668   0.21599   0.22269   0.24360   0.27089
 Alpha virt. eigenvalues --    0.27900   0.29856   0.31741   0.32169   0.32429
 Alpha virt. eigenvalues --    0.35801   0.40322   0.42916   0.44632   0.50841
 Alpha virt. eigenvalues --    0.53417   0.56525   0.57002   0.64788   0.70054
 Alpha virt. eigenvalues --    0.79475   0.90056   0.98086   0.98313   1.10000
 Alpha virt. eigenvalues --    1.12194   1.12836   1.14688   1.16001   1.18959
 Alpha virt. eigenvalues --    1.20110   1.24884   1.24921   1.25843   1.26351
 Alpha virt. eigenvalues --    1.29044   1.44363   1.48585   1.54142   1.68281
 Alpha virt. eigenvalues --    1.70722   1.72868   1.73119   1.76260   1.78228
 Alpha virt. eigenvalues --    1.78658   1.80774   1.81672   1.82252   1.82902
 Alpha virt. eigenvalues --    1.91069   1.95746   1.98567   2.14288   2.14997
 Alpha virt. eigenvalues --    2.25208   2.53245   2.59867   2.74530   2.81911
 Alpha virt. eigenvalues --    3.47285   4.00157   4.02612   4.11997   4.32686
          Condensed to atoms (all electrons):
              1          2          3          4          5          6
     1  O    8.824000  -0.168633   0.178424  -0.040454  -0.040411   0.021978
     2  O   -0.168633   8.824448   0.178120  -0.040343  -0.040472   0.051380
     3  P    0.178424   0.178120  12.906279  -0.046047  -0.046101   0.053286
     4  O   -0.040454  -0.040343  -0.046047   8.922695   0.041046   0.090591
     5  O   -0.040411  -0.040472  -0.046101   0.041046   8.923315   0.090218
     6  Ca   0.021978   0.051380   0.053286   0.090591   0.090218  18.228371
     7  Ca   0.050940   0.021933   0.053293   0.090659   0.090683  -0.018822
              7
     1  O    0.050940
     2  O    0.021933
     3  P    0.053293
     4  O    0.090659
     5  O    0.090683
     6  Ca  -0.018822
     7  Ca  18.228358
 Mulliken atomic charges:
              1
     1  O   -0.825844
     2  O   -0.826432
     3  P    1.722746
     4  O   -1.018146
     5  O   -1.018278
     6  Ca   1.482998
     7  Ca   1.482957
 Sum of Mulliken charges=   1.00000
 Atomic charges with hydrogens summed into heavy atoms:
              1
     1  O   -0.825844
     2  O   -0.826432
     3  P    1.722746
     4  O   -1.018146
     5  O   -1.018278
     6  Ca   1.482998
     7  Ca   1.482957
 Sum of Mulliken charges=   1.00000
 Electronic spatial extent (au):  <R**2>=  1135.0599
 Charge=     1.0000 electrons
 Dipole moment (field-independent basis, Debye):
    X=     0.0010    Y=   -13.9740    Z=    -0.0039  Tot=    13.9740
 Quadrupole moment (field-independent basis, Debye-Ang):
   XX=     3.5425   YY=   -55.5608   ZZ=   -66.7937
   XY=     0.0070   XZ=     0.0015   YZ=     0.0014
 Traceless Quadrupole moment (field-independent basis, Debye-Ang):
   XX=    43.1465   YY=   -15.9568   ZZ=   -27.1897
   XY=     0.0070   XZ=     0.0015   YZ=     0.0014
 Octapole moment (field-independent basis, Debye-Ang**2):
  XXX=    -0.0063  YYY=   -48.5022  ZZZ=    -0.0232  XYY=     0.0086
  XXY=   -85.7979  XXZ=     0.0004  XZZ=     0.0105  YZZ=    -4.0763
  YYZ=     0.0127  XYZ=    -0.0145
 Hexadecapole moment (field-independent basis, Debye-Ang**3):
 XXXX=  -325.1877 YYYY=  -337.0206 ZZZZ=  -196.9484 XXXY=     0.0014
 XXXZ=    -0.0180 YYYX=     0.0714 YYYZ=     0.0057 ZZZX=     0.0184
 ZZZY=    -0.0049 XXYY=  -143.4314 XXZZ=  -133.2368 YYZZ=   -83.9478
 XXYZ=     0.0127 YYXZ=    -0.0138 ZZXY=    -0.0037
 N-N= 6.668765161148D+02 E-N=-6.052366212678D+03  KE= 1.991126432486D+03
 Merz-Kollman atomic radii used.
 Read replacement radii for each type of atom:
 Rad(20) =   1.188000000000D+00
 Atom Element Radius
    1     8    1.40
    2     8    1.40
    3    15    1.80
    4     8    1.40
    5     8    1.40
    6    20    1.19
    7    20    1.19

 **********************************************************************

            Electrostatic Properties Using The SCF Density

 **********************************************************************

       Atomic Center    1 is at  -1.381429  1.464784 -0.001329
       Atomic Center    2 is at   1.382541  1.462369  0.000241
       Atomic Center    3 is at  -0.000210  0.799101  0.000091
       Atomic Center    4 is at   0.000308 -0.331219 -1.196289
       Atomic Center    5 is at  -0.001492 -0.329879  1.197571
       Atomic Center    6 is at   2.069878 -0.752682 -0.000079
       Atomic Center    7 is at  -2.069692 -0.753065 -0.000069
     594 points will be used for fitting atomic charges
 Fitting point charges to eletrostatic potential
 Charges from ESP fit, RMS=   0.00408 RRMS=   0.02330:
 Charge=   1.00000 Dipole=     0.0016   -14.0402    -0.0038 Tot=    14.0402
              1
     1  O   -0.872279
     2  O   -0.870078
     3  P    1.748480
     4  O   -1.209884
     5  O   -1.209966
     6  Ca   1.706111
     7  Ca   1.707616
 -----------------------------------------------------------------

              Electrostatic Properties (Atomic Units)

 -----------------------------------------------------------------
    Center     Electric         -------- Electric Field --------
               Potential          X             Y             Z
 -----------------------------------------------------------------
    1 Atom    -22.239205
    2 Atom    -22.238536
    3 Atom    -53.892406
    4 Atom    -22.240341
    5 Atom    -22.241501
    6 Atom    -79.963793
    7 Atom    -79.963728
 -----------------------------------------------------------------
 1\1\GINC-N031\SP\RB3LYP\6-31+G(d,p)\Ca2O4P1(1+)\TIMN\12-Jun-2015\0\\# 
 b3lyp/6-31+G(d,p) int=ultrafine pop=(ReadRadii,MK)\\mol_16.4.12.pdbcc_
 plusQ.out.z51563.zip.xyz\\1,1\O,0,-1.38143,1.46478,-0.00133\O,0,1.3825
 4,1.46237,0.00024\P,0,-0.00021,0.7991,0.00009\O,0,0.00031,-0.33122,-1.
 19629\O,0,-0.00149,-0.32988,1.19757\Ca,0,2.06988,-0.75268,-0.00008\Ca,
 0,-2.06969,-0.75307,-0.00007\\Version=EM64T-G03RevE.01\State=1-A\HF=-1
 997.3900776\RMSD=1.194e-05\Thermal=0.\Dipole=0.0004161,-5.4978094,-0.0
 015196\PG=C01 [X(Ca2O4P1)]\\@


 The impersonal hand of government can
 never replace the helping hand of a neighbor.
                        -- Hubert H. Humphrey
 Job cpu time:  0 days  0 hours  1 minutes  2.0 seconds.
 File lengths (MBytes):  RWF=     28 Int=      0 D2E=      0 Chk=     10 Scr=      1
 Normal termination of Gaussian 03 at Fri Jun 12 17:46:36 2015.
