 Entering Gaussian System, Link 0=/home/timn/tmp/g03.e01/g03
 Input=mol_17.24.47.pdbcc_plusQ.z58300.zip.xyz.gjf
 Output=mol_17.24.47.pdbcc_plusQ.z58300.zip.xyz.out
 Initial command:
 /home/timn/tmp/g03.e01/l1.exe /home/timn/tmp/g03.e01/Gau-20107.inp -scrdir=/home/timn/tmp/g03.e01/
 Default is to use a total of   2 processors:
                                2 via shared-memory
                                1 via Linda
 Entering Link 1 = /home/timn/tmp/g03.e01/l1.exe PID=     20108.
  
 Copyright (c) 1988,1990,1992,1993,1995,1998,2003,2004,2007, Gaussian, Inc.
                  All Rights Reserved.
  
 This is the Gaussian(R) 03 program.  It is based on the
 the Gaussian(R) 98 system (copyright 1998, Gaussian, Inc.),
 the Gaussian(R) 94 system (copyright 1995, Gaussian, Inc.),
 the Gaussian 92(TM) system (copyright 1992, Gaussian, Inc.),
 the Gaussian 90(TM) system (copyright 1990, Gaussian, Inc.),
 the Gaussian 88(TM) system (copyright 1988, Gaussian, Inc.),
 the Gaussian 86(TM) system (copyright 1986, Carnegie Mellon
 University), and the Gaussian 82(TM) system (copyright 1983,
 Carnegie Mellon University). Gaussian is a federally registered
 trademark of Gaussian, Inc.
  
 This software contains proprietary and confidential information,
 including trade secrets, belonging to Gaussian, Inc.
  
 This software is provided under written license and may be
 used, copied, transmitted, or stored only in accord with that
 written license.
  
 The following legend is applicable only to US Government
 contracts under FAR:
  
                    RESTRICTED RIGHTS LEGEND
  
 Use, reproduction and disclosure by the US Government is
 subject to restrictions as set forth in subparagraphs (a)
 and (c) of the Commercial Computer Software - Restricted
 Rights clause in FAR 52.227-19.
  
 Gaussian, Inc.
 340 Quinnipiac St., Bldg. 40, Wallingford CT 06492
  
  
 ---------------------------------------------------------------
 Warning -- This program may not be used in any manner that
 competes with the business of Gaussian, Inc. or will provide
 assistance to any competitor of Gaussian, Inc.  The licensee
 of this program is prohibited from giving any competitor of
 Gaussian, Inc. access to this program.  By using this program,
 the user acknowledges that Gaussian, Inc. is engaged in the
 business of creating and licensing software in the field of
 computational chemistry and represents and warrants to the
 licensee that it is not a competitor of Gaussian, Inc. and that
 it will not use this program in any manner prohibited above.
 ---------------------------------------------------------------
  

 Cite this work as:
 Gaussian 03, Revision E.01,
 M. J. Frisch, G. W. Trucks, H. B. Schlegel, G. E. Scuseria, 
 M. A. Robb, J. R. Cheeseman, J. A. Montgomery, Jr., T. Vreven, 
 K. N. Kudin, J. C. Burant, J. M. Millam, S. S. Iyengar, J. Tomasi, 
 V. Barone, B. Mennucci, M. Cossi, G. Scalmani, N. Rega, 
 G. A. Petersson, H. Nakatsuji, M. Hada, M. Ehara, K. Toyota, 
 R. Fukuda, J. Hasegawa, M. Ishida, T. Nakajima, Y. Honda, O. Kitao, 
 H. Nakai, M. Klene, X. Li, J. E. Knox, H. P. Hratchian, J. B. Cross, 
 V. Bakken, C. Adamo, J. Jaramillo, R. Gomperts, R. E. Stratmann, 
 O. Yazyev, A. J. Austin, R. Cammi, C. Pomelli, J. W. Ochterski, 
 P. Y. Ayala, K. Morokuma, G. A. Voth, P. Salvador, J. J. Dannenberg, 
 V. G. Zakrzewski, S. Dapprich, A. D. Daniels, M. C. Strain, 
 O. Farkas, D. K. Malick, A. D. Rabuck, K. Raghavachari, 
 J. B. Foresman, J. V. Ortiz, Q. Cui, A. G. Baboul, S. Clifford, 
 J. Cioslowski, B. B. Stefanov, G. Liu, A. Liashenko, P. Piskorz, 
 I. Komaromi, R. L. Martin, D. J. Fox, T. Keith, M. A. Al-Laham, 
 C. Y. Peng, A. Nanayakkara, M. Challacombe, P. M. W. Gill, 
 B. Johnson, W. Chen, M. W. Wong, C. Gonzalez, and J. A. Pople, 
 Gaussian, Inc., Wallingford CT, 2004.
 
 ******************************************
 Gaussian 03:  EM64T-G03RevE.01 11-Sep-2007
                12-Jun-2015 
 ******************************************
 %nproc=2
 Will use up to    2 processors via shared memory.
 Default route:  MP2=Direct MaxDisk=2000MB
 ----------------------------------------------------
 # b3lyp/6-31+G(d,p) int=ultrafine pop=(ReadRadii,MK)
 ----------------------------------------------------

 Warning!  SCF SP cutoffs with diffuse functions may be unreliable.
 Consider SCF=Tight

 1/38=1/1;
 2/17=6,18=5,40=1/2;
 3/5=1,6=6,7=111,11=2,16=1,25=1,30=1,74=-5,75=5/1,2,3;
 4//1;
 5/5=2,32=1,38=5/2;
 6/7=2,8=2,9=2,10=2,15=8,20=101,28=1/1,2;
 99/5=1,9=1/99;
 ---------------------------------------
 mol_17.24.47.pdbcc_plusQ.z58300.zip.xyz
 ---------------------------------------
 Symbolic Z-matrix:
 Charge =  1 Multiplicity = 1
 O                    -2.0678    0.00389   1.10414 
 O                    -0.60788   0.00271   1.5216 
 Ca                   -1.0522    1.67235  -0.1403 
 P                     1.06483  -0.00328  -1.53101 
 O                    -0.5904   -0.00174  -1.65646 
 O                     1.23881   1.28333  -0.44307 
 Ca                   -1.05637  -1.67098  -0.13589 
 Ca                    1.62647   0.00043   1.38973 
 O                     1.23596  -1.28654  -0.43941 
 
                          Input orientation:                          
 ---------------------------------------------------------------------
 Center     Atomic     Atomic              Coordinates (Angstroms)
 Number     Number      Type              X           Y           Z
 ---------------------------------------------------------------------
    1          8             0       -2.067800    0.003890    1.104140
    2          8             0       -0.607880    0.002710    1.521600
    3         20             0       -1.052200    1.672350   -0.140300
    4         15             0        1.064830   -0.003280   -1.531010
    5          8             0       -0.590400   -0.001740   -1.656460
    6          8             0        1.238810    1.283330   -0.443070
    7         20             0       -1.056370   -1.670980   -0.135890
    8         20             0        1.626470    0.000430    1.389730
    9          8             0        1.235960   -1.286540   -0.439410
 ---------------------------------------------------------------------
                    Distance matrix (angstroms):
                    1          2          3          4          5
     1  O    0.000000
     2  O    1.518434   0.000000
     3  Ca   2.315995   2.397296   0.000000
     4  P    4.093585   3.480865   3.037042   0.000000
     5  O    3.131079   3.178111   2.305337   1.659978   0.000000
     6  O    3.868397   2.984992   2.343445   1.693885   2.543566
     7  Ca   2.316431   2.397844   3.343336   3.037610   2.305564
     8  Ca   3.705294   2.238239   3.508786   2.974252   3.767465
     9  O    3.868150   2.984539   3.752356   1.693408   2.543130
                    6          7          8          9
     6  O    0.000000
     7  Ca   3.753686   0.000000
     8  Ca   2.270522   3.509809   0.000000
     9  O    2.569874   2.344077   2.270362   0.000000
 Stoichiometry    Ca3O5P(1+)
 Framework group  C1[X(Ca3O5P)]
 Deg. of freedom    21
 Full point group                 C1
 Largest Abelian subgroup         C1      NOp   1
 Largest concise Abelian subgroup C1      NOp   1
                         Standard orientation:                         
 ---------------------------------------------------------------------
 Center     Atomic     Atomic              Coordinates (Angstroms)
 Number     Number      Type              X           Y           Z
 ---------------------------------------------------------------------
    1          8             0       -2.067800    0.003907    1.104140
    2          8             0       -0.607880    0.002715    1.521600
    3         20             0       -1.052186    1.672359   -0.140300
    4         15             0        1.064830   -0.003289   -1.531010
    5          8             0       -0.590400   -0.001735   -1.656460
    6          8             0        1.238821    1.283320   -0.443070
    7         20             0       -1.056384   -1.670971   -0.135890
    8         20             0        1.626470    0.000416    1.389730
    9          8             0        1.235950   -1.286550   -0.439410
 ---------------------------------------------------------------------
 Rotational constants (GHZ):      0.9462514      0.8197885      0.7962218
 Standard basis: 6-31+G(d,p) (6D, 7F)
 There are   199 symmetry adapted basis functions of A   symmetry.
 Integral buffers will be    131072 words long.
 Raffenetti 2 integral format.
 Two-electron integral symmetry is turned on.
   199 basis functions,   456 primitive gaussians,   199 cartesian basis functions
    57 alpha electrons       57 beta electrons
       nuclear repulsion energy      1104.9389925822 Hartrees.
 NAtoms=    9 NActive=    9 NUniq=    9 SFac= 7.50D-01 NAtFMM=   80 NAOKFM=F Big=F
 One-electron integrals computed using PRISM.
 NBasis=   199 RedAO= T  NBF=   199
 NBsUse=   199 1.00D-06 NBFU=   199
 Harris functional with IExCor=  402 diagonalized for initial guess.
 ExpMin= 7.10D-03 ExpMax= 3.53D+04 ExpMxC= 5.30D+03 IAcc=3 IRadAn=         5 AccDes= 0.00D+00
 HarFok:  IExCor= 402 AccDes= 0.00D+00 IRadAn=         5 IDoV=1
 ScaDFX=  1.000000  1.000000  1.000000  1.000000
 Initial guess orbital symmetries:
       Occupied  (A) (A) (A) (A) (A) (A) (A) (A) (A) (A) (A) (A)
                 (A) (A) (A) (A) (A) (A) (A) (A) (A) (A) (A) (A)
                 (A) (A) (A) (A) (A) (A) (A) (A) (A) (A) (A) (A)
                 (A) (A) (A) (A) (A) (A) (A) (A) (A) (A) (A) (A)
                 (A) (A) (A) (A) (A) (A) (A) (A) (A)
       Virtual   (A) (A) (A) (A) (A) (A) (A) (A) (A) (A) (A) (A)
                 (A) (A) (A) (A) (A) (A) (A) (A) (A) (A) (A) (A)
                 (A) (A) (A) (A) (A) (A) (A) (A) (A) (A) (A) (A)
                 (A) (A) (A) (A) (A) (A) (A) (A) (A) (A) (A) (A)
                 (A) (A) (A) (A) (A) (A) (A) (A) (A) (A) (A) (A)
                 (A) (A) (A) (A) (A) (A) (A) (A) (A) (A) (A) (A)
                 (A) (A) (A) (A) (A) (A) (A) (A) (A) (A) (A) (A)
                 (A) (A) (A) (A) (A) (A) (A) (A) (A) (A) (A) (A)
                 (A) (A) (A) (A) (A) (A) (A) (A) (A) (A) (A) (A)
                 (A) (A) (A) (A) (A) (A) (A) (A) (A) (A) (A) (A)
                 (A) (A) (A) (A) (A) (A) (A) (A) (A) (A) (A) (A)
                 (A) (A) (A) (A) (A) (A) (A) (A) (A) (A)
 The electronic state of the initial guess is 1-A.
 Requested convergence on RMS density matrix=1.00D-04 within 128 cycles.
 Requested convergence on MAX density matrix=1.00D-02.
 Requested convergence on             energy=1.00D-02.
 No special actions if energy rises.
 SCF Done:  E(RB+HF-LYP) =  -2750.24881774     A.U. after    7 cycles
             Convg  =    0.5387D-04             -V/T =  2.0029
             S**2   =   0.0000

 **********************************************************************

            Population analysis using the SCF density.

 **********************************************************************

 Orbital symmetries:
       Occupied  (A) (A) (A) (A) (A) (A) (A) (A) (A) (A) (A) (A)
                 (A) (A) (A) (A) (A) (A) (A) (A) (A) (A) (A) (A)
                 (A) (A) (A) (A) (A) (A) (A) (A) (A) (A) (A) (A)
                 (A) (A) (A) (A) (A) (A) (A) (A) (A) (A) (A) (A)
                 (A) (A) (A) (A) (A) (A) (A) (A) (A)
       Virtual   (A) (A) (A) (A) (A) (A) (A) (A) (A) (A) (A) (A)
                 (A) (A) (A) (A) (A) (A) (A) (A) (A) (A) (A) (A)
                 (A) (A) (A) (A) (A) (A) (A) (A) (A) (A) (A) (A)
                 (A) (A) (A) (A) (A) (A) (A) (A) (A) (A) (A) (A)
                 (A) (A) (A) (A) (A) (A) (A) (A) (A) (A) (A) (A)
                 (A) (A) (A) (A) (A) (A) (A) (A) (A) (A) (A) (A)
                 (A) (A) (A) (A) (A) (A) (A) (A) (A) (A) (A) (A)
                 (A) (A) (A) (A) (A) (A) (A) (A) (A) (A) (A) (A)
                 (A) (A) (A) (A) (A) (A) (A) (A) (A) (A) (A) (A)
                 (A) (A) (A) (A) (A) (A) (A) (A) (A) (A) (A) (A)
                 (A) (A) (A) (A) (A) (A) (A) (A) (A) (A) (A) (A)
                 (A) (A) (A) (A) (A) (A) (A) (A) (A) (A)
 The electronic state is 1-A.
 Alpha  occ. eigenvalues -- -145.52383-145.50187-145.50169 -77.25153 -19.25913
 Alpha  occ. eigenvalues --  -19.25462 -19.21785 -19.21783 -19.21335 -15.59142
 Alpha  occ. eigenvalues --  -15.56985 -15.56969 -12.72330 -12.72326 -12.72300
 Alpha  occ. eigenvalues --  -12.70194 -12.70185 -12.70178 -12.70169 -12.70106
 Alpha  occ. eigenvalues --  -12.70090  -6.70241  -4.86595  -4.86587  -4.86026
 Alpha  occ. eigenvalues --   -1.96320  -1.94231  -1.94164  -1.24345  -1.23876
 Alpha  occ. eigenvalues --   -1.23779  -1.22784  -1.22078  -1.21718  -1.21642
 Alpha  occ. eigenvalues --   -1.21523  -1.21225  -1.10038  -1.07331  -1.00855
 Alpha  occ. eigenvalues --   -1.00734  -0.89076  -0.63093  -0.51347  -0.51080
 Alpha  occ. eigenvalues --   -0.50980  -0.49236  -0.48453  -0.46048  -0.43794
 Alpha  occ. eigenvalues --   -0.43559  -0.38833  -0.38643  -0.38611  -0.35300
 Alpha  occ. eigenvalues --   -0.33990  -0.31698
 Alpha virt. eigenvalues --   -0.20300  -0.18389  -0.17632  -0.12783  -0.12602
 Alpha virt. eigenvalues --   -0.10903  -0.09917  -0.09096  -0.08254  -0.07948
 Alpha virt. eigenvalues --   -0.07349  -0.06562  -0.06018  -0.05817  -0.04924
 Alpha virt. eigenvalues --   -0.04867  -0.04856  -0.04686  -0.04486  -0.04309
 Alpha virt. eigenvalues --   -0.04013  -0.03911  -0.03218  -0.02973  -0.02947
 Alpha virt. eigenvalues --   -0.02711  -0.01825  -0.00967   0.00846   0.01988
 Alpha virt. eigenvalues --    0.02247   0.03416   0.04334   0.04543   0.04865
 Alpha virt. eigenvalues --    0.05219   0.05244   0.06160   0.06288   0.07053
 Alpha virt. eigenvalues --    0.07072   0.07099   0.07501   0.07555   0.07794
 Alpha virt. eigenvalues --    0.08503   0.09369   0.10327   0.11203   0.11842
 Alpha virt. eigenvalues --    0.12319   0.14920   0.14938   0.16119   0.17402
 Alpha virt. eigenvalues --    0.18782   0.20645   0.21080   0.21101   0.23270
 Alpha virt. eigenvalues --    0.23560   0.23713   0.24624   0.25783   0.27283
 Alpha virt. eigenvalues --    0.27995   0.29798   0.31571   0.33555   0.33940
 Alpha virt. eigenvalues --    0.34436   0.36041   0.36686   0.38778   0.39284
 Alpha virt. eigenvalues --    0.41200   0.45566   0.46018   0.53545   0.54394
 Alpha virt. eigenvalues --    0.55431   0.62688   0.63188   0.63525   0.66207
 Alpha virt. eigenvalues --    0.81578   0.85414   0.90500   0.93111   0.99262
 Alpha virt. eigenvalues --    1.11599   1.11888   1.15490   1.16012   1.17641
 Alpha virt. eigenvalues --    1.18031   1.19908   1.19986   1.20441   1.22322
 Alpha virt. eigenvalues --    1.22905   1.27533   1.31241   1.33942   1.38914
 Alpha virt. eigenvalues --    1.45494   1.46498   1.49253   1.57001   1.58137
 Alpha virt. eigenvalues --    1.60025   1.64341   1.68045   1.71389   1.73207
 Alpha virt. eigenvalues --    1.76855   1.78163   1.78949   1.81332   1.84874
 Alpha virt. eigenvalues --    1.86383   1.87080   1.89502   1.90273   1.91258
 Alpha virt. eigenvalues --    1.92847   1.93657   1.99378   2.00497   2.11321
 Alpha virt. eigenvalues --    2.21673   2.24637   2.36595   2.52365   2.56789
 Alpha virt. eigenvalues --    3.07052   3.54033   4.03180   4.09915   4.14254
 Alpha virt. eigenvalues --    4.19207   4.32872
          Condensed to atoms (all electrons):
              1          2          3          4          5          6
     1  O    8.577865  -0.101163   0.104068   0.003330   0.002057  -0.006642
     2  O   -0.101163   8.604642   0.038138  -0.024637   0.022344   0.029648
     3  Ca   0.104068   0.038138  18.339768   0.017272   0.065879   0.060525
     4  P    0.003330  -0.024637   0.017272  14.404667  -0.171788  -0.177882
     5  O    0.002057   0.022344   0.065879  -0.171788   8.936333   0.050201
     6  O   -0.006642   0.029648   0.060525  -0.177882   0.050201   8.964823
     7  Ca   0.104068   0.038117  -0.047941   0.017352   0.065861   0.004961
     8  Ca  -0.033257   0.088624  -0.045128   0.026328   0.013817   0.074756
     9  O   -0.006656   0.029666   0.004984  -0.178006   0.050162   0.043527
              7          8          9
     1  O    0.104068  -0.033257  -0.006656
     2  O    0.038117   0.088624   0.029666
     3  Ca  -0.047941  -0.045128   0.004984
     4  P    0.017352   0.026328  -0.178006
     5  O    0.065861   0.013817   0.050162
     6  O    0.004961   0.074756   0.043527
     7  Ca  18.339322  -0.045028   0.060478
     8  Ca  -0.045028  18.362145   0.074733
     9  O    0.060478   0.074733   8.964899
 Mulliken atomic charges:
              1
     1  O   -0.643670
     2  O   -0.725379
     3  Ca   1.462434
     4  P    1.083365
     5  O   -1.034866
     6  O   -1.043917
     7  Ca   1.462810
     8  Ca   1.483010
     9  O   -1.043786
 Sum of Mulliken charges=   1.00000
 Atomic charges with hydrogens summed into heavy atoms:
              1
     1  O   -0.643670
     2  O   -0.725379
     3  Ca   1.462434
     4  P    1.083365
     5  O   -1.034866
     6  O   -1.043917
     7  Ca   1.462810
     8  Ca   1.483010
     9  O   -1.043786
 Sum of Mulliken charges=   1.00000
 Electronic spatial extent (au):  <R**2>=  1728.9377
 Charge=     1.0000 electrons
 Dipole moment (field-independent basis, Debye):
    X=    -0.9408    Y=     0.0018    Z=     6.2050  Tot=     6.2759
 Quadrupole moment (field-independent basis, Debye-Ang):
   XX=   -63.7083   YY=   -44.2213   ZZ=   -80.5432
   XY=     0.0702   XZ=    28.3203   YZ=    -0.0733
 Traceless Quadrupole moment (field-independent basis, Debye-Ang):
   XX=    -0.8840   YY=    18.6030   ZZ=   -17.7190
   XY=     0.0702   XZ=    28.3203   YZ=    -0.0733
 Octapole moment (field-independent basis, Debye-Ang**2):
  XXX=    20.1544  YYY=     0.1905  ZZZ=    45.2330  XYY=   -73.7899
  XXY=    -0.1726  XXZ=    28.1751  XZZ=    39.2368  YZZ=     0.0047
  YYZ=     4.8984  XYZ=     0.1345
 Hexadecapole moment (field-independent basis, Debye-Ang**3):
 XXXX=  -745.7718 YYYY=  -401.3487 ZZZZ=  -674.1786 XXXY=     0.3988
 XXXZ=   157.8016 YYYX=     0.2757 YYYZ=    -0.3402 ZZZX=   109.8711
 ZZZY=    -0.2770 XXYY=  -182.3555 XXZZ=  -218.9324 YYZZ=  -189.6991
 XXYZ=    -0.1348 YYXZ=    34.9722 ZZXY=     0.0700
 N-N= 1.104938992582D+03 E-N=-8.710534566314D+03  KE= 2.742232342946D+03
 Merz-Kollman atomic radii used.
 Read replacement radii for each type of atom:
 Rad(20) =   1.188000000000D+00
 Atom Element Radius
    1     8    1.40
    2     8    1.40
    3    20    1.19
    4    15    1.80
    5     8    1.40
    6     8    1.40
    7    20    1.19
    8    20    1.19
    9     8    1.40

 **********************************************************************

            Electrostatic Properties Using The SCF Density

 **********************************************************************

       Atomic Center    1 is at  -2.067800  0.003907  1.104140
       Atomic Center    2 is at  -0.607880  0.002715  1.521600
       Atomic Center    3 is at  -1.052186  1.672359 -0.140300
       Atomic Center    4 is at   1.064830 -0.003289 -1.531010
       Atomic Center    5 is at  -0.590400 -0.001735 -1.656460
       Atomic Center    6 is at   1.238821  1.283320 -0.443070
       Atomic Center    7 is at  -1.056384 -1.670971 -0.135890
       Atomic Center    8 is at   1.626470  0.000416  1.389730
       Atomic Center    9 is at   1.235950 -1.286550 -0.439410
     736 points will be used for fitting atomic charges
 Fitting point charges to eletrostatic potential
 Charges from ESP fit, RMS=   0.00664 RRMS=   0.04145:
 Charge=   1.00000 Dipole=    -0.7925     0.0017     6.0473 Tot=     6.0991
              1
     1  O   -0.690210
     2  O   -0.930403
     3  Ca   1.674849
     4  P    0.545188
     5  O   -0.945251
     6  O   -0.990235
     7  Ca   1.674914
     8  Ca   1.651097
     9  O   -0.989950
 -----------------------------------------------------------------

              Electrostatic Properties (Atomic Units)

 -----------------------------------------------------------------
    Center     Electric         -------- Electric Field --------
               Potential          X             Y             Z
 -----------------------------------------------------------------
    1 Atom    -22.216092
    2 Atom    -22.204651
    3 Atom    -80.039090
    4 Atom    -53.962557
    5 Atom    -22.248696
    6 Atom    -22.248643
    7 Atom    -80.038910
    8 Atom    -80.016298
    9 Atom    -22.248446
 -----------------------------------------------------------------
 1\1\GINC-N022\SP\RB3LYP\6-31+G(d,p)\Ca3O5P1(1+)\TIMN\12-Jun-2015\0\\# 
 b3lyp/6-31+G(d,p) int=ultrafine pop=(ReadRadii,MK)\\mol_17.24.47.pdbcc
 _plusQ.z58300.zip.xyz\\1,1\O,0,-2.0678,0.00389,1.10414\O,0,-0.60788,0.
 00271,1.5216\Ca,0,-1.0522,1.67235,-0.1403\P,0,1.06483,-0.00328,-1.5310
 1\O,0,-0.5904,-0.00174,-1.65646\O,0,1.23881,1.28333,-0.44307\Ca,0,-1.0
 5637,-1.67098,-0.13589\Ca,0,1.62647,0.00043,1.38973\O,0,1.23596,-1.286
 54,-0.43941\\Version=EM64T-G03RevE.01\State=1-A\HF=-2750.2488177\RMSD=
 5.387e-05\Thermal=0.\Dipole=-0.370133,0.0006984,2.4412349\PG=C01 [X(Ca
 3O5P1)]\\@


 ONLY THE DAY DAWNS TO WHICH YOU ARE AWAKE.

                                 -- THOREAU
 Job cpu time:  0 days  0 hours  1 minutes 57.9 seconds.
 File lengths (MBytes):  RWF=     36 Int=      0 D2E=      0 Chk=     11 Scr=      1
 Normal termination of Gaussian 03 at Fri Jun 12 17:56:21 2015.
