 Entering Gaussian System, Link 0=/home/timn/tmp/g03.e01/g03
 Input=mol_17.23.13.pdbcc_plusQ.z58214.zip.xyz.gjf
 Output=mol_17.23.13.pdbcc_plusQ.z58214.zip.xyz.out
 Initial command:
 /home/timn/tmp/g03.e01/l1.exe /home/timn/tmp/g03.e01/Gau-12701.inp -scrdir=/home/timn/tmp/g03.e01/
 Default is to use a total of   2 processors:
                                2 via shared-memory
                                1 via Linda
 Entering Link 1 = /home/timn/tmp/g03.e01/l1.exe PID=     12702.
  
 Copyright (c) 1988,1990,1992,1993,1995,1998,2003,2004,2007, Gaussian, Inc.
                  All Rights Reserved.
  
 This is the Gaussian(R) 03 program.  It is based on the
 the Gaussian(R) 98 system (copyright 1998, Gaussian, Inc.),
 the Gaussian(R) 94 system (copyright 1995, Gaussian, Inc.),
 the Gaussian 92(TM) system (copyright 1992, Gaussian, Inc.),
 the Gaussian 90(TM) system (copyright 1990, Gaussian, Inc.),
 the Gaussian 88(TM) system (copyright 1988, Gaussian, Inc.),
 the Gaussian 86(TM) system (copyright 1986, Carnegie Mellon
 University), and the Gaussian 82(TM) system (copyright 1983,
 Carnegie Mellon University). Gaussian is a federally registered
 trademark of Gaussian, Inc.
  
 This software contains proprietary and confidential information,
 including trade secrets, belonging to Gaussian, Inc.
  
 This software is provided under written license and may be
 used, copied, transmitted, or stored only in accord with that
 written license.
  
 The following legend is applicable only to US Government
 contracts under FAR:
  
                    RESTRICTED RIGHTS LEGEND
  
 Use, reproduction and disclosure by the US Government is
 subject to restrictions as set forth in subparagraphs (a)
 and (c) of the Commercial Computer Software - Restricted
 Rights clause in FAR 52.227-19.
  
 Gaussian, Inc.
 340 Quinnipiac St., Bldg. 40, Wallingford CT 06492
  
  
 ---------------------------------------------------------------
 Warning -- This program may not be used in any manner that
 competes with the business of Gaussian, Inc. or will provide
 assistance to any competitor of Gaussian, Inc.  The licensee
 of this program is prohibited from giving any competitor of
 Gaussian, Inc. access to this program.  By using this program,
 the user acknowledges that Gaussian, Inc. is engaged in the
 business of creating and licensing software in the field of
 computational chemistry and represents and warrants to the
 licensee that it is not a competitor of Gaussian, Inc. and that
 it will not use this program in any manner prohibited above.
 ---------------------------------------------------------------
  

 Cite this work as:
 Gaussian 03, Revision E.01,
 M. J. Frisch, G. W. Trucks, H. B. Schlegel, G. E. Scuseria, 
 M. A. Robb, J. R. Cheeseman, J. A. Montgomery, Jr., T. Vreven, 
 K. N. Kudin, J. C. Burant, J. M. Millam, S. S. Iyengar, J. Tomasi, 
 V. Barone, B. Mennucci, M. Cossi, G. Scalmani, N. Rega, 
 G. A. Petersson, H. Nakatsuji, M. Hada, M. Ehara, K. Toyota, 
 R. Fukuda, J. Hasegawa, M. Ishida, T. Nakajima, Y. Honda, O. Kitao, 
 H. Nakai, M. Klene, X. Li, J. E. Knox, H. P. Hratchian, J. B. Cross, 
 V. Bakken, C. Adamo, J. Jaramillo, R. Gomperts, R. E. Stratmann, 
 O. Yazyev, A. J. Austin, R. Cammi, C. Pomelli, J. W. Ochterski, 
 P. Y. Ayala, K. Morokuma, G. A. Voth, P. Salvador, J. J. Dannenberg, 
 V. G. Zakrzewski, S. Dapprich, A. D. Daniels, M. C. Strain, 
 O. Farkas, D. K. Malick, A. D. Rabuck, K. Raghavachari, 
 J. B. Foresman, J. V. Ortiz, Q. Cui, A. G. Baboul, S. Clifford, 
 J. Cioslowski, B. B. Stefanov, G. Liu, A. Liashenko, P. Piskorz, 
 I. Komaromi, R. L. Martin, D. J. Fox, T. Keith, M. A. Al-Laham, 
 C. Y. Peng, A. Nanayakkara, M. Challacombe, P. M. W. Gill, 
 B. Johnson, W. Chen, M. W. Wong, C. Gonzalez, and J. A. Pople, 
 Gaussian, Inc., Wallingford CT, 2004.
 
 ******************************************
 Gaussian 03:  EM64T-G03RevE.01 11-Sep-2007
                12-Jun-2015 
 ******************************************
 %nproc=2
 Will use up to    2 processors via shared memory.
 Default route:  MP2=Direct MaxDisk=2000MB
 ----------------------------------------------------
 # b3lyp/6-31+G(d,p) int=ultrafine pop=(ReadRadii,MK)
 ----------------------------------------------------

 Warning!  SCF SP cutoffs with diffuse functions may be unreliable.
 Consider SCF=Tight

 1/38=1/1;
 2/17=6,18=5,40=1/2;
 3/5=1,6=6,7=111,11=2,16=1,25=1,30=1,74=-5,75=5/1,2,3;
 4//1;
 5/5=2,32=1,38=5/2;
 6/7=2,8=2,9=2,10=2,15=8,20=101,28=1/1,2;
 99/5=1,9=1/99;
 ---------------------------------------
 mol_17.23.13.pdbcc_plusQ.z58214.zip.xyz
 ---------------------------------------
 Symbolic Z-matrix:
 Charge =  1 Multiplicity = 1
 Ca                   -4.95989  -0.14793   0.1007 
 Ca                   -1.08832  -0.16928  -0.03766 
 O                     0.65528  -1.66187  -0.51409 
 O                     1.03376  -0.32669  -1.15446 
 P                     1.33469   1.12365   0.04783 
 O                     0.17787   2.00191  -0.36229 
 O                     2.83084   1.26044  -0.17945 
 Ca                    2.75315  -1.147     0.2548 
 O                     1.03735   0.27989   1.32601 
 
                          Input orientation:                          
 ---------------------------------------------------------------------
 Center     Atomic     Atomic              Coordinates (Angstroms)
 Number     Number      Type              X           Y           Z
 ---------------------------------------------------------------------
    1         20             0       -4.959890   -0.147930    0.100700
    2         20             0       -1.088320   -0.169280   -0.037660
    3          8             0        0.655280   -1.661870   -0.514090
    4          8             0        1.033760   -0.326690   -1.154460
    5         15             0        1.334690    1.123650    0.047830
    6          8             0        0.177870    2.001910   -0.362290
    7          8             0        2.830840    1.260440   -0.179450
    8         20             0        2.753150   -1.147000    0.254800
    9          8             0        1.037350    0.279890    1.326010
 ---------------------------------------------------------------------
                    Distance matrix (angstroms):
                    1          2          3          4          5
     1  Ca   0.000000
     2  Ca   3.874100   0.000000
     3  O    5.848086   2.344131   0.000000
     4  O    6.126273   2.403174   1.528407   0.000000
     5  P    6.421951   2.747718   2.921724   1.907759   0.000000
     6  O    5.588627   2.534302   3.697871   2.604315   1.509229
     7  O    7.921961   4.174209   3.658544   2.588266   1.519484
     8  Ca   7.779002   3.974715   2.292889   2.369646   2.685278
     9  O    6.136066   2.565116   2.702291   2.553563   1.560156
                    6          7          8          9
     6  O    0.000000
     7  O    2.760699   0.000000
     8  Ca   4.114426   2.447524   0.000000
     9  O    2.560159   2.538601   2.475374   0.000000
 Stoichiometry    Ca3O5P(1+)
 Framework group  C1[X(Ca3O5P)]
 Deg. of freedom    21
 Full point group                 C1
 Largest Abelian subgroup         C1      NOp   1
 Largest concise Abelian subgroup C1      NOp   1
                         Standard orientation:                         
 ---------------------------------------------------------------------
 Center     Atomic     Atomic              Coordinates (Angstroms)
 Number     Number      Type              X           Y           Z
 ---------------------------------------------------------------------
    1         20             0       -4.959890   -0.147929    0.100700
    2         20             0       -1.088320   -0.169280   -0.037660
    3          8             0        0.655280   -1.661870   -0.514090
    4          8             0        1.033760   -0.326690   -1.154460
    5         15             0        1.334691    1.123650    0.047830
    6          8             0        0.177871    2.001910   -0.362290
    7          8             0        2.830841    1.260440   -0.179450
    8         20             0        2.753150   -1.147000    0.254800
    9          8             0        1.037350    0.279890    1.326010
 ---------------------------------------------------------------------
 Rotational constants (GHZ):      1.7441696      0.3123903      0.2825378
 Standard basis: 6-31+G(d,p) (6D, 7F)
 There are   199 symmetry adapted basis functions of A   symmetry.
 Integral buffers will be    131072 words long.
 Raffenetti 2 integral format.
 Two-electron integral symmetry is turned on.
   199 basis functions,   456 primitive gaussians,   199 cartesian basis functions
    57 alpha electrons       57 beta electrons
       nuclear repulsion energy       975.6230464878 Hartrees.
 NAtoms=    9 NActive=    9 NUniq=    9 SFac= 7.50D-01 NAtFMM=   80 NAOKFM=F Big=F
 One-electron integrals computed using PRISM.
 NBasis=   199 RedAO= T  NBF=   199
 NBsUse=   199 1.00D-06 NBFU=   199
 Harris functional with IExCor=  402 diagonalized for initial guess.
 ExpMin= 7.10D-03 ExpMax= 3.53D+04 ExpMxC= 5.30D+03 IAcc=3 IRadAn=         5 AccDes= 0.00D+00
 HarFok:  IExCor= 402 AccDes= 0.00D+00 IRadAn=         5 IDoV=1
 ScaDFX=  1.000000  1.000000  1.000000  1.000000
 Initial guess orbital symmetries:
       Occupied  (A) (A) (A) (A) (A) (A) (A) (A) (A) (A) (A) (A)
                 (A) (A) (A) (A) (A) (A) (A) (A) (A) (A) (A) (A)
                 (A) (A) (A) (A) (A) (A) (A) (A) (A) (A) (A) (A)
                 (A) (A) (A) (A) (A) (A) (A) (A) (A) (A) (A) (A)
                 (A) (A) (A) (A) (A) (A) (A) (A) (A)
       Virtual   (A) (A) (A) (A) (A) (A) (A) (A) (A) (A) (A) (A)
                 (A) (A) (A) (A) (A) (A) (A) (A) (A) (A) (A) (A)
                 (A) (A) (A) (A) (A) (A) (A) (A) (A) (A) (A) (A)
                 (A) (A) (A) (A) (A) (A) (A) (A) (A) (A) (A) (A)
                 (A) (A) (A) (A) (A) (A) (A) (A) (A) (A) (A) (A)
                 (A) (A) (A) (A) (A) (A) (A) (A) (A) (A) (A) (A)
                 (A) (A) (A) (A) (A) (A) (A) (A) (A) (A) (A) (A)
                 (A) (A) (A) (A) (A) (A) (A) (A) (A) (A) (A) (A)
                 (A) (A) (A) (A) (A) (A) (A) (A) (A) (A) (A) (A)
                 (A) (A) (A) (A) (A) (A) (A) (A) (A) (A) (A) (A)
                 (A) (A) (A) (A) (A) (A) (A) (A) (A) (A) (A) (A)
                 (A) (A) (A) (A) (A) (A) (A) (A) (A) (A)
 The electronic state of the initial guess is 1-A.
 Requested convergence on RMS density matrix=1.00D-04 within 128 cycles.
 Requested convergence on MAX density matrix=1.00D-02.
 Requested convergence on             energy=1.00D-02.
 No special actions if energy rises.
 EnCoef did     5 forward-backward iterations
 EnCoef did     4 forward-backward iterations
 EnCoef did   100 forward-backward iterations
 EnCoef did   100 forward-backward iterations
 SCF Done:  E(RB+HF-LYP) =  -2750.12490632     A.U. after   11 cycles
             Convg  =    0.8323D-04             -V/T =  2.0029
             S**2   =   0.0000

 **********************************************************************

            Population analysis using the SCF density.

 **********************************************************************

 Orbital symmetries:
       Occupied  (A) (A) (A) (A) (A) (A) (A) (A) (A) (A) (A) (A)
                 (A) (A) (A) (A) (A) (A) (A) (A) (A) (A) (A) (A)
                 (A) (A) (A) (A) (A) (A) (A) (A) (A) (A) (A) (A)
                 (A) (A) (A) (A) (A) (A) (A) (A) (A) (A) (A) (A)
                 (A) (A) (A) (A) (A) (A) (A) (A) (A)
       Virtual   (A) (A) (A) (A) (A) (A) (A) (A) (A) (A) (A) (A)
                 (A) (A) (A) (A) (A) (A) (A) (A) (A) (A) (A) (A)
                 (A) (A) (A) (A) (A) (A) (A) (A) (A) (A) (A) (A)
                 (A) (A) (A) (A) (A) (A) (A) (A) (A) (A) (A) (A)
                 (A) (A) (A) (A) (A) (A) (A) (A) (A) (A) (A) (A)
                 (A) (A) (A) (A) (A) (A) (A) (A) (A) (A) (A) (A)
                 (A) (A) (A) (A) (A) (A) (A) (A) (A) (A) (A) (A)
                 (A) (A) (A) (A) (A) (A) (A) (A) (A) (A) (A) (A)
                 (A) (A) (A) (A) (A) (A) (A) (A) (A) (A) (A) (A)
                 (A) (A) (A) (A) (A) (A) (A) (A) (A) (A) (A) (A)
                 (A) (A) (A) (A) (A) (A) (A) (A) (A) (A) (A) (A)
                 (A) (A) (A) (A) (A) (A) (A) (A) (A) (A)
 The electronic state is 1-A.
 Alpha  occ. eigenvalues -- -145.54711-145.54662-145.51286 -77.31444 -19.29147
 Alpha  occ. eigenvalues --  -19.26627 -19.23258 -19.23047 -19.22987 -15.61738
 Alpha  occ. eigenvalues --  -15.61401 -15.58061 -12.74874 -12.74873 -12.74858
 Alpha  occ. eigenvalues --  -12.74623 -12.74612 -12.74545 -12.71295 -12.71246
 Alpha  occ. eigenvalues --  -12.71200  -6.76311  -4.92852  -4.92528  -4.92462
 Alpha  occ. eigenvalues --   -1.98839  -1.98288  -1.95056  -1.26693  -1.26104
 Alpha  occ. eigenvalues --   -1.26100  -1.25934  -1.25698  -1.25437  -1.23118
 Alpha  occ. eigenvalues --   -1.22626  -1.22383  -1.14552  -1.11145  -1.06009
 Alpha  occ. eigenvalues --   -1.04715  -0.92413  -0.62847  -0.56370  -0.53258
 Alpha  occ. eigenvalues --   -0.53125  -0.50383  -0.50231  -0.45622  -0.44082
 Alpha  occ. eigenvalues --   -0.42635  -0.42367  -0.40400  -0.38273  -0.36695
 Alpha  occ. eigenvalues --   -0.36094  -0.30710
 Alpha virt. eigenvalues --   -0.20460  -0.19645  -0.16292  -0.16150  -0.13478
 Alpha virt. eigenvalues --   -0.11268  -0.10919  -0.09616  -0.09590  -0.09058
 Alpha virt. eigenvalues --   -0.08641  -0.07422  -0.06243  -0.05713  -0.05352
 Alpha virt. eigenvalues --   -0.05198  -0.04303  -0.04195  -0.03978  -0.03583
 Alpha virt. eigenvalues --   -0.03432  -0.03338  -0.03140  -0.02594  -0.01912
 Alpha virt. eigenvalues --   -0.00796  -0.00378   0.00015   0.00985   0.01499
 Alpha virt. eigenvalues --    0.02201   0.02503   0.03159   0.03338   0.03867
 Alpha virt. eigenvalues --    0.04146   0.04231   0.04346   0.04705   0.05127
 Alpha virt. eigenvalues --    0.05293   0.05753   0.06189   0.06425   0.07068
 Alpha virt. eigenvalues --    0.07277   0.07505   0.07581   0.08956   0.09591
 Alpha virt. eigenvalues --    0.10532   0.11332   0.13272   0.14115   0.14480
 Alpha virt. eigenvalues --    0.15069   0.16156   0.16664   0.17532   0.18280
 Alpha virt. eigenvalues --    0.19369   0.20589   0.21689   0.22022   0.23007
 Alpha virt. eigenvalues --    0.23457   0.25007   0.26047   0.27044   0.29175
 Alpha virt. eigenvalues --    0.30393   0.30742   0.32710   0.34129   0.34479
 Alpha virt. eigenvalues --    0.37186   0.38766   0.41271   0.44543   0.49044
 Alpha virt. eigenvalues --    0.49374   0.54039   0.55976   0.58095   0.61383
 Alpha virt. eigenvalues --    0.72747   0.77589   0.83080   0.94276   0.96402
 Alpha virt. eigenvalues --    1.02429   1.06593   1.12158   1.13795   1.15568
 Alpha virt. eigenvalues --    1.16243   1.18054   1.19070   1.19321   1.20977
 Alpha virt. eigenvalues --    1.23009   1.23985   1.27659   1.28019   1.30340
 Alpha virt. eigenvalues --    1.32852   1.46211   1.46553   1.50866   1.55411
 Alpha virt. eigenvalues --    1.58258   1.62610   1.67970   1.72175   1.74055
 Alpha virt. eigenvalues --    1.76116   1.76770   1.77531   1.79469   1.79751
 Alpha virt. eigenvalues --    1.82023   1.83395   1.89159   1.91023   1.92604
 Alpha virt. eigenvalues --    1.99416   2.06652   2.12437   2.19607   2.19925
 Alpha virt. eigenvalues --    2.28848   2.29296   2.69295   2.77930   2.80058
 Alpha virt. eigenvalues --    3.06890   3.44887   4.04329   4.07562   4.08709
 Alpha virt. eigenvalues --    4.14112   4.43969
          Condensed to atoms (all electrons):
              1          2          3          4          5          6
     1  Ca  19.216949   0.289968  -0.003030  -0.000526   0.006494  -0.006099
     2  Ca   0.289968  18.621441   0.083185   0.054344  -0.001696  -0.008885
     3  O   -0.003030   0.083185   8.437883   0.030694  -0.071550   0.019626
     4  O   -0.000526   0.054344   0.030694   8.451852   0.007326  -0.048512
     5  P    0.006494  -0.001696  -0.071550   0.007326  13.139069   0.234521
     6  O   -0.006099  -0.008885   0.019626  -0.048512   0.234521   8.787974
     7  O   -0.002031   0.018680   0.017586  -0.030766   0.137809  -0.182672
     8  Ca  -0.070937  -0.090029   0.106830   0.044022   0.037875   0.034004
     9  O    0.001435   0.078174  -0.003211   0.084570  -0.079681  -0.079916
              7          8          9
     1  Ca  -0.002031  -0.070937   0.001435
     2  Ca   0.018680  -0.090029   0.078174
     3  O    0.017586   0.106830  -0.003211
     4  O   -0.030766   0.044022   0.084570
     5  P    0.137809   0.037875  -0.079681
     6  O   -0.182672   0.034004  -0.079916
     7  O    8.827540   0.050205  -0.060137
     8  Ca   0.050205  18.324862   0.057430
     9  O   -0.060137   0.057430   8.882232
 Mulliken atomic charges:
              1
     1  Ca   0.567778
     2  Ca   0.954818
     3  O   -0.618014
     4  O   -0.593004
     5  P    1.589833
     6  O   -0.750040
     7  O   -0.776214
     8  Ca   1.505737
     9  O   -0.880895
 Sum of Mulliken charges=   1.00000
 Atomic charges with hydrogens summed into heavy atoms:
              1
     1  Ca   0.567778
     2  Ca   0.954818
     3  O   -0.618014
     4  O   -0.593004
     5  P    1.589833
     6  O   -0.750040
     7  O   -0.776214
     8  Ca   1.505737
     9  O   -0.880895
 Sum of Mulliken charges=   1.00000
 Electronic spatial extent (au):  <R**2>=  3402.6503
 Charge=     1.0000 electrons
 Dipole moment (field-independent basis, Debye):
    X=    -7.5602    Y=    -8.9928    Z=     2.9550  Tot=    12.1144
 Quadrupole moment (field-independent basis, Debye-Ang):
   XX=    35.2462   YY=   -87.4724   ZZ=   -89.6835
   XY=   -25.4737   XZ=     5.4685   YZ=    -4.0874
 Traceless Quadrupole moment (field-independent basis, Debye-Ang):
   XX=    82.5494   YY=   -40.1692   ZZ=   -42.3803
   XY=   -25.4737   XZ=     5.4685   YZ=    -4.0874
 Octapole moment (field-independent basis, Debye-Ang**2):
  XXX=  -263.1539  YYY=   -33.2306  ZZZ=    -1.2767  XYY=    45.3123
  XXY=  -103.6155  XXZ=    27.4170  XZZ=    16.0652  YZZ=    -5.8192
  YYZ=    14.9780  XYZ=    -8.2423
 Hexadecapole moment (field-independent basis, Debye-Ang**3):
 XXXX=  -824.4373 YYYY=  -635.4783 ZZZZ=  -272.5171 XXXY=  -317.4915
 XXXZ=    29.6900 YYYX=   -98.5692 YYYZ=    -9.7351 ZZZX=    13.7509
 ZZZY=   -11.9348 XXYY=  -629.2996 XXZZ=  -638.2143 YYZZ=  -143.4158
 XXYZ=   -20.3471 YYXZ=    21.7997 ZZXY=   -24.8639
 N-N= 9.756230464878D+02 E-N=-8.448885039685D+03  KE= 2.742217176639D+03
 Merz-Kollman atomic radii used.
 Read replacement radii for each type of atom:
 Rad(20) =   1.188000000000D+00
 Atom Element Radius
    1    20    1.19
    2    20    1.19
    3     8    1.40
    4     8    1.40
    5    15    1.80
    6     8    1.40
    7     8    1.40
    8    20    1.19
    9     8    1.40

 **********************************************************************

            Electrostatic Properties Using The SCF Density

 **********************************************************************

       Atomic Center    1 is at  -4.959890 -0.147929  0.100700
       Atomic Center    2 is at  -1.088320 -0.169280 -0.037660
       Atomic Center    3 is at   0.655280 -1.661870 -0.514090
       Atomic Center    4 is at   1.033760 -0.326690 -1.154460
       Atomic Center    5 is at   1.334691  1.123650  0.047830
       Atomic Center    6 is at   0.177871  2.001910 -0.362290
       Atomic Center    7 is at   2.830841  1.260440 -0.179450
       Atomic Center    8 is at   2.753150 -1.147000  0.254800
       Atomic Center    9 is at   1.037350  0.279890  1.326010
     811 points will be used for fitting atomic charges
 Fitting point charges to eletrostatic potential
 Charges from ESP fit, RMS=   0.02032 RRMS=   0.12925:
 Charge=   1.00000 Dipole=    -9.3520    -9.6166     3.0614 Tot=    13.7590
              1
     1  Ca   0.614357
     2  Ca   0.877598
     3  O   -0.684405
     4  O   -0.431634
     5  P    1.492811
     6  O   -0.745832
     7  O   -0.881217
     8  Ca   1.630766
     9  O   -0.872444
 -----------------------------------------------------------------

              Electrostatic Properties (Atomic Units)

 -----------------------------------------------------------------
    Center     Electric         -------- Electric Field --------
               Potential          X             Y             Z
 -----------------------------------------------------------------
    1 Atom    -79.996759
    2 Atom    -80.031782
    3 Atom    -22.211336
    4 Atom    -22.182055
    5 Atom    -53.893441
    6 Atom    -22.234963
    7 Atom    -22.235399
    8 Atom    -79.993869
    9 Atom    -22.234883
 -----------------------------------------------------------------
 1\1\GINC-N031\SP\RB3LYP\6-31+G(d,p)\Ca3O5P1(1+)\TIMN\12-Jun-2015\0\\# 
 b3lyp/6-31+G(d,p) int=ultrafine pop=(ReadRadii,MK)\\mol_17.23.13.pdbcc
 _plusQ.z58214.zip.xyz\\1,1\Ca,0,-4.95989,-0.14793,0.1007\Ca,0,-1.08832
 ,-0.16928,-0.03766\O,0,0.65528,-1.66187,-0.51409\O,0,1.03376,-0.32669,
 -1.15446\P,0,1.33469,1.12365,0.04783\O,0,0.17787,2.00191,-0.36229\O,0,
 2.83084,1.26044,-0.17945\Ca,0,2.75315,-1.147,0.2548\O,0,1.03735,0.2798
 9,1.32601\\Version=EM64T-G03RevE.01\State=1-A\HF=-2750.1249063\RMSD=8.
 323e-05\Thermal=0.\Dipole=-2.9743917,-3.5380536,1.1625998\PG=C01 [X(Ca
 3O5P1)]\\@


    UPON JULIA'S CLOTHES

 WHENAS IN SILKS MY JULIA GOES,
 THEN, THEN, METHINKS, HOW SWEETLY FLOWS
 THAT LIQUEFACTION OF HER CLOTHES.

 NEXT, WHEN I CAST MINE EYES, AND SEE
 THAT BRAVE VIBRATION, EACH WAY FREE,
 O, HOW THAT GLITTERING TAKETH ME!
     -- ROBERT HERRICK, 1648
 Job cpu time:  0 days  0 hours  2 minutes 42.9 seconds.
 File lengths (MBytes):  RWF=     36 Int=      0 D2E=      0 Chk=     11 Scr=      1
 Normal termination of Gaussian 03 at Fri Jun 12 17:51:49 2015.
