 Entering Gaussian System, Link 0=/home/timn/tmp/g03.e01/g03
 Input=mol_16.4.16.pdb_plusQ.out.z51567.zip.xyz.gjf
 Output=mol_16.4.16.pdb_plusQ.out.z51567.zip.xyz.out
 Initial command:
 /home/timn/tmp/g03.e01/l1.exe /home/timn/tmp/g03.e01/Gau-13494.inp -scrdir=/home/timn/tmp/g03.e01/
 Default is to use a total of   2 processors:
                                2 via shared-memory
                                1 via Linda
 Entering Link 1 = /home/timn/tmp/g03.e01/l1.exe PID=     13495.
  
 Copyright (c) 1988,1990,1992,1993,1995,1998,2003,2004,2007, Gaussian, Inc.
                  All Rights Reserved.
  
 This is the Gaussian(R) 03 program.  It is based on the
 the Gaussian(R) 98 system (copyright 1998, Gaussian, Inc.),
 the Gaussian(R) 94 system (copyright 1995, Gaussian, Inc.),
 the Gaussian 92(TM) system (copyright 1992, Gaussian, Inc.),
 the Gaussian 90(TM) system (copyright 1990, Gaussian, Inc.),
 the Gaussian 88(TM) system (copyright 1988, Gaussian, Inc.),
 the Gaussian 86(TM) system (copyright 1986, Carnegie Mellon
 University), and the Gaussian 82(TM) system (copyright 1983,
 Carnegie Mellon University). Gaussian is a federally registered
 trademark of Gaussian, Inc.
  
 This software contains proprietary and confidential information,
 including trade secrets, belonging to Gaussian, Inc.
  
 This software is provided under written license and may be
 used, copied, transmitted, or stored only in accord with that
 written license.
  
 The following legend is applicable only to US Government
 contracts under FAR:
  
                    RESTRICTED RIGHTS LEGEND
  
 Use, reproduction and disclosure by the US Government is
 subject to restrictions as set forth in subparagraphs (a)
 and (c) of the Commercial Computer Software - Restricted
 Rights clause in FAR 52.227-19.
  
 Gaussian, Inc.
 340 Quinnipiac St., Bldg. 40, Wallingford CT 06492
  
  
 ---------------------------------------------------------------
 Warning -- This program may not be used in any manner that
 competes with the business of Gaussian, Inc. or will provide
 assistance to any competitor of Gaussian, Inc.  The licensee
 of this program is prohibited from giving any competitor of
 Gaussian, Inc. access to this program.  By using this program,
 the user acknowledges that Gaussian, Inc. is engaged in the
 business of creating and licensing software in the field of
 computational chemistry and represents and warrants to the
 licensee that it is not a competitor of Gaussian, Inc. and that
 it will not use this program in any manner prohibited above.
 ---------------------------------------------------------------
  

 Cite this work as:
 Gaussian 03, Revision E.01,
 M. J. Frisch, G. W. Trucks, H. B. Schlegel, G. E. Scuseria, 
 M. A. Robb, J. R. Cheeseman, J. A. Montgomery, Jr., T. Vreven, 
 K. N. Kudin, J. C. Burant, J. M. Millam, S. S. Iyengar, J. Tomasi, 
 V. Barone, B. Mennucci, M. Cossi, G. Scalmani, N. Rega, 
 G. A. Petersson, H. Nakatsuji, M. Hada, M. Ehara, K. Toyota, 
 R. Fukuda, J. Hasegawa, M. Ishida, T. Nakajima, Y. Honda, O. Kitao, 
 H. Nakai, M. Klene, X. Li, J. E. Knox, H. P. Hratchian, J. B. Cross, 
 V. Bakken, C. Adamo, J. Jaramillo, R. Gomperts, R. E. Stratmann, 
 O. Yazyev, A. J. Austin, R. Cammi, C. Pomelli, J. W. Ochterski, 
 P. Y. Ayala, K. Morokuma, G. A. Voth, P. Salvador, J. J. Dannenberg, 
 V. G. Zakrzewski, S. Dapprich, A. D. Daniels, M. C. Strain, 
 O. Farkas, D. K. Malick, A. D. Rabuck, K. Raghavachari, 
 J. B. Foresman, J. V. Ortiz, Q. Cui, A. G. Baboul, S. Clifford, 
 J. Cioslowski, B. B. Stefanov, G. Liu, A. Liashenko, P. Piskorz, 
 I. Komaromi, R. L. Martin, D. J. Fox, T. Keith, M. A. Al-Laham, 
 C. Y. Peng, A. Nanayakkara, M. Challacombe, P. M. W. Gill, 
 B. Johnson, W. Chen, M. W. Wong, C. Gonzalez, and J. A. Pople, 
 Gaussian, Inc., Wallingford CT, 2004.
 
 ******************************************
 Gaussian 03:  EM64T-G03RevE.01 11-Sep-2007
                12-Jun-2015 
 ******************************************
 %nproc=2
 Will use up to    2 processors via shared memory.
 Default route:  MP2=Direct MaxDisk=2000MB
 ----------------------------------------------------
 # b3lyp/6-31+G(d,p) int=ultrafine pop=(ReadRadii,MK)
 ----------------------------------------------------

 Warning!  SCF SP cutoffs with diffuse functions may be unreliable.
 Consider SCF=Tight

 1/38=1/1;
 2/17=6,18=5,40=1/2;
 3/5=1,6=6,7=111,11=2,16=1,25=1,30=1,74=-5,75=5/1,2,3;
 4//1;
 5/5=2,32=1,38=5/2;
 6/7=2,8=2,9=2,10=2,15=8,20=101,28=1/1,2;
 99/5=1,9=1/99;
 ----------------------------------------
 mol_16.4.16.pdb_plusQ.out.z51567.zip.xyz
 ----------------------------------------
 Symbolic Z-matrix:
 Charge =  1 Multiplicity = 1
 Ca                   -0.76403  -1.8572   -0.00114 
 O                     1.44085  -1.27507   0.00119 
 P                     2.32015  -0.00275   0.00149 
 O                     1.44414   1.27183  -0.00511 
 O                    -1.71497   0.0023   -0.78506 
 O                    -1.71226   0.00162   0.78728 
 Ca                   -0.75918   1.85899   0.0007 
 
                          Input orientation:                          
 ---------------------------------------------------------------------
 Center     Atomic     Atomic              Coordinates (Angstroms)
 Number     Number      Type              X           Y           Z
 ---------------------------------------------------------------------
    1         20             0       -0.764030   -1.857200   -0.001140
    2          8             0        1.440850   -1.275070    0.001190
    3         15             0        2.320150   -0.002750    0.001490
    4          8             0        1.444140    1.271830   -0.005110
    5          8             0       -1.714970    0.002300   -0.785060
    6          8             0       -1.712260    0.001620    0.787280
    7         20             0       -0.759180    1.858990    0.000700
 ---------------------------------------------------------------------
                    Distance matrix (angstroms):
                    1          2          3          4          5
     1  Ca   0.000000
     2  O    2.280433   0.000000
     3  P    3.598772   1.546598   0.000000
     4  O    3.829734   2.546910   1.546606   0.000000
     5  O    2.230820   3.494147   4.111068   3.492850   0.000000
     6  O    2.230686   3.491415   4.108262   3.493448   1.572342
     7  Ca   3.716194   3.829160   3.598382   2.280221   2.231199
                    6          7
     6  O    0.000000
     7  Ca   2.230895   0.000000
 Stoichiometry    Ca2O4P(1+)
 Framework group  C1[X(Ca2O4P)]
 Deg. of freedom    15
 Full point group                 C1
 Largest Abelian subgroup         C1      NOp   1
 Largest concise Abelian subgroup C1      NOp   1
                         Standard orientation:                         
 ---------------------------------------------------------------------
 Center     Atomic     Atomic              Coordinates (Angstroms)
 Number     Number      Type              X           Y           Z
 ---------------------------------------------------------------------
    1         20             0       -0.763999   -1.857213   -0.001139
    2          8             0        1.440871   -1.275045    0.001191
    3         15             0        2.320149   -0.002709    0.001491
    4          8             0        1.444116    1.271856   -0.005109
    5          8             0       -1.714972    0.002270   -0.785059
    6          8             0       -1.712262    0.001590    0.787281
    7         20             0       -0.759214    1.858977    0.000701
 ---------------------------------------------------------------------
 Rotational constants (GHZ):      1.4539389      1.2848450      0.7205425
 Standard basis: 6-31+G(d,p) (6D, 7F)
 There are   153 symmetry adapted basis functions of A   symmetry.
 Integral buffers will be    131072 words long.
 Raffenetti 2 integral format.
 Two-electron integral symmetry is turned on.
   153 basis functions,   344 primitive gaussians,   153 cartesian basis functions
    43 alpha electrons       43 beta electrons
       nuclear repulsion energy       602.1206415413 Hartrees.
 NAtoms=    7 NActive=    7 NUniq=    7 SFac= 7.50D-01 NAtFMM=   80 NAOKFM=F Big=F
 One-electron integrals computed using PRISM.
 NBasis=   153 RedAO= T  NBF=   153
 NBsUse=   153 1.00D-06 NBFU=   153
 Harris functional with IExCor=  402 diagonalized for initial guess.
 ExpMin= 7.10D-03 ExpMax= 3.53D+04 ExpMxC= 5.30D+03 IAcc=3 IRadAn=         5 AccDes= 0.00D+00
 HarFok:  IExCor= 402 AccDes= 0.00D+00 IRadAn=         5 IDoV=1
 ScaDFX=  1.000000  1.000000  1.000000  1.000000
 Initial guess orbital symmetries:
       Occupied  (A) (A) (A) (A) (A) (A) (A) (A) (A) (A) (A) (A)
                 (A) (A) (A) (A) (A) (A) (A) (A) (A) (A) (A) (A)
                 (A) (A) (A) (A) (A) (A) (A) (A) (A) (A) (A) (A)
                 (A) (A) (A) (A) (A) (A) (A)
       Virtual   (A) (A) (A) (A) (A) (A) (A) (A) (A) (A) (A) (A)
                 (A) (A) (A) (A) (A) (A) (A) (A) (A) (A) (A) (A)
                 (A) (A) (A) (A) (A) (A) (A) (A) (A) (A) (A) (A)
                 (A) (A) (A) (A) (A) (A) (A) (A) (A) (A) (A) (A)
                 (A) (A) (A) (A) (A) (A) (A) (A) (A) (A) (A) (A)
                 (A) (A) (A) (A) (A) (A) (A) (A) (A) (A) (A) (A)
                 (A) (A) (A) (A) (A) (A) (A) (A) (A) (A) (A) (A)
                 (A) (A) (A) (A) (A) (A) (A) (A) (A) (A) (A) (A)
                 (A) (A) (A) (A) (A) (A) (A) (A) (A) (A) (A) (A)
                 (A) (A)
 The electronic state of the initial guess is 1-A.
 Requested convergence on RMS density matrix=1.00D-04 within 128 cycles.
 Requested convergence on MAX density matrix=1.00D-02.
 Requested convergence on             energy=1.00D-02.
 No special actions if energy rises.
 SCF Done:  E(RB+HF-LYP) =  -1997.33372410     A.U. after    6 cycles
             Convg  =    0.4403D-04             -V/T =  2.0031
             S**2   =   0.0000

 **********************************************************************

            Population analysis using the SCF density.

 **********************************************************************

 Orbital symmetries:
       Occupied  (A) (A) (A) (A) (A) (A) (A) (A) (A) (A) (A) (A)
                 (A) (A) (A) (A) (A) (A) (A) (A) (A) (A) (A) (A)
                 (A) (A) (A) (A) (A) (A) (A) (A) (A) (A) (A) (A)
                 (A) (A) (A) (A) (A) (A) (A)
       Virtual   (A) (A) (A) (A) (A) (A) (A) (A) (A) (A) (A) (A)
                 (A) (A) (A) (A) (A) (A) (A) (A) (A) (A) (A) (A)
                 (A) (A) (A) (A) (A) (A) (A) (A) (A) (A) (A) (A)
                 (A) (A) (A) (A) (A) (A) (A) (A) (A) (A) (A) (A)
                 (A) (A) (A) (A) (A) (A) (A) (A) (A) (A) (A) (A)
                 (A) (A) (A) (A) (A) (A) (A) (A) (A) (A) (A) (A)
                 (A) (A) (A) (A) (A) (A) (A) (A) (A) (A) (A) (A)
                 (A) (A) (A) (A) (A) (A) (A) (A) (A) (A) (A) (A)
                 (A) (A) (A) (A) (A) (A) (A) (A) (A) (A) (A) (A)
                 (A) (A)
 The electronic state is 1-A.
 Alpha  occ. eigenvalues -- -145.53249-145.53246 -77.30163 -19.27955 -19.27950
 Alpha  occ. eigenvalues --  -19.25592 -19.25583 -15.60096 -15.60093 -12.73310
 Alpha  occ. eigenvalues --  -12.73308 -12.73292 -12.73290 -12.73210 -12.73207
 Alpha  occ. eigenvalues --   -6.75644  -4.92084  -4.91869  -4.91424  -1.97237
 Alpha  occ. eigenvalues --   -1.97211  -1.25766  -1.24807  -1.24793  -1.24727
 Alpha  occ. eigenvalues --   -1.24726  -1.24303  -1.13923  -1.08554  -1.08252
 Alpha  occ. eigenvalues --   -0.89519  -0.67705  -0.57281  -0.52822  -0.52600
 Alpha  occ. eigenvalues --   -0.48993  -0.47945  -0.46120  -0.45761  -0.43899
 Alpha  occ. eigenvalues --   -0.40701  -0.37189  -0.34165
 Alpha virt. eigenvalues --   -0.20457  -0.19853  -0.19631  -0.14480  -0.11368
 Alpha virt. eigenvalues --   -0.11280  -0.10319  -0.09667  -0.09042  -0.07376
 Alpha virt. eigenvalues --   -0.07215  -0.06432  -0.05962  -0.05215  -0.04858
 Alpha virt. eigenvalues --   -0.04431  -0.04389  -0.04083  -0.03999  -0.03874
 Alpha virt. eigenvalues --   -0.03337  -0.02378   0.00221   0.01109   0.02011
 Alpha virt. eigenvalues --    0.02949   0.03324   0.03643   0.04211   0.05047
 Alpha virt. eigenvalues --    0.05143   0.05190   0.06781   0.07028   0.07278
 Alpha virt. eigenvalues --    0.07476   0.08123   0.08216   0.12230   0.13582
 Alpha virt. eigenvalues --    0.14151   0.14767   0.16274   0.16813   0.16921
 Alpha virt. eigenvalues --    0.18687   0.20333   0.21715   0.24406   0.26748
 Alpha virt. eigenvalues --    0.28309   0.29464   0.31798   0.32141   0.32486
 Alpha virt. eigenvalues --    0.36019   0.36748   0.40443   0.43966   0.45537
 Alpha virt. eigenvalues --    0.48012   0.56596   0.57820   0.60210   0.65644
 Alpha virt. eigenvalues --    0.71333   0.87003   0.90189   0.94374   1.03573
 Alpha virt. eigenvalues --    1.05864   1.07984   1.08401   1.12007   1.12334
 Alpha virt. eigenvalues --    1.14814   1.15162   1.17892   1.20708   1.23936
 Alpha virt. eigenvalues --    1.28614   1.38346   1.43000   1.46782   1.50560
 Alpha virt. eigenvalues --    1.50920   1.58077   1.66234   1.68013   1.70621
 Alpha virt. eigenvalues --    1.71274   1.75746   1.80023   1.81207   1.82381
 Alpha virt. eigenvalues --    1.84420   1.85978   1.86057   1.92955   2.09465
 Alpha virt. eigenvalues --    2.16202   2.16969   2.53537   2.67515   3.00304
 Alpha virt. eigenvalues --    3.38475   3.83792   3.90576   3.97502   4.05860
          Condensed to atoms (all electrons):
              1          2          3          4          5          6
     1  Ca  18.210040   0.067426  -0.019085   0.002346   0.106198   0.105737
     2  O    0.067426   8.815354  -0.094347  -0.085955   0.002505   0.002576
     3  P   -0.019085  -0.094347  14.566773  -0.094267  -0.004586  -0.004174
     4  O    0.002346  -0.085955  -0.094267   8.815151   0.002610   0.002472
     5  O    0.106198   0.002505  -0.004586   0.002610   8.515591  -0.059813
     6  O    0.105737   0.002576  -0.004174   0.002472  -0.059813   8.515902
     7  Ca  -0.016660   0.002342  -0.019105   0.067467   0.105840   0.106073
              7
     1  Ca  -0.016660
     2  O    0.002342
     3  P   -0.019105
     4  O    0.067467
     5  O    0.105840
     6  O    0.106073
     7  Ca  18.209990
 Mulliken atomic charges:
              1
     1  Ca   1.543997
     2  O   -0.709900
     3  P    0.668792
     4  O   -0.709823
     5  O   -0.668346
     6  O   -0.668774
     7  Ca   1.544054
 Sum of Mulliken charges=   1.00000
 Atomic charges with hydrogens summed into heavy atoms:
              1
     1  Ca   1.543997
     2  O   -0.709900
     3  P    0.668792
     4  O   -0.709823
     5  O   -0.668346
     6  O   -0.668774
     7  Ca   1.544054
 Sum of Mulliken charges=   1.00000
 Electronic spatial extent (au):  <R**2>=  1378.3826
 Charge=     1.0000 electrons
 Dipole moment (field-independent basis, Debye):
    X=    -3.1397    Y=     0.0040    Z=     0.0004  Tot=     3.1397
 Quadrupole moment (field-independent basis, Debye-Ang):
   XX=   -66.5086   YY=    -8.8852   ZZ=   -58.2537
   XY=     0.0720   XZ=     0.0181   YZ=     0.0602
 Traceless Quadrupole moment (field-independent basis, Debye-Ang):
   XX=   -21.9594   YY=    35.6639   ZZ=   -13.7045
   XY=     0.0720   XZ=     0.0181   YZ=     0.0602
 Octapole moment (field-independent basis, Debye-Ang**2):
  XXX=     6.9452  YYY=     0.2455  ZZZ=    -0.0297  XYY=   -70.8648
  XXY=    -0.1862  XXZ=    -0.0252  XZZ=     1.4179  YZZ=    -0.0017
  YYZ=     0.0070  XYZ=     0.0171
 Hexadecapole moment (field-independent basis, Debye-Ang**3):
 XXXX=  -943.0915 YYYY=  -329.5265 ZZZZ=  -103.9579 XXXY=     0.2970
 XXXZ=    -0.1395 YYYX=     0.3691 YYYZ=     0.2397 ZZZX=     0.0328
 ZZZY=     0.0901 XXYY=  -220.7558 XXZZ=  -174.5140 YYZZ=  -103.3785
 XXYZ=     0.1027 YYXZ=     0.0443 ZZXY=     0.0700
 N-N= 6.021206415413D+02 E-N=-5.923674875926D+03  KE= 1.991110204416D+03
 Merz-Kollman atomic radii used.
 Read replacement radii for each type of atom:
 Rad(20) =   1.188000000000D+00
 Atom Element Radius
    1    20    1.19
    2     8    1.40
    3    15    1.80
    4     8    1.40
    5     8    1.40
    6     8    1.40
    7    20    1.19

 **********************************************************************

            Electrostatic Properties Using The SCF Density

 **********************************************************************

       Atomic Center    1 is at  -0.763999 -1.857213 -0.001139
       Atomic Center    2 is at   1.440871 -1.275045  0.001191
       Atomic Center    3 is at   2.320149 -0.002709  0.001491
       Atomic Center    4 is at   1.444116  1.271856 -0.005109
       Atomic Center    5 is at  -1.714972  0.002270 -0.785059
       Atomic Center    6 is at  -1.712262  0.001590  0.787281
       Atomic Center    7 is at  -0.759214  1.858977  0.000701
     706 points will be used for fitting atomic charges
 Fitting point charges to eletrostatic potential
 Charges from ESP fit, RMS=   0.00424 RRMS=   0.02787:
 Charge=   1.00000 Dipole=    -2.9799     0.0052     0.0059 Tot=     2.9799
              1
     1  Ca   1.723154
     2  O   -0.755366
     3  P    0.639345
     4  O   -0.754903
     5  O   -0.787529
     6  O   -0.787752
     7  Ca   1.723051
 -----------------------------------------------------------------

              Electrostatic Properties (Atomic Units)

 -----------------------------------------------------------------
    Center     Electric         -------- Electric Field --------
               Potential          X             Y             Z
 -----------------------------------------------------------------
    1 Atom    -80.007949
    2 Atom    -22.184201
    3 Atom    -53.916357
    4 Atom    -22.184054
    5 Atom    -22.213943
    6 Atom    -22.214170
    7 Atom    -80.007914
 -----------------------------------------------------------------
 1\1\GINC-N059\SP\RB3LYP\6-31+G(d,p)\Ca2O4P1(1+)\TIMN\12-Jun-2015\0\\# 
 b3lyp/6-31+G(d,p) int=ultrafine pop=(ReadRadii,MK)\\mol_16.4.16.pdb_pl
 usQ.out.z51567.zip.xyz\\1,1\Ca,0,-0.76403,-1.8572,-0.00114\O,0,1.44085
 ,-1.27507,0.00119\P,0,2.32015,-0.00275,0.00149\O,0,1.44414,1.27183,-0.
 00511\O,0,-1.71497,0.0023,-0.78506\O,0,-1.71226,0.00162,0.78728\Ca,0,-
 0.75918,1.85899,0.0007\\Version=EM64T-G03RevE.01\State=1-A\HF=-1997.33
 37241\RMSD=4.403e-05\Thermal=0.\Dipole=-1.2352456,0.0016134,0.0001638\
 PG=C01 [X(Ca2O4P1)]\\@


 IN-LAWS ARE LIKE SEEDS. YOU DON'T NEED THEM
 BUT THEY COME WITH THE TOMATO.
 Job cpu time:  0 days  0 hours  0 minutes 47.5 seconds.
 File lengths (MBytes):  RWF=     28 Int=      0 D2E=      0 Chk=     10 Scr=      1
 Normal termination of Gaussian 03 at Fri Jun 12 17:48:11 2015.
