 Entering Gaussian System, Link 0=/home/timn/tmp/g03.e01/g03
 Input=mol_17.28.48.pdbcc_plusQ.z58572.zip.xyz.gjf
 Output=mol_17.28.48.pdbcc_plusQ.z58572.zip.xyz.out
 Initial command:
 /home/timn/tmp/g03.e01/l1.exe /home/timn/tmp/g03.e01/Gau-20352.inp -scrdir=/home/timn/tmp/g03.e01/
 Default is to use a total of   2 processors:
                                2 via shared-memory
                                1 via Linda
 Entering Link 1 = /home/timn/tmp/g03.e01/l1.exe PID=     20353.
  
 Copyright (c) 1988,1990,1992,1993,1995,1998,2003,2004,2007, Gaussian, Inc.
                  All Rights Reserved.
  
 This is the Gaussian(R) 03 program.  It is based on the
 the Gaussian(R) 98 system (copyright 1998, Gaussian, Inc.),
 the Gaussian(R) 94 system (copyright 1995, Gaussian, Inc.),
 the Gaussian 92(TM) system (copyright 1992, Gaussian, Inc.),
 the Gaussian 90(TM) system (copyright 1990, Gaussian, Inc.),
 the Gaussian 88(TM) system (copyright 1988, Gaussian, Inc.),
 the Gaussian 86(TM) system (copyright 1986, Carnegie Mellon
 University), and the Gaussian 82(TM) system (copyright 1983,
 Carnegie Mellon University). Gaussian is a federally registered
 trademark of Gaussian, Inc.
  
 This software contains proprietary and confidential information,
 including trade secrets, belonging to Gaussian, Inc.
  
 This software is provided under written license and may be
 used, copied, transmitted, or stored only in accord with that
 written license.
  
 The following legend is applicable only to US Government
 contracts under FAR:
  
                    RESTRICTED RIGHTS LEGEND
  
 Use, reproduction and disclosure by the US Government is
 subject to restrictions as set forth in subparagraphs (a)
 and (c) of the Commercial Computer Software - Restricted
 Rights clause in FAR 52.227-19.
  
 Gaussian, Inc.
 340 Quinnipiac St., Bldg. 40, Wallingford CT 06492
  
  
 ---------------------------------------------------------------
 Warning -- This program may not be used in any manner that
 competes with the business of Gaussian, Inc. or will provide
 assistance to any competitor of Gaussian, Inc.  The licensee
 of this program is prohibited from giving any competitor of
 Gaussian, Inc. access to this program.  By using this program,
 the user acknowledges that Gaussian, Inc. is engaged in the
 business of creating and licensing software in the field of
 computational chemistry and represents and warrants to the
 licensee that it is not a competitor of Gaussian, Inc. and that
 it will not use this program in any manner prohibited above.
 ---------------------------------------------------------------
  

 Cite this work as:
 Gaussian 03, Revision E.01,
 M. J. Frisch, G. W. Trucks, H. B. Schlegel, G. E. Scuseria, 
 M. A. Robb, J. R. Cheeseman, J. A. Montgomery, Jr., T. Vreven, 
 K. N. Kudin, J. C. Burant, J. M. Millam, S. S. Iyengar, J. Tomasi, 
 V. Barone, B. Mennucci, M. Cossi, G. Scalmani, N. Rega, 
 G. A. Petersson, H. Nakatsuji, M. Hada, M. Ehara, K. Toyota, 
 R. Fukuda, J. Hasegawa, M. Ishida, T. Nakajima, Y. Honda, O. Kitao, 
 H. Nakai, M. Klene, X. Li, J. E. Knox, H. P. Hratchian, J. B. Cross, 
 V. Bakken, C. Adamo, J. Jaramillo, R. Gomperts, R. E. Stratmann, 
 O. Yazyev, A. J. Austin, R. Cammi, C. Pomelli, J. W. Ochterski, 
 P. Y. Ayala, K. Morokuma, G. A. Voth, P. Salvador, J. J. Dannenberg, 
 V. G. Zakrzewski, S. Dapprich, A. D. Daniels, M. C. Strain, 
 O. Farkas, D. K. Malick, A. D. Rabuck, K. Raghavachari, 
 J. B. Foresman, J. V. Ortiz, Q. Cui, A. G. Baboul, S. Clifford, 
 J. Cioslowski, B. B. Stefanov, G. Liu, A. Liashenko, P. Piskorz, 
 I. Komaromi, R. L. Martin, D. J. Fox, T. Keith, M. A. Al-Laham, 
 C. Y. Peng, A. Nanayakkara, M. Challacombe, P. M. W. Gill, 
 B. Johnson, W. Chen, M. W. Wong, C. Gonzalez, and J. A. Pople, 
 Gaussian, Inc., Wallingford CT, 2004.
 
 ******************************************
 Gaussian 03:  EM64T-G03RevE.01 11-Sep-2007
                12-Jun-2015 
 ******************************************
 %nproc=2
 Will use up to    2 processors via shared memory.
 Default route:  MP2=Direct MaxDisk=2000MB
 ----------------------------------------------------
 # b3lyp/6-31+G(d,p) int=ultrafine pop=(ReadRadii,MK)
 ----------------------------------------------------

 Warning!  SCF SP cutoffs with diffuse functions may be unreliable.
 Consider SCF=Tight

 1/38=1/1;
 2/17=6,18=5,40=1/2;
 3/5=1,6=6,7=111,11=2,16=1,25=1,30=1,74=-5,75=5/1,2,3;
 4//1;
 5/5=2,32=1,38=5/2;
 6/7=2,8=2,9=2,10=2,15=8,20=101,28=1/1,2;
 99/5=1,9=1/99;
 ---------------------------------------
 mol_17.28.48.pdbcc_plusQ.z58572.zip.xyz
 ---------------------------------------
 Symbolic Z-matrix:
 Charge =  1 Multiplicity = 1
 O                     2.11578   0.14375  -0.06368 
 O                     1.5508   -1.01291  -0.88151 
 P                    -0.12046  -1.13828  -1.42812 
 O                    -0.64223   0.41891  -1.49997 
 O                    -0.42037   1.04265   1.40561 
 O                    -0.83729  -1.60435  -0.01397 
 Ca                    0.72638   1.91523  -0.33457 
 Ca                   -2.16316   0.23559   0.31437 
 Ca                    0.82045  -0.89233   1.51269 
 
                          Input orientation:                          
 ---------------------------------------------------------------------
 Center     Atomic     Atomic              Coordinates (Angstroms)
 Number     Number      Type              X           Y           Z
 ---------------------------------------------------------------------
    1          8             0        2.115780    0.143750   -0.063680
    2          8             0        1.550800   -1.012910   -0.881510
    3         15             0       -0.120460   -1.138280   -1.428120
    4          8             0       -0.642230    0.418910   -1.499970
    5          8             0       -0.420370    1.042650    1.405610
    6          8             0       -0.837290   -1.604350   -0.013970
    7         20             0        0.726380    1.915230   -0.334570
    8         20             0       -2.163160    0.235590    0.314370
    9         20             0        0.820450   -0.892330    1.512690
 ---------------------------------------------------------------------
                    Distance matrix (angstroms):
                    1          2          3          4          5
     1  O    0.000000
     2  O    1.525094   0.000000
     3  P    2.916516   1.762841   0.000000
     4  O    3.121740   2.691093   1.643851   0.000000
     5  O    3.065761   3.652637   3.588374   2.980045   0.000000
     6  O    3.432047   2.608716   1.652539   2.517901   3.032431
     7  Ca   2.267588   3.090763   3.352150   2.338851   2.259349
     8  Ca   4.296590   4.096630   3.016026   2.374587   2.208952
     9  Ca   2.288293   2.506022   3.097445   3.596513   2.301141
                    6          7          8          9
     6  O    0.000000
     7  Ca   3.864620   0.000000
     8  Ca   2.291532   3.404667   0.000000
     9  Ca   2.363422   3.362084   3.407360   0.000000
 Stoichiometry    Ca3O5P(1+)
 Framework group  C1[X(Ca3O5P)]
 Deg. of freedom    21
 Full point group                 C1
 Largest Abelian subgroup         C1      NOp   1
 Largest concise Abelian subgroup C1      NOp   1
                         Standard orientation:                         
 ---------------------------------------------------------------------
 Center     Atomic     Atomic              Coordinates (Angstroms)
 Number     Number      Type              X           Y           Z
 ---------------------------------------------------------------------
    1          8             0        2.115781    0.143739   -0.063679
    2          8             0        1.550794   -1.012918   -0.881509
    3         15             0       -0.120466   -1.138279   -1.428119
    4          8             0       -0.642228    0.418913   -1.499969
    5          8             0       -0.420365    1.042652    1.405611
    6          8             0       -0.837299   -1.604346   -0.013969
    7         20             0        0.726390    1.915226   -0.334569
    8         20             0       -2.163159    0.235601    0.314371
    9         20             0        0.820445   -0.892334    1.512691
 ---------------------------------------------------------------------
 Rotational constants (GHZ):      0.9324806      0.8295729      0.7599192
 Standard basis: 6-31+G(d,p) (6D, 7F)
 There are   199 symmetry adapted basis functions of A   symmetry.
 Integral buffers will be    131072 words long.
 Raffenetti 2 integral format.
 Two-electron integral symmetry is turned on.
   199 basis functions,   456 primitive gaussians,   199 cartesian basis functions
    57 alpha electrons       57 beta electrons
       nuclear repulsion energy      1094.4112789883 Hartrees.
 NAtoms=    9 NActive=    9 NUniq=    9 SFac= 7.50D-01 NAtFMM=   80 NAOKFM=F Big=F
 One-electron integrals computed using PRISM.
 NBasis=   199 RedAO= T  NBF=   199
 NBsUse=   199 1.00D-06 NBFU=   199
 Harris functional with IExCor=  402 diagonalized for initial guess.
 ExpMin= 7.10D-03 ExpMax= 3.53D+04 ExpMxC= 5.30D+03 IAcc=3 IRadAn=         5 AccDes= 0.00D+00
 HarFok:  IExCor= 402 AccDes= 0.00D+00 IRadAn=         5 IDoV=1
 ScaDFX=  1.000000  1.000000  1.000000  1.000000
 Initial guess orbital symmetries:
       Occupied  (A) (A) (A) (A) (A) (A) (A) (A) (A) (A) (A) (A)
                 (A) (A) (A) (A) (A) (A) (A) (A) (A) (A) (A) (A)
                 (A) (A) (A) (A) (A) (A) (A) (A) (A) (A) (A) (A)
                 (A) (A) (A) (A) (A) (A) (A) (A) (A) (A) (A) (A)
                 (A) (A) (A) (A) (A) (A) (A) (A) (A)
       Virtual   (A) (A) (A) (A) (A) (A) (A) (A) (A) (A) (A) (A)
                 (A) (A) (A) (A) (A) (A) (A) (A) (A) (A) (A) (A)
                 (A) (A) (A) (A) (A) (A) (A) (A) (A) (A) (A) (A)
                 (A) (A) (A) (A) (A) (A) (A) (A) (A) (A) (A) (A)
                 (A) (A) (A) (A) (A) (A) (A) (A) (A) (A) (A) (A)
                 (A) (A) (A) (A) (A) (A) (A) (A) (A) (A) (A) (A)
                 (A) (A) (A) (A) (A) (A) (A) (A) (A) (A) (A) (A)
                 (A) (A) (A) (A) (A) (A) (A) (A) (A) (A) (A) (A)
                 (A) (A) (A) (A) (A) (A) (A) (A) (A) (A) (A) (A)
                 (A) (A) (A) (A) (A) (A) (A) (A) (A) (A) (A) (A)
                 (A) (A) (A) (A) (A) (A) (A) (A) (A) (A) (A) (A)
                 (A) (A) (A) (A) (A) (A) (A) (A) (A) (A)
 The electronic state of the initial guess is 1-A.
 Requested convergence on RMS density matrix=1.00D-04 within 128 cycles.
 Requested convergence on MAX density matrix=1.00D-02.
 Requested convergence on             energy=1.00D-02.
 No special actions if energy rises.
 EnCoef did     3 forward-backward iterations
 SCF Done:  E(RB+HF-LYP) =  -2750.21035343     A.U. after    8 cycles
             Convg  =    0.9333D-04             -V/T =  2.0029
             S**2   =   0.0000

 **********************************************************************

            Population analysis using the SCF density.

 **********************************************************************

 Orbital symmetries:
       Occupied  (A) (A) (A) (A) (A) (A) (A) (A) (A) (A) (A) (A)
                 (A) (A) (A) (A) (A) (A) (A) (A) (A) (A) (A) (A)
                 (A) (A) (A) (A) (A) (A) (A) (A) (A) (A) (A) (A)
                 (A) (A) (A) (A) (A) (A) (A) (A) (A) (A) (A) (A)
                 (A) (A) (A) (A) (A) (A) (A) (A) (A)
       Virtual   (A) (A) (A) (A) (A) (A) (A) (A) (A) (A) (A) (A)
                 (A) (A) (A) (A) (A) (A) (A) (A) (A) (A) (A) (A)
                 (A) (A) (A) (A) (A) (A) (A) (A) (A) (A) (A) (A)
                 (A) (A) (A) (A) (A) (A) (A) (A) (A) (A) (A) (A)
                 (A) (A) (A) (A) (A) (A) (A) (A) (A) (A) (A) (A)
                 (A) (A) (A) (A) (A) (A) (A) (A) (A) (A) (A) (A)
                 (A) (A) (A) (A) (A) (A) (A) (A) (A) (A) (A) (A)
                 (A) (A) (A) (A) (A) (A) (A) (A) (A) (A) (A) (A)
                 (A) (A) (A) (A) (A) (A) (A) (A) (A) (A) (A) (A)
                 (A) (A) (A) (A) (A) (A) (A) (A) (A) (A) (A) (A)
                 (A) (A) (A) (A) (A) (A) (A) (A) (A) (A) (A) (A)
                 (A) (A) (A) (A) (A) (A) (A) (A) (A) (A)
 The electronic state is 1-A.
 Alpha  occ. eigenvalues -- -145.50970-145.50028-145.49666 -77.27051 -19.28848
 Alpha  occ. eigenvalues --  -19.25352 -19.23437 -19.23046 -19.16661 -15.57806
 Alpha  occ. eigenvalues --  -15.56853 -15.56458 -12.71015 -12.70978 -12.70929
 Alpha  occ. eigenvalues --  -12.70046 -12.70035 -12.69990 -12.69678 -12.69620
 Alpha  occ. eigenvalues --  -12.69607  -6.72146  -4.88573  -4.88433  -4.87911
 Alpha  occ. eigenvalues --   -1.95107  -1.94137  -1.93670  -1.23172  -1.22844
 Alpha  occ. eigenvalues --   -1.22456  -1.22337  -1.21694  -1.21424  -1.21270
 Alpha  occ. eigenvalues --   -1.21081  -1.20712  -1.13163  -1.07408  -1.02710
 Alpha  occ. eigenvalues --   -0.93104  -0.91572  -0.65301  -0.55841  -0.52717
 Alpha  occ. eigenvalues --   -0.51418  -0.48525  -0.47298  -0.44393  -0.42327
 Alpha  occ. eigenvalues --   -0.39795  -0.38427  -0.37059  -0.36743  -0.35862
 Alpha  occ. eigenvalues --   -0.34632  -0.32798
 Alpha virt. eigenvalues --   -0.20649  -0.18457  -0.17444  -0.13991  -0.12920
 Alpha virt. eigenvalues --   -0.11314  -0.10746  -0.09643  -0.08859  -0.08053
 Alpha virt. eigenvalues --   -0.07442  -0.06425  -0.06170  -0.05806  -0.05314
 Alpha virt. eigenvalues --   -0.04947  -0.04918  -0.04691  -0.04371  -0.04093
 Alpha virt. eigenvalues --   -0.03852  -0.03692  -0.03222  -0.03133  -0.02703
 Alpha virt. eigenvalues --   -0.02349  -0.01748  -0.00699   0.01025   0.01765
 Alpha virt. eigenvalues --    0.02067   0.02710   0.03380   0.04041   0.04338
 Alpha virt. eigenvalues --    0.05339   0.05693   0.05887   0.06075   0.06429
 Alpha virt. eigenvalues --    0.06835   0.07149   0.07563   0.07627   0.08026
 Alpha virt. eigenvalues --    0.09476   0.09799   0.10252   0.11286   0.11721
 Alpha virt. eigenvalues --    0.12847   0.13886   0.15412   0.15600   0.17157
 Alpha virt. eigenvalues --    0.19384   0.20453   0.20738   0.21138   0.22431
 Alpha virt. eigenvalues --    0.23542   0.23635   0.24864   0.25317   0.26023
 Alpha virt. eigenvalues --    0.27691   0.29998   0.30969   0.32447   0.34076
 Alpha virt. eigenvalues --    0.34855   0.35475   0.37302   0.38221   0.39151
 Alpha virt. eigenvalues --    0.40504   0.42771   0.45129   0.48447   0.52177
 Alpha virt. eigenvalues --    0.53963   0.58232   0.61105   0.62488   0.65228
 Alpha virt. eigenvalues --    0.80044   0.84228   0.87317   0.90356   0.96135
 Alpha virt. eigenvalues --    1.10340   1.12680   1.13276   1.15392   1.16670
 Alpha virt. eigenvalues --    1.17792   1.19516   1.20484   1.21965   1.22830
 Alpha virt. eigenvalues --    1.23714   1.26496   1.27270   1.31314   1.32582
 Alpha virt. eigenvalues --    1.39079   1.47721   1.51353   1.53301   1.59219
 Alpha virt. eigenvalues --    1.60905   1.67733   1.68965   1.70580   1.71874
 Alpha virt. eigenvalues --    1.76271   1.78912   1.79883   1.84201   1.85742
 Alpha virt. eigenvalues --    1.86436   1.89126   1.89520   1.91716   1.93161
 Alpha virt. eigenvalues --    1.96049   1.97157   1.98659   2.01529   2.08819
 Alpha virt. eigenvalues --    2.15109   2.20978   2.32834   2.50974   2.58413
 Alpha virt. eigenvalues --    3.06221   3.51037   4.00849   4.10625   4.13723
 Alpha virt. eigenvalues --    4.22590   4.33573
          Condensed to atoms (all electrons):
              1          2          3          4          5          6
     1  O    8.432844  -0.028186  -0.007552  -0.005135   0.022264   0.015475
     2  O   -0.028186   8.560173  -0.125966   0.032333  -0.013268   0.034087
     3  P   -0.007552  -0.125966  14.359426  -0.099790  -0.026409  -0.154932
     4  O   -0.005135   0.032333  -0.099790   8.952441   0.018790   0.022365
     5  O    0.022264  -0.013268  -0.026409   0.018790   8.856228   0.028918
     6  O    0.015475   0.034087  -0.154932   0.022365   0.028918   8.947475
     7  Ca   0.110358  -0.025018  -0.014938   0.031071   0.124924   0.006975
     8  Ca  -0.019309   0.050835  -0.025138   0.074940   0.142499   0.079968
     9  Ca   0.099945   0.002638   0.020933   0.009754   0.110165   0.052783
              7          8          9
     1  O    0.110358  -0.019309   0.099945
     2  O   -0.025018   0.050835   0.002638
     3  P   -0.014938  -0.025138   0.020933
     4  O    0.031071   0.074940   0.009754
     5  O    0.124924   0.142499   0.110165
     6  O    0.006975   0.079968   0.052783
     7  Ca  18.359731  -0.046771  -0.040738
     8  Ca  -0.046771  18.391144  -0.070199
     9  Ca  -0.040738  -0.070199  18.363196
 Mulliken atomic charges:
              1
     1  O   -0.620704
     2  O   -0.487628
     3  P    1.074365
     4  O   -1.036769
     5  O   -1.264111
     6  O   -1.033115
     7  Ca   1.494406
     8  Ca   1.422030
     9  Ca   1.451523
 Sum of Mulliken charges=   1.00000
 Atomic charges with hydrogens summed into heavy atoms:
              1
     1  O   -0.620704
     2  O   -0.487628
     3  P    1.074365
     4  O   -1.036769
     5  O   -1.264111
     6  O   -1.033115
     7  Ca   1.494406
     8  Ca   1.422030
     9  Ca   1.451523
 Sum of Mulliken charges=   1.00000
 Electronic spatial extent (au):  <R**2>=  1754.6350
 Charge=     1.0000 electrons
 Dipole moment (field-independent basis, Debye):
    X=    -4.9133    Y=     5.7801    Z=     5.8661  Tot=     9.5897
 Quadrupole moment (field-independent basis, Debye-Ang):
   XX=   -52.0427   YY=   -57.9685   ZZ=   -75.5331
   XY=     2.1673   XZ=     5.9565   YZ=   -22.4146
 Traceless Quadrupole moment (field-independent basis, Debye-Ang):
   XX=     9.8054   YY=     3.8796   ZZ=   -13.6850
   XY=     2.1673   XZ=     5.9565   YZ=   -22.4146
 Octapole moment (field-independent basis, Debye-Ang**2):
  XXX=  -116.5310  YYY=    79.9074  ZZZ=    43.3202  XYY=    35.7619
  XXY=    22.6570  XXZ=    29.9346  XZZ=    23.6439  YZZ=   -27.6563
  YYZ=    -1.7604  XYZ=   -14.7924
 Hexadecapole moment (field-independent basis, Debye-Ang**3):
 XXXX=  -598.2008 YYYY=  -542.7494 ZZZZ=  -598.3011 XXXY=   -15.1651
 XXXZ=    -4.5333 YYYX=    35.8699 YYYZ=   -99.2285 ZZZX=    34.8265
 ZZZY=  -104.8476 XXYY=  -214.0929 XXZZ=  -207.3164 YYZZ=  -207.3229
 XXYZ=   -28.6089 YYXZ=    12.8682 ZZXY=    -0.1077
 N-N= 1.094411278988D+03 E-N=-8.689666203425D+03  KE= 2.742237328799D+03
 Merz-Kollman atomic radii used.
 Read replacement radii for each type of atom:
 Rad(20) =   1.188000000000D+00
 Atom Element Radius
    1     8    1.40
    2     8    1.40
    3    15    1.80
    4     8    1.40
    5     8    1.40
    6     8    1.40
    7    20    1.19
    8    20    1.19
    9    20    1.19

 **********************************************************************

            Electrostatic Properties Using The SCF Density

 **********************************************************************

       Atomic Center    1 is at   2.115781  0.143739 -0.063679
       Atomic Center    2 is at   1.550794 -1.012918 -0.881509
       Atomic Center    3 is at  -0.120466 -1.138279 -1.428119
       Atomic Center    4 is at  -0.642228  0.418913 -1.499969
       Atomic Center    5 is at  -0.420365  1.042652  1.405611
       Atomic Center    6 is at  -0.837299 -1.604346 -0.013969
       Atomic Center    7 is at   0.726390  1.915226 -0.334569
       Atomic Center    8 is at  -2.163159  0.235601  0.314371
       Atomic Center    9 is at   0.820445 -0.892334  1.512691
     722 points will be used for fitting atomic charges
 Fitting point charges to eletrostatic potential
 Charges from ESP fit, RMS=   0.00531 RRMS=   0.03344:
 Charge=   1.00000 Dipole=    -4.9426     5.8454     5.9336 Tot=     9.6854
              1
     1  O   -0.729902
     2  O   -0.296614
     3  P    0.440316
     4  O   -0.883350
     5  O   -1.628470
     6  O   -0.926589
     7  Ca   1.678003
     8  Ca   1.663748
     9  Ca   1.682859
 -----------------------------------------------------------------

              Electrostatic Properties (Atomic Units)

 -----------------------------------------------------------------
    Center     Electric         -------- Electric Field --------
               Potential          X             Y             Z
 -----------------------------------------------------------------
    1 Atom    -22.207799
    2 Atom    -22.179457
    3 Atom    -53.948622
    4 Atom    -22.227887
    5 Atom    -22.306894
    6 Atom    -22.242842
    7 Atom    -80.039933
    8 Atom    -80.031538
    9 Atom    -80.043294
 -----------------------------------------------------------------
 1\1\GINC-N026\SP\RB3LYP\6-31+G(d,p)\Ca3O5P1(1+)\TIMN\12-Jun-2015\0\\# 
 b3lyp/6-31+G(d,p) int=ultrafine pop=(ReadRadii,MK)\\mol_17.28.48.pdbcc
 _plusQ.z58572.zip.xyz\\1,1\O,0,2.11578,0.14375,-0.06368\O,0,1.5508,-1.
 01291,-0.88151\P,0,-0.12046,-1.13828,-1.42812\O,0,-0.64223,0.41891,-1.
 49997\O,0,-0.42037,1.04265,1.40561\O,0,-0.83729,-1.60435,-0.01397\Ca,0
 ,0.72638,1.91523,-0.33457\Ca,0,-2.16316,0.23559,0.31437\Ca,0,0.82045,-
 0.89233,1.51269\\Version=EM64T-G03RevE.01\State=1-A\HF=-2750.2103534\R
 MSD=9.333e-05\Thermal=0.\Dipole=-1.9330604,2.2740644,2.3079006\PG=C01 
 [X(Ca3O5P1)]\\@


 KEEP CLOSE TO NATURES HEART, YOURSELF;
 AND BREAK CLEAR AWAY, ONCE IN A WHILE, AND
 CLIMB A MOUNTAIN OR SPEND A WEEK IN THE
 WOODS.  WASH YOUR SPIRIT CLEAN...
                                         -- JOHN MUIR
 Job cpu time:  0 days  0 hours  2 minutes 12.9 seconds.
 File lengths (MBytes):  RWF=     36 Int=      0 D2E=      0 Chk=     11 Scr=      1
 Normal termination of Gaussian 03 at Fri Jun 12 18:10:26 2015.
