 Entering Gaussian System, Link 0=/home/timn/tmp/g03.e01/g03
 Input=mol_17.25.48.pdbcccc_plusQ.z58353.zip.xyz.gjf
 Output=mol_17.25.48.pdbcccc_plusQ.z58353.zip.xyz.out
 Initial command:
 /home/timn/tmp/g03.e01/l1.exe /home/timn/tmp/g03.e01/Gau-14166.inp -scrdir=/home/timn/tmp/g03.e01/
 Default is to use a total of   2 processors:
                                2 via shared-memory
                                1 via Linda
 Entering Link 1 = /home/timn/tmp/g03.e01/l1.exe PID=     14167.
  
 Copyright (c) 1988,1990,1992,1993,1995,1998,2003,2004,2007, Gaussian, Inc.
                  All Rights Reserved.
  
 This is the Gaussian(R) 03 program.  It is based on the
 the Gaussian(R) 98 system (copyright 1998, Gaussian, Inc.),
 the Gaussian(R) 94 system (copyright 1995, Gaussian, Inc.),
 the Gaussian 92(TM) system (copyright 1992, Gaussian, Inc.),
 the Gaussian 90(TM) system (copyright 1990, Gaussian, Inc.),
 the Gaussian 88(TM) system (copyright 1988, Gaussian, Inc.),
 the Gaussian 86(TM) system (copyright 1986, Carnegie Mellon
 University), and the Gaussian 82(TM) system (copyright 1983,
 Carnegie Mellon University). Gaussian is a federally registered
 trademark of Gaussian, Inc.
  
 This software contains proprietary and confidential information,
 including trade secrets, belonging to Gaussian, Inc.
  
 This software is provided under written license and may be
 used, copied, transmitted, or stored only in accord with that
 written license.
  
 The following legend is applicable only to US Government
 contracts under FAR:
  
                    RESTRICTED RIGHTS LEGEND
  
 Use, reproduction and disclosure by the US Government is
 subject to restrictions as set forth in subparagraphs (a)
 and (c) of the Commercial Computer Software - Restricted
 Rights clause in FAR 52.227-19.
  
 Gaussian, Inc.
 340 Quinnipiac St., Bldg. 40, Wallingford CT 06492
  
  
 ---------------------------------------------------------------
 Warning -- This program may not be used in any manner that
 competes with the business of Gaussian, Inc. or will provide
 assistance to any competitor of Gaussian, Inc.  The licensee
 of this program is prohibited from giving any competitor of
 Gaussian, Inc. access to this program.  By using this program,
 the user acknowledges that Gaussian, Inc. is engaged in the
 business of creating and licensing software in the field of
 computational chemistry and represents and warrants to the
 licensee that it is not a competitor of Gaussian, Inc. and that
 it will not use this program in any manner prohibited above.
 ---------------------------------------------------------------
  

 Cite this work as:
 Gaussian 03, Revision E.01,
 M. J. Frisch, G. W. Trucks, H. B. Schlegel, G. E. Scuseria, 
 M. A. Robb, J. R. Cheeseman, J. A. Montgomery, Jr., T. Vreven, 
 K. N. Kudin, J. C. Burant, J. M. Millam, S. S. Iyengar, J. Tomasi, 
 V. Barone, B. Mennucci, M. Cossi, G. Scalmani, N. Rega, 
 G. A. Petersson, H. Nakatsuji, M. Hada, M. Ehara, K. Toyota, 
 R. Fukuda, J. Hasegawa, M. Ishida, T. Nakajima, Y. Honda, O. Kitao, 
 H. Nakai, M. Klene, X. Li, J. E. Knox, H. P. Hratchian, J. B. Cross, 
 V. Bakken, C. Adamo, J. Jaramillo, R. Gomperts, R. E. Stratmann, 
 O. Yazyev, A. J. Austin, R. Cammi, C. Pomelli, J. W. Ochterski, 
 P. Y. Ayala, K. Morokuma, G. A. Voth, P. Salvador, J. J. Dannenberg, 
 V. G. Zakrzewski, S. Dapprich, A. D. Daniels, M. C. Strain, 
 O. Farkas, D. K. Malick, A. D. Rabuck, K. Raghavachari, 
 J. B. Foresman, J. V. Ortiz, Q. Cui, A. G. Baboul, S. Clifford, 
 J. Cioslowski, B. B. Stefanov, G. Liu, A. Liashenko, P. Piskorz, 
 I. Komaromi, R. L. Martin, D. J. Fox, T. Keith, M. A. Al-Laham, 
 C. Y. Peng, A. Nanayakkara, M. Challacombe, P. M. W. Gill, 
 B. Johnson, W. Chen, M. W. Wong, C. Gonzalez, and J. A. Pople, 
 Gaussian, Inc., Wallingford CT, 2004.
 
 ******************************************
 Gaussian 03:  EM64T-G03RevE.01 11-Sep-2007
                12-Jun-2015 
 ******************************************
 %nproc=2
 Will use up to    2 processors via shared memory.
 Default route:  MP2=Direct MaxDisk=2000MB
 ----------------------------------------------------
 # b3lyp/6-31+G(d,p) int=ultrafine pop=(ReadRadii,MK)
 ----------------------------------------------------

 Warning!  SCF SP cutoffs with diffuse functions may be unreliable.
 Consider SCF=Tight

 1/38=1/1;
 2/17=6,18=5,40=1/2;
 3/5=1,6=6,7=111,11=2,16=1,25=1,30=1,74=-5,75=5/1,2,3;
 4//1;
 5/5=2,32=1,38=5/2;
 6/7=2,8=2,9=2,10=2,15=8,20=101,28=1/1,2;
 99/5=1,9=1/99;
 -----------------------------------------
 mol_17.25.48.pdbcccc_plusQ.z58353.zip.xyz
 -----------------------------------------
 Symbolic Z-matrix:
 Charge =  1 Multiplicity = 1
 O                    -2.00102   1.61719   0.47111 
 O                    -1.72484   0.98154  -0.90573 
 P                    -2.76254  -0.00017   0.00033 
 O                    -1.7242   -0.98171   0.90589 
 O                    -2.00118  -1.61736  -0.47081 
 Ca                    0.37205   1.8889    0.0267 
 O                     1.49829   0.00021  -0.00039 
 Ca                    3.70871  -0.00004   0.00033 
 Ca                    0.37232  -1.88867  -0.0273 
 
                          Input orientation:                          
 ---------------------------------------------------------------------
 Center     Atomic     Atomic              Coordinates (Angstroms)
 Number     Number      Type              X           Y           Z
 ---------------------------------------------------------------------
    1          8             0       -2.001020    1.617190    0.471110
    2          8             0       -1.724840    0.981540   -0.905730
    3         15             0       -2.762540   -0.000170    0.000330
    4          8             0       -1.724200   -0.981710    0.905890
    5          8             0       -2.001180   -1.617360   -0.470810
    6         20             0        0.372050    1.888900    0.026700
    7          8             0        1.498290    0.000210   -0.000390
    8         20             0        3.708710   -0.000040    0.000330
    9         20             0        0.372320   -1.888670   -0.027300
 ---------------------------------------------------------------------
                    Distance matrix (angstroms):
                    1          2          3          4          5
     1  O    0.000000
     2  O    1.541433   0.000000
     3  P    1.848621   1.691603   0.000000
     4  O    2.649518   2.671389   1.691629   0.000000
     5  O    3.368906   2.649491   1.848498   1.541451   0.000000
     6  Ca   2.429565   2.467727   3.659909   3.661645   4.263050
     7  O    3.883569   3.488727   4.260830   3.488546   3.883828
     8  Ca   5.952989   5.595347   6.471250   5.594660   5.953196
     9  Ca   4.262887   3.661670   3.659856   2.467553   2.429776
                    6          7          8          9
     6  Ca   0.000000
     7  O    2.199159   0.000000
     8  Ca   3.834330   2.210420   0.000000
     9  Ca   3.777956   2.199182   3.833952   0.000000
 Stoichiometry    Ca3O5P(1+)
 Framework group  C1[X(Ca3O5P)]
 Deg. of freedom    21
 Full point group                 C1
 Largest Abelian subgroup         C1      NOp   1
 Largest concise Abelian subgroup C1      NOp   1
                         Standard orientation:                         
 ---------------------------------------------------------------------
 Center     Atomic     Atomic              Coordinates (Angstroms)
 Number     Number      Type              X           Y           Z
 ---------------------------------------------------------------------
    1          8             0       -2.001018    1.617190    0.471109
    2          8             0       -1.724838    0.981539   -0.905731
    3         15             0       -2.762539   -0.000170    0.000329
    4          8             0       -1.724200   -0.981711    0.905889
    5          8             0       -2.001180   -1.617360   -0.470811
    6         20             0        0.372052    1.888898    0.026699
    7          8             0        1.498291    0.000207   -0.000391
    8         20             0        3.708711   -0.000044    0.000329
    9         20             0        0.372320   -1.888672   -0.027301
 ---------------------------------------------------------------------
 Rotational constants (GHZ):      1.1670713      0.4638087      0.3471349
 Standard basis: 6-31+G(d,p) (6D, 7F)
 There are   199 symmetry adapted basis functions of A   symmetry.
 Integral buffers will be    131072 words long.
 Raffenetti 2 integral format.
 Two-electron integral symmetry is turned on.
   199 basis functions,   456 primitive gaussians,   199 cartesian basis functions
    57 alpha electrons       57 beta electrons
       nuclear repulsion energy       963.8084514062 Hartrees.
 NAtoms=    9 NActive=    9 NUniq=    9 SFac= 7.50D-01 NAtFMM=   80 NAOKFM=F Big=F
 One-electron integrals computed using PRISM.
 NBasis=   199 RedAO= T  NBF=   199
 NBsUse=   199 1.00D-06 NBFU=   199
 Harris functional with IExCor=  402 diagonalized for initial guess.
 ExpMin= 7.10D-03 ExpMax= 3.53D+04 ExpMxC= 5.30D+03 IAcc=3 IRadAn=         5 AccDes= 0.00D+00
 HarFok:  IExCor= 402 AccDes= 0.00D+00 IRadAn=         5 IDoV=1
 ScaDFX=  1.000000  1.000000  1.000000  1.000000
 Initial guess orbital symmetries:
       Occupied  (A) (A) (A) (A) (A) (A) (A) (A) (A) (A) (A) (A)
                 (A) (A) (A) (A) (A) (A) (A) (A) (A) (A) (A) (A)
                 (A) (A) (A) (A) (A) (A) (A) (A) (A) (A) (A) (A)
                 (A) (A) (A) (A) (A) (A) (A) (A) (A) (A) (A) (A)
                 (A) (A) (A) (A) (A) (A) (A) (A) (A)
       Virtual   (A) (A) (A) (A) (A) (A) (A) (A) (A) (A) (A) (A)
                 (A) (A) (A) (A) (A) (A) (A) (A) (A) (A) (A) (A)
                 (A) (A) (A) (A) (A) (A) (A) (A) (A) (A) (A) (A)
                 (A) (A) (A) (A) (A) (A) (A) (A) (A) (A) (A) (A)
                 (A) (A) (A) (A) (A) (A) (A) (A) (A) (A) (A) (A)
                 (A) (A) (A) (A) (A) (A) (A) (A) (A) (A) (A) (A)
                 (A) (A) (A) (A) (A) (A) (A) (A) (A) (A) (A) (A)
                 (A) (A) (A) (A) (A) (A) (A) (A) (A) (A) (A) (A)
                 (A) (A) (A) (A) (A) (A) (A) (A) (A) (A) (A) (A)
                 (A) (A) (A) (A) (A) (A) (A) (A) (A) (A) (A) (A)
                 (A) (A) (A) (A) (A) (A) (A) (A) (A) (A) (A) (A)
                 (A) (A) (A) (A) (A) (A) (A) (A) (A) (A)
 The electronic state of the initial guess is 1-A.
 Requested convergence on RMS density matrix=1.00D-04 within 128 cycles.
 Requested convergence on MAX density matrix=1.00D-02.
 Requested convergence on             energy=1.00D-02.
 No special actions if energy rises.
 Rare condition: small coef for last iteration:  0.000D+00
 EnCoef did   100 forward-backward iterations
 EnCoef did   100 forward-backward iterations
 EnCoef did   100 forward-backward iterations
 SCF Done:  E(RB+HF-LYP) =  -2749.96845303     A.U. after   11 cycles
             Convg  =    0.7204D-04             -V/T =  2.0029
             S**2   =   0.0000

 **********************************************************************

            Population analysis using the SCF density.

 **********************************************************************

 Orbital symmetries:
       Occupied  (A) (A) (A) (A) (A) (A) (A) (A) (A) (A) (A) (A)
                 (A) (A) (A) (A) (A) (A) (A) (A) (A) (A) (A) (A)
                 (A) (A) (A) (A) (A) (A) (A) (A) (A) (A) (A) (A)
                 (A) (A) (A) (A) (A) (A) (A) (A) (A) (A) (A) (A)
                 (A) (A) (A) (A) (A) (A) (A) (A) (A)
       Virtual   (A) (A) (A) (A) (A) (A) (A) (A) (A) (A) (A) (A)
                 (A) (A) (A) (A) (A) (A) (A) (A) (A) (A) (A) (A)
                 (A) (A) (A) (A) (A) (A) (A) (A) (A) (A) (A) (A)
                 (A) (A) (A) (A) (A) (A) (A) (A) (A) (A) (A) (A)
                 (A) (A) (A) (A) (A) (A) (A) (A) (A) (A) (A) (A)
                 (A) (A) (A) (A) (A) (A) (A) (A) (A) (A) (A) (A)
                 (A) (A) (A) (A) (A) (A) (A) (A) (A) (A) (A) (A)
                 (A) (A) (A) (A) (A) (A) (A) (A) (A) (A) (A) (A)
                 (A) (A) (A) (A) (A) (A) (A) (A) (A) (A) (A) (A)
                 (A) (A) (A) (A) (A) (A) (A) (A) (A) (A) (A) (A)
                 (A) (A) (A) (A) (A) (A) (A) (A) (A) (A) (A) (A)
                 (A) (A) (A) (A) (A) (A) (A) (A) (A) (A)
 The electronic state is 1-A.
 Alpha  occ. eigenvalues -- -145.51905-145.51895-145.49784 -77.35642 -19.36717
 Alpha  occ. eigenvalues --  -19.36469 -19.34771 -19.34596 -19.19416 -15.58787
 Alpha  occ. eigenvalues --  -15.58778 -15.56799 -12.72018 -12.72008 -12.71972
 Alpha  occ. eigenvalues --  -12.71962 -12.71879 -12.71869 -12.69989 -12.69986
 Alpha  occ. eigenvalues --  -12.69857  -6.80398  -4.96837  -4.96569  -4.96205
 Alpha  occ. eigenvalues --   -1.95932  -1.95912  -1.93971  -1.28283  -1.25477
 Alpha  occ. eigenvalues --   -1.23594  -1.23581  -1.23423  -1.22863  -1.22690
 Alpha  occ. eigenvalues --   -1.21702  -1.21473  -1.21451  -1.21022  -1.00920
 Alpha  occ. eigenvalues --   -0.99135  -0.94535  -0.76281  -0.64426  -0.60371
 Alpha  occ. eigenvalues --   -0.59315  -0.58976  -0.53549  -0.52475  -0.47429
 Alpha  occ. eigenvalues --   -0.43909  -0.43170  -0.41497  -0.40529  -0.40169
 Alpha  occ. eigenvalues --   -0.38276  -0.25805
 Alpha virt. eigenvalues --   -0.20558  -0.19564  -0.19359  -0.18213  -0.14295
 Alpha virt. eigenvalues --   -0.14118  -0.13892  -0.12315  -0.11717  -0.10811
 Alpha virt. eigenvalues --   -0.10661  -0.09632  -0.08079  -0.07996  -0.07351
 Alpha virt. eigenvalues --   -0.07161  -0.06149  -0.05642  -0.05537  -0.04934
 Alpha virt. eigenvalues --   -0.04878  -0.04529  -0.04512  -0.04449  -0.04116
 Alpha virt. eigenvalues --   -0.03459  -0.03344  -0.03261  -0.01432  -0.00965
 Alpha virt. eigenvalues --    0.00270   0.00567   0.01028   0.01857   0.02367
 Alpha virt. eigenvalues --    0.03074   0.03258   0.03354   0.03581   0.04015
 Alpha virt. eigenvalues --    0.04600   0.04745   0.05114   0.05629   0.06840
 Alpha virt. eigenvalues --    0.06879   0.07528   0.07974   0.08172   0.08441
 Alpha virt. eigenvalues --    0.09785   0.09852   0.10571   0.10700   0.12009
 Alpha virt. eigenvalues --    0.13463   0.14171   0.14444   0.16122   0.16359
 Alpha virt. eigenvalues --    0.17115   0.19461   0.21095   0.21160   0.22306
 Alpha virt. eigenvalues --    0.22754   0.24315   0.25009   0.26459   0.26700
 Alpha virt. eigenvalues --    0.29100   0.31218   0.32549   0.33537   0.33906
 Alpha virt. eigenvalues --    0.36814   0.38493   0.39978   0.40515   0.41877
 Alpha virt. eigenvalues --    0.42342   0.45240   0.53572   0.59051   0.64755
 Alpha virt. eigenvalues --    0.65318   0.69905   0.79525   0.80652   0.83735
 Alpha virt. eigenvalues --    0.88911   1.02132   1.05708   1.06572   1.07711
 Alpha virt. eigenvalues --    1.09010   1.09809   1.12574   1.14559   1.14875
 Alpha virt. eigenvalues --    1.17724   1.19152   1.19593   1.20629   1.25015
 Alpha virt. eigenvalues --    1.28383   1.39759   1.41568   1.45719   1.47981
 Alpha virt. eigenvalues --    1.51859   1.54414   1.55051   1.61148   1.64280
 Alpha virt. eigenvalues --    1.64341   1.68133   1.70994   1.74686   1.76965
 Alpha virt. eigenvalues --    1.77468   1.78814   1.86877   1.89471   1.91166
 Alpha virt. eigenvalues --    1.92476   1.94465   1.96923   2.10391   2.11644
 Alpha virt. eigenvalues --    2.16249   2.19026   2.39655   2.45465   2.97753
 Alpha virt. eigenvalues --    3.00764   3.47648   3.93485   3.98301   4.09582
 Alpha virt. eigenvalues --    4.17625   4.23060
          Condensed to atoms (all electrons):
              1          2          3          4          5          6
     1  O    8.372886   0.033615  -0.016780   0.052205  -0.049691   0.047694
     2  O    0.033615   8.278141  -0.010458   0.011982   0.051694   0.021608
     3  P   -0.016780  -0.010458  14.121735  -0.012244  -0.014977   0.016799
     4  O    0.052205   0.011982  -0.012244   8.284591   0.033868  -0.000989
     5  O   -0.049691   0.051694  -0.014977   0.033868   8.366169  -0.001443
     6  Ca   0.047694   0.021608   0.016799  -0.000989  -0.001443  18.558825
     7  O    0.001548   0.003372  -0.026691   0.003434   0.001526  -0.007328
     8  Ca   0.003864  -0.003497   0.009739  -0.003475   0.003837   0.189202
     9  Ca  -0.001442  -0.001043   0.016831   0.021462   0.047838   0.089509
              7          8          9
     1  O    0.001548   0.003864  -0.001442
     2  O    0.003372  -0.003497  -0.001043
     3  P   -0.026691   0.009739   0.016831
     4  O    0.003434  -0.003475   0.021462
     5  O    0.001526   0.003837   0.047838
     6  Ca  -0.007328   0.189202   0.089509
     7  O    9.256127  -0.130377  -0.007391
     8  Ca  -0.130377  19.077066   0.189212
     9  Ca  -0.007391   0.189212  18.558432
 Mulliken atomic charges:
              1
     1  O   -0.443899
     2  O   -0.385413
     3  P    0.916046
     4  O   -0.390834
     5  O   -0.438822
     6  Ca   1.086123
     7  O   -1.094220
     8  Ca   0.664428
     9  Ca   1.086591
 Sum of Mulliken charges=   1.00000
 Atomic charges with hydrogens summed into heavy atoms:
              1
     1  O   -0.443899
     2  O   -0.385413
     3  P    0.916046
     4  O   -0.390834
     5  O   -0.438822
     6  Ca   1.086123
     7  O   -1.094220
     8  Ca   0.664428
     9  Ca   1.086591
 Sum of Mulliken charges=   1.00000
 Electronic spatial extent (au):  <R**2>=  2806.8241
 Charge=     1.0000 electrons
 Dipole moment (field-independent basis, Debye):
    X=     4.9373    Y=    -0.0276    Z=    -0.0507  Tot=     4.9376
 Quadrupole moment (field-independent basis, Debye-Ang):
   XX=   -66.1897   YY=   -59.9894   ZZ=   -88.0395
   XY=     0.0193   XZ=     0.0766   YZ=     0.8955
 Traceless Quadrupole moment (field-independent basis, Debye-Ang):
   XX=     5.2165   YY=    11.4168   ZZ=   -16.6333
   XY=     0.0193   XZ=     0.0766   YZ=     0.8955
 Octapole moment (field-independent basis, Debye-Ang**2):
  XXX=    38.6903  YYY=    -0.1760  ZZZ=    -0.0806  XYY=    -5.4274
  XXY=    -0.1594  XXZ=    -0.2052  XZZ=   -23.3322  YZZ=    -0.0197
  YYZ=    -0.1063  XYZ=    -0.8149
 Hexadecapole moment (field-independent basis, Debye-Ang**3):
 XXXX= -2297.4626 YYYY=  -871.1516 ZZZZ=  -233.2377 XXXY=     0.0403
 XXXZ=     0.2759 YYYX=     0.0221 YYYZ=    -3.6820 ZZZX=     0.0107
 ZZZY=     5.3971 XXYY=  -723.8529 XXZZ=  -517.4567 YYZZ=  -202.1542
 XXYZ=    -0.2798 YYXZ=     0.0871 ZZXY=    -0.0150
 N-N= 9.638084514062D+02 E-N=-8.422976526374D+03  KE= 2.742065475633D+03
 Merz-Kollman atomic radii used.
 Read replacement radii for each type of atom:
 Rad(20) =   1.188000000000D+00
 Atom Element Radius
    1     8    1.40
    2     8    1.40
    3    15    1.80
    4     8    1.40
    5     8    1.40
    6    20    1.19
    7     8    1.40
    8    20    1.19
    9    20    1.19

 **********************************************************************

            Electrostatic Properties Using The SCF Density

 **********************************************************************

       Atomic Center    1 is at  -2.001018  1.617190  0.471109
       Atomic Center    2 is at  -1.724838  0.981539 -0.905731
       Atomic Center    3 is at  -2.762539 -0.000170  0.000329
       Atomic Center    4 is at  -1.724200 -0.981711  0.905889
       Atomic Center    5 is at  -2.001180 -1.617360 -0.470811
       Atomic Center    6 is at   0.372052  1.888898  0.026699
       Atomic Center    7 is at   1.498291  0.000207 -0.000391
       Atomic Center    8 is at   3.708711 -0.000044  0.000329
       Atomic Center    9 is at   0.372320 -1.888672 -0.027301
     793 points will be used for fitting atomic charges
 Fitting point charges to eletrostatic potential
 Charges from ESP fit, RMS=   0.02292 RRMS=   0.14732:
 Charge=   1.00000 Dipole=    10.3046    -0.0481    -0.0483 Tot=    10.3048
              1
     1  O   -0.312374
     2  O   -0.198608
     3  P    0.346699
     4  O   -0.205773
     5  O   -0.304994
     6  Ca   1.193817
     7  O   -1.327129
     8  Ca   0.611837
     9  Ca   1.196526
 -----------------------------------------------------------------

              Electrostatic Properties (Atomic Units)

 -----------------------------------------------------------------
    Center     Electric         -------- Electric Field --------
               Potential          X             Y             Z
 -----------------------------------------------------------------
    1 Atom    -22.116749
    2 Atom    -22.092479
    3 Atom    -53.858610
    4 Atom    -22.099623
    5 Atom    -22.110493
    6 Atom    -80.020512
    7 Atom    -22.277584
    8 Atom    -80.054518
    9 Atom    -80.020220
 -----------------------------------------------------------------
 1\1\GINC-N032\SP\RB3LYP\6-31+G(d,p)\Ca3O5P1(1+)\TIMN\12-Jun-2015\0\\# 
 b3lyp/6-31+G(d,p) int=ultrafine pop=(ReadRadii,MK)\\mol_17.25.48.pdbcc
 cc_plusQ.z58353.zip.xyz\\1,1\O,0,-2.00102,1.61719,0.47111\O,0,-1.72484
 ,0.98154,-0.90573\P,0,-2.76254,-0.00017,0.00033\O,0,-1.7242,-0.98171,0
 .90589\O,0,-2.00118,-1.61736,-0.47081\Ca,0,0.37205,1.8889,0.0267\O,0,1
 .49829,0.00021,-0.00039\Ca,0,3.70871,-0.00004,0.00033\Ca,0,0.37232,-1.
 88867,-0.0273\\Version=EM64T-G03RevE.01\State=1-A\HF=-2749.968453\RMSD
 =7.204e-05\Thermal=0.\Dipole=1.9424867,-0.0108491,-0.0199622\PG=C01 [X
 (Ca3O5P1)]\\@


 SUCCESS-- IF YOU HAVE TRIED TO DO SOMETHING AND FAILED
           YOU ARE BETTER OFF THAN IF YOU HAD TRIED TO DO
           NOTHING AND SUCCEEDED.

                   -- FROM THE BACK OF A SUGAR PACKET
 Job cpu time:  0 days  0 hours  2 minutes 42.3 seconds.
 File lengths (MBytes):  RWF=     36 Int=      0 D2E=      0 Chk=     11 Scr=      1
 Normal termination of Gaussian 03 at Fri Jun 12 17:58:57 2015.
