 Entering Gaussian System, Link 0=/home/timn/tmp/g03.e01/g03
 Input=mol_17.28.12.pdbcc_plusQ.z58534.zip.xyz.gjf
 Output=mol_17.28.12.pdbcc_plusQ.z58534.zip.xyz.out
 Initial command:
 /home/timn/tmp/g03.e01/l1.exe /home/timn/tmp/g03.e01/Gau-15438.inp -scrdir=/home/timn/tmp/g03.e01/
 Default is to use a total of   2 processors:
                                2 via shared-memory
                                1 via Linda
 Entering Link 1 = /home/timn/tmp/g03.e01/l1.exe PID=     15439.
  
 Copyright (c) 1988,1990,1992,1993,1995,1998,2003,2004,2007, Gaussian, Inc.
                  All Rights Reserved.
  
 This is the Gaussian(R) 03 program.  It is based on the
 the Gaussian(R) 98 system (copyright 1998, Gaussian, Inc.),
 the Gaussian(R) 94 system (copyright 1995, Gaussian, Inc.),
 the Gaussian 92(TM) system (copyright 1992, Gaussian, Inc.),
 the Gaussian 90(TM) system (copyright 1990, Gaussian, Inc.),
 the Gaussian 88(TM) system (copyright 1988, Gaussian, Inc.),
 the Gaussian 86(TM) system (copyright 1986, Carnegie Mellon
 University), and the Gaussian 82(TM) system (copyright 1983,
 Carnegie Mellon University). Gaussian is a federally registered
 trademark of Gaussian, Inc.
  
 This software contains proprietary and confidential information,
 including trade secrets, belonging to Gaussian, Inc.
  
 This software is provided under written license and may be
 used, copied, transmitted, or stored only in accord with that
 written license.
  
 The following legend is applicable only to US Government
 contracts under FAR:
  
                    RESTRICTED RIGHTS LEGEND
  
 Use, reproduction and disclosure by the US Government is
 subject to restrictions as set forth in subparagraphs (a)
 and (c) of the Commercial Computer Software - Restricted
 Rights clause in FAR 52.227-19.
  
 Gaussian, Inc.
 340 Quinnipiac St., Bldg. 40, Wallingford CT 06492
  
  
 ---------------------------------------------------------------
 Warning -- This program may not be used in any manner that
 competes with the business of Gaussian, Inc. or will provide
 assistance to any competitor of Gaussian, Inc.  The licensee
 of this program is prohibited from giving any competitor of
 Gaussian, Inc. access to this program.  By using this program,
 the user acknowledges that Gaussian, Inc. is engaged in the
 business of creating and licensing software in the field of
 computational chemistry and represents and warrants to the
 licensee that it is not a competitor of Gaussian, Inc. and that
 it will not use this program in any manner prohibited above.
 ---------------------------------------------------------------
  

 Cite this work as:
 Gaussian 03, Revision E.01,
 M. J. Frisch, G. W. Trucks, H. B. Schlegel, G. E. Scuseria, 
 M. A. Robb, J. R. Cheeseman, J. A. Montgomery, Jr., T. Vreven, 
 K. N. Kudin, J. C. Burant, J. M. Millam, S. S. Iyengar, J. Tomasi, 
 V. Barone, B. Mennucci, M. Cossi, G. Scalmani, N. Rega, 
 G. A. Petersson, H. Nakatsuji, M. Hada, M. Ehara, K. Toyota, 
 R. Fukuda, J. Hasegawa, M. Ishida, T. Nakajima, Y. Honda, O. Kitao, 
 H. Nakai, M. Klene, X. Li, J. E. Knox, H. P. Hratchian, J. B. Cross, 
 V. Bakken, C. Adamo, J. Jaramillo, R. Gomperts, R. E. Stratmann, 
 O. Yazyev, A. J. Austin, R. Cammi, C. Pomelli, J. W. Ochterski, 
 P. Y. Ayala, K. Morokuma, G. A. Voth, P. Salvador, J. J. Dannenberg, 
 V. G. Zakrzewski, S. Dapprich, A. D. Daniels, M. C. Strain, 
 O. Farkas, D. K. Malick, A. D. Rabuck, K. Raghavachari, 
 J. B. Foresman, J. V. Ortiz, Q. Cui, A. G. Baboul, S. Clifford, 
 J. Cioslowski, B. B. Stefanov, G. Liu, A. Liashenko, P. Piskorz, 
 I. Komaromi, R. L. Martin, D. J. Fox, T. Keith, M. A. Al-Laham, 
 C. Y. Peng, A. Nanayakkara, M. Challacombe, P. M. W. Gill, 
 B. Johnson, W. Chen, M. W. Wong, C. Gonzalez, and J. A. Pople, 
 Gaussian, Inc., Wallingford CT, 2004.
 
 ******************************************
 Gaussian 03:  EM64T-G03RevE.01 11-Sep-2007
                12-Jun-2015 
 ******************************************
 %nproc=2
 Will use up to    2 processors via shared memory.
 Default route:  MP2=Direct MaxDisk=2000MB
 ----------------------------------------------------
 # b3lyp/6-31+G(d,p) int=ultrafine pop=(ReadRadii,MK)
 ----------------------------------------------------

 Warning!  SCF SP cutoffs with diffuse functions may be unreliable.
 Consider SCF=Tight

 1/38=1/1;
 2/17=6,18=5,40=1/2;
 3/5=1,6=6,7=111,11=2,16=1,25=1,30=1,74=-5,75=5/1,2,3;
 4//1;
 5/5=2,32=1,38=5/2;
 6/7=2,8=2,9=2,10=2,15=8,20=101,28=1/1,2;
 99/5=1,9=1/99;
 ---------------------------------------
 mol_17.28.12.pdbcc_plusQ.z58534.zip.xyz
 ---------------------------------------
 Symbolic Z-matrix:
 Charge =  1 Multiplicity = 1
 O                     0.58947   0.0001   -1.657 
 P                    -1.06544   0.00003  -1.53067 
 Ca                   -1.62609  -0.00011   1.39027 
 O                    -1.2375    1.28496  -0.44076 
 Ca                    1.05413   1.67133  -0.13838 
 O                     2.06871   0.00006   1.1038 
 O                     0.60866  -0.00014   1.52144 
 Ca                    1.05428  -1.67124  -0.13853 
 O                    -1.23741  -1.28499  -0.44089 
 
                          Input orientation:                          
 ---------------------------------------------------------------------
 Center     Atomic     Atomic              Coordinates (Angstroms)
 Number     Number      Type              X           Y           Z
 ---------------------------------------------------------------------
    1          8             0        0.589470    0.000100   -1.657000
    2         15             0       -1.065440    0.000030   -1.530670
    3         20             0       -1.626090   -0.000110    1.390270
    4          8             0       -1.237500    1.284960   -0.440760
    5         20             0        1.054130    1.671330   -0.138380
    6          8             0        2.068710    0.000060    1.103800
    7          8             0        0.608660   -0.000140    1.521440
    8         20             0        1.054280   -1.671240   -0.138530
    9          8             0       -1.237410   -1.284990   -0.440890
 ---------------------------------------------------------------------
                    Distance matrix (angstroms):
                    1          2          3          4          5
     1  O    0.000000
     2  P    1.659725   0.000000
     3  Ca   3.767567   2.974259   0.000000
     4  O    2.543211   1.693680   2.270480   0.000000
     5  Ca   2.305456   3.037152   3.509140   2.343562   0.000000
     6  O    3.132119   4.094304   3.705889   3.868806   2.316361
     7  O    3.178498   3.481090   2.238596   2.984965   2.397344
     8  Ca   2.305467   3.037171   3.509172   3.752695   3.342570
     9  O    2.543201   1.693656   2.270492   2.569950   3.752665
                    6          7          8          9
     6  O    0.000000
     7  O    1.518608   0.000000
     8  Ca   2.316397   2.397218   0.000000
     9  O    3.868831   2.984887   2.343598   0.000000
 Stoichiometry    Ca3O5P(1+)
 Framework group  C1[X(Ca3O5P)]
 Deg. of freedom    21
 Full point group                 C1
 Largest Abelian subgroup         C1      NOp   1
 Largest concise Abelian subgroup C1      NOp   1
                         Standard orientation:                         
 ---------------------------------------------------------------------
 Center     Atomic     Atomic              Coordinates (Angstroms)
 Number     Number      Type              X           Y           Z
 ---------------------------------------------------------------------
    1          8             0        0.589468    0.000098   -1.656999
    2         15             0       -1.065442    0.000034   -1.530669
    3         20             0       -1.626092   -0.000104    1.390271
    4          8             0       -1.237498    1.284964   -0.440759
    5         20             0        1.054134    1.671327   -0.138379
    6          8             0        2.068708    0.000053    1.103801
    7          8             0        0.608658   -0.000142    1.521441
    8         20             0        1.054272   -1.671243   -0.138529
    9          8             0       -1.237416   -1.284986   -0.440889
 ---------------------------------------------------------------------
 Rotational constants (GHZ):      0.9463697      0.8196919      0.7962955
 Standard basis: 6-31+G(d,p) (6D, 7F)
 There are   199 symmetry adapted basis functions of A   symmetry.
 Integral buffers will be    131072 words long.
 Raffenetti 2 integral format.
 Two-electron integral symmetry is turned on.
   199 basis functions,   456 primitive gaussians,   199 cartesian basis functions
    57 alpha electrons       57 beta electrons
       nuclear repulsion energy      1104.9556717108 Hartrees.
 NAtoms=    9 NActive=    9 NUniq=    9 SFac= 7.50D-01 NAtFMM=   80 NAOKFM=F Big=F
 One-electron integrals computed using PRISM.
 NBasis=   199 RedAO= T  NBF=   199
 NBsUse=   199 1.00D-06 NBFU=   199
 Harris functional with IExCor=  402 diagonalized for initial guess.
 ExpMin= 7.10D-03 ExpMax= 3.53D+04 ExpMxC= 5.30D+03 IAcc=3 IRadAn=         5 AccDes= 0.00D+00
 HarFok:  IExCor= 402 AccDes= 0.00D+00 IRadAn=         5 IDoV=1
 ScaDFX=  1.000000  1.000000  1.000000  1.000000
 Initial guess orbital symmetries:
       Occupied  (A) (A) (A) (A) (A) (A) (A) (A) (A) (A) (A) (A)
                 (A) (A) (A) (A) (A) (A) (A) (A) (A) (A) (A) (A)
                 (A) (A) (A) (A) (A) (A) (A) (A) (A) (A) (A) (A)
                 (A) (A) (A) (A) (A) (A) (A) (A) (A) (A) (A) (A)
                 (A) (A) (A) (A) (A) (A) (A) (A) (A)
       Virtual   (A) (A) (A) (A) (A) (A) (A) (A) (A) (A) (A) (A)
                 (A) (A) (A) (A) (A) (A) (A) (A) (A) (A) (A) (A)
                 (A) (A) (A) (A) (A) (A) (A) (A) (A) (A) (A) (A)
                 (A) (A) (A) (A) (A) (A) (A) (A) (A) (A) (A) (A)
                 (A) (A) (A) (A) (A) (A) (A) (A) (A) (A) (A) (A)
                 (A) (A) (A) (A) (A) (A) (A) (A) (A) (A) (A) (A)
                 (A) (A) (A) (A) (A) (A) (A) (A) (A) (A) (A) (A)
                 (A) (A) (A) (A) (A) (A) (A) (A) (A) (A) (A) (A)
                 (A) (A) (A) (A) (A) (A) (A) (A) (A) (A) (A) (A)
                 (A) (A) (A) (A) (A) (A) (A) (A) (A) (A) (A) (A)
                 (A) (A) (A) (A) (A) (A) (A) (A) (A) (A) (A) (A)
                 (A) (A) (A) (A) (A) (A) (A) (A) (A) (A)
 The electronic state of the initial guess is 1-A.
 Requested convergence on RMS density matrix=1.00D-04 within 128 cycles.
 Requested convergence on MAX density matrix=1.00D-02.
 Requested convergence on             energy=1.00D-02.
 No special actions if energy rises.
 SCF Done:  E(RB+HF-LYP) =  -2750.24881735     A.U. after    7 cycles
             Convg  =    0.5397D-04             -V/T =  2.0029
             S**2   =   0.0000

 **********************************************************************

            Population analysis using the SCF density.

 **********************************************************************

 Orbital symmetries:
       Occupied  (A) (A) (A) (A) (A) (A) (A) (A) (A) (A) (A) (A)
                 (A) (A) (A) (A) (A) (A) (A) (A) (A) (A) (A) (A)
                 (A) (A) (A) (A) (A) (A) (A) (A) (A) (A) (A) (A)
                 (A) (A) (A) (A) (A) (A) (A) (A) (A) (A) (A) (A)
                 (A) (A) (A) (A) (A) (A) (A) (A) (A)
       Virtual   (A) (A) (A) (A) (A) (A) (A) (A) (A) (A) (A) (A)
                 (A) (A) (A) (A) (A) (A) (A) (A) (A) (A) (A) (A)
                 (A) (A) (A) (A) (A) (A) (A) (A) (A) (A) (A) (A)
                 (A) (A) (A) (A) (A) (A) (A) (A) (A) (A) (A) (A)
                 (A) (A) (A) (A) (A) (A) (A) (A) (A) (A) (A) (A)
                 (A) (A) (A) (A) (A) (A) (A) (A) (A) (A) (A) (A)
                 (A) (A) (A) (A) (A) (A) (A) (A) (A) (A) (A) (A)
                 (A) (A) (A) (A) (A) (A) (A) (A) (A) (A) (A) (A)
                 (A) (A) (A) (A) (A) (A) (A) (A) (A) (A) (A) (A)
                 (A) (A) (A) (A) (A) (A) (A) (A) (A) (A) (A) (A)
                 (A) (A) (A) (A) (A) (A) (A) (A) (A) (A) (A) (A)
                 (A) (A) (A) (A) (A) (A) (A) (A) (A) (A)
 The electronic state is 1-A.
 Alpha  occ. eigenvalues -- -145.52390-145.50181-145.50175 -77.25154 -19.25917
 Alpha  occ. eigenvalues --  -19.25467 -19.21787 -19.21786 -19.21339 -15.59148
 Alpha  occ. eigenvalues --  -15.56979 -15.56975 -12.72336 -12.72332 -12.72306
 Alpha  occ. eigenvalues --  -12.70186 -12.70186 -12.70178 -12.70178 -12.70098
 Alpha  occ. eigenvalues --  -12.70098  -6.70243  -4.86597  -4.86589  -4.86028
 Alpha  occ. eigenvalues --   -1.96326  -1.94231  -1.94165  -1.24350  -1.23881
 Alpha  occ. eigenvalues --   -1.23785  -1.22786  -1.22079  -1.21719  -1.21643
 Alpha  occ. eigenvalues --   -1.21524  -1.21225  -1.10035  -1.07337  -1.00862
 Alpha  occ. eigenvalues --   -1.00736  -0.89083  -0.63096  -0.51348  -0.51085
 Alpha  occ. eigenvalues --   -0.50985  -0.49239  -0.48453  -0.46052  -0.43798
 Alpha  occ. eigenvalues --   -0.43563  -0.38836  -0.38649  -0.38614  -0.35304
 Alpha  occ. eigenvalues --   -0.33997  -0.31699
 Alpha virt. eigenvalues --   -0.20303  -0.18389  -0.17631  -0.12784  -0.12605
 Alpha virt. eigenvalues --   -0.10904  -0.09920  -0.09096  -0.08254  -0.07952
 Alpha virt. eigenvalues --   -0.07350  -0.06563  -0.06018  -0.05819  -0.04925
 Alpha virt. eigenvalues --   -0.04867  -0.04856  -0.04686  -0.04486  -0.04309
 Alpha virt. eigenvalues --   -0.04013  -0.03911  -0.03218  -0.02973  -0.02947
 Alpha virt. eigenvalues --   -0.02711  -0.01826  -0.00967   0.00846   0.01987
 Alpha virt. eigenvalues --    0.02245   0.03415   0.04332   0.04542   0.04864
 Alpha virt. eigenvalues --    0.05217   0.05242   0.06160   0.06288   0.07050
 Alpha virt. eigenvalues --    0.07071   0.07098   0.07501   0.07555   0.07793
 Alpha virt. eigenvalues --    0.08501   0.09366   0.10326   0.11200   0.11844
 Alpha virt. eigenvalues --    0.12318   0.14915   0.14939   0.16115   0.17399
 Alpha virt. eigenvalues --    0.18781   0.20639   0.21080   0.21101   0.23266
 Alpha virt. eigenvalues --    0.23559   0.23712   0.24624   0.25789   0.27282
 Alpha virt. eigenvalues --    0.27989   0.29797   0.31566   0.33551   0.33938
 Alpha virt. eigenvalues --    0.34436   0.36041   0.36688   0.38775   0.39282
 Alpha virt. eigenvalues --    0.41200   0.45562   0.46020   0.53543   0.54392
 Alpha virt. eigenvalues --    0.55437   0.62687   0.63187   0.63527   0.66209
 Alpha virt. eigenvalues --    0.81579   0.85421   0.90502   0.93111   0.99255
 Alpha virt. eigenvalues --    1.11587   1.11885   1.15484   1.16007   1.17644
 Alpha virt. eigenvalues --    1.18028   1.19906   1.19984   1.20437   1.22317
 Alpha virt. eigenvalues --    1.22904   1.27528   1.31240   1.33947   1.38911
 Alpha virt. eigenvalues --    1.45503   1.46496   1.49241   1.56997   1.58136
 Alpha virt. eigenvalues --    1.60022   1.64360   1.68050   1.71385   1.73206
 Alpha virt. eigenvalues --    1.76856   1.78151   1.78948   1.81306   1.84865
 Alpha virt. eigenvalues --    1.86380   1.87067   1.89502   1.90271   1.91257
 Alpha virt. eigenvalues --    1.92850   1.93638   1.99378   2.00495   2.11305
 Alpha virt. eigenvalues --    2.21652   2.24617   2.36598   2.52360   2.56815
 Alpha virt. eigenvalues --    3.07041   3.54030   4.03170   4.09905   4.14250
 Alpha virt. eigenvalues --    4.19191   4.32853
          Condensed to atoms (all electrons):
              1          2          3          4          5          6
     1  O    8.936426  -0.172014   0.013810   0.050218   0.065849   0.002069
     2  P   -0.172014  14.404935   0.026268  -0.178036   0.017366   0.003368
     3  Ca   0.013810   0.026268  18.362057   0.074783  -0.045054  -0.033245
     4  O    0.050218  -0.178036   0.074783   8.964934   0.060484  -0.006665
     5  Ca   0.065849   0.017366  -0.045054   0.060484  18.339750   0.104080
     6  O    0.002069   0.003368  -0.033245  -0.006665   0.104080   8.577712
     7  O    0.022352  -0.024666   0.088546   0.029673   0.038118  -0.101085
     8  Ca   0.065844   0.017366  -0.045050   0.004946  -0.048023   0.104077
     9  O    0.050213  -0.178028   0.074782   0.043540   0.004947  -0.006667
              7          8          9
     1  O    0.022352   0.065844   0.050213
     2  P   -0.024666   0.017366  -0.178028
     3  Ca   0.088546  -0.045050   0.074782
     4  O    0.029673   0.004946   0.043540
     5  Ca   0.038118  -0.048023   0.004947
     6  O   -0.101085   0.104077  -0.006667
     7  O    8.604630   0.038129   0.029678
     8  Ca   0.038129  18.339740   0.060476
     9  O    0.029678   0.060476   8.964919
 Mulliken atomic charges:
              1
     1  O   -1.034767
     2  P    1.083441
     3  Ca   1.483104
     4  O   -1.043877
     5  Ca   1.462483
     6  O   -0.643644
     7  O   -0.725376
     8  Ca   1.462495
     9  O   -1.043860
 Sum of Mulliken charges=   1.00000
 Atomic charges with hydrogens summed into heavy atoms:
              1
     1  O   -1.034767
     2  P    1.083441
     3  Ca   1.483104
     4  O   -1.043877
     5  Ca   1.462483
     6  O   -0.643644
     7  O   -0.725376
     8  Ca   1.462495
     9  O   -1.043860
 Sum of Mulliken charges=   1.00000
 Electronic spatial extent (au):  <R**2>=  1728.9075
 Charge=     1.0000 electrons
 Dipole moment (field-independent basis, Debye):
    X=     0.9403    Y=    -0.0002    Z=     6.2041  Tot=     6.2749
 Quadrupole moment (field-independent basis, Debye-Ang):
   XX=   -63.7294   YY=   -44.2417   ZZ=   -80.5254
   XY=     0.0003   XZ=   -28.3338   YZ=     0.0013
 Traceless Quadrupole moment (field-independent basis, Debye-Ang):
   XX=    -0.8972   YY=    18.5904   ZZ=   -17.6932
   XY=     0.0003   XZ=   -28.3338   YZ=     0.0013
 Octapole moment (field-independent basis, Debye-Ang**2):
  XXX=   -20.1542  YYY=     0.0058  ZZZ=    45.2712  XYY=    73.7655
  XXY=    -0.0081  XXZ=    28.1476  XZZ=   -39.2478  YZZ=    -0.0021
  YYZ=     4.8751  XYZ=     0.0057
 Hexadecapole moment (field-independent basis, Debye-Ang**3):
 XXXX=  -746.0992 YYYY=  -401.3405 ZZZZ=  -674.0937 XXXY=     0.0008
 XXXZ=  -157.8570 YYYX=     0.0016 YYYZ=     0.0059 ZZZX=  -109.9392
 ZZZY=     0.0048 XXYY=  -182.3997 XXZZ=  -218.9349 YYZZ=  -189.6647
 XXYZ=    -0.0009 YYXZ=   -34.9861 ZZXY=     0.0014
 N-N= 1.104955671711D+03 E-N=-8.710565023727D+03  KE= 2.742232633941D+03
 Merz-Kollman atomic radii used.
 Read replacement radii for each type of atom:
 Rad(20) =   1.188000000000D+00
 Atom Element Radius
    1     8    1.40
    2    15    1.80
    3    20    1.19
    4     8    1.40
    5    20    1.19
    6     8    1.40
    7     8    1.40
    8    20    1.19
    9     8    1.40

 **********************************************************************

            Electrostatic Properties Using The SCF Density

 **********************************************************************

       Atomic Center    1 is at   0.589468  0.000098 -1.656999
       Atomic Center    2 is at  -1.065442  0.000034 -1.530669
       Atomic Center    3 is at  -1.626092 -0.000104  1.390271
       Atomic Center    4 is at  -1.237498  1.284964 -0.440759
       Atomic Center    5 is at   1.054134  1.671327 -0.138379
       Atomic Center    6 is at   2.068708  0.000053  1.103801
       Atomic Center    7 is at   0.608658 -0.000142  1.521441
       Atomic Center    8 is at   1.054272 -1.671243 -0.138529
       Atomic Center    9 is at  -1.237416 -1.284986 -0.440889
     741 points will be used for fitting atomic charges
 Fitting point charges to eletrostatic potential
 Charges from ESP fit, RMS=   0.00662 RRMS=   0.04154:
 Charge=   1.00000 Dipole=     0.8061    -0.0002     6.0212 Tot=     6.0749
              1
     1  O   -0.940483
     2  P    0.536176
     3  Ca   1.647882
     4  O   -0.985417
     5  Ca   1.674959
     6  O   -0.691435
     7  O   -0.931262
     8  Ca   1.674966
     9  O   -0.985386
 -----------------------------------------------------------------

              Electrostatic Properties (Atomic Units)

 -----------------------------------------------------------------
    Center     Electric         -------- Electric Field --------
               Potential          X             Y             Z
 -----------------------------------------------------------------
    1 Atom    -22.248622
    2 Atom    -53.962544
    3 Atom    -80.016235
    4 Atom    -22.248530
    5 Atom    -80.038998
    6 Atom    -22.216062
    7 Atom    -22.204616
    8 Atom    -80.038998
    9 Atom    -22.248527
 -----------------------------------------------------------------
 1\1\GINC-N035\SP\RB3LYP\6-31+G(d,p)\Ca3O5P1(1+)\TIMN\12-Jun-2015\0\\# 
 b3lyp/6-31+G(d,p) int=ultrafine pop=(ReadRadii,MK)\\mol_17.28.12.pdbcc
 _plusQ.z58534.zip.xyz\\1,1\O,0,0.58947,0.0001,-1.657\P,0,-1.06544,0.00
 003,-1.53067\Ca,0,-1.62609,-0.00011,1.39027\O,0,-1.2375,1.28496,-0.440
 76\Ca,0,1.05413,1.67133,-0.13838\O,0,2.06871,0.00006,1.1038\O,0,0.6086
 6,-0.00014,1.52144\Ca,0,1.05428,-1.67124,-0.13853\O,0,-1.23741,-1.2849
 9,-0.44089\\Version=EM64T-G03RevE.01\State=1-A\HF=-2750.2488173\RMSD=5
 .397e-05\Thermal=0.\Dipole=0.3699512,-0.0000861,2.4408666\PG=C01 [X(Ca
 3O5P1)]\\@


 IF YOU GIVE EVERYONE A PIECE OF YOUR MIND,
 PRETTY SOON IT WILL BE ALL GONE.
 Job cpu time:  0 days  0 hours  1 minutes 57.4 seconds.
 File lengths (MBytes):  RWF=     36 Int=      0 D2E=      0 Chk=     11 Scr=      1
 Normal termination of Gaussian 03 at Fri Jun 12 18:08:19 2015.
