 Entering Gaussian System, Link 0=/home/timn/tmp/g03.e01/g03
 Input=mol_17.23.15.pdbcccc_plusQ.z58215.zip.xyz.gjf
 Output=mol_17.23.15.pdbcccc_plusQ.z58215.zip.xyz.out
 Initial command:
 /home/timn/tmp/g03.e01/l1.exe /home/timn/tmp/g03.e01/Gau-18104.inp -scrdir=/home/timn/tmp/g03.e01/
 Default is to use a total of   2 processors:
                                2 via shared-memory
                                1 via Linda
 Entering Link 1 = /home/timn/tmp/g03.e01/l1.exe PID=     18105.
  
 Copyright (c) 1988,1990,1992,1993,1995,1998,2003,2004,2007, Gaussian, Inc.
                  All Rights Reserved.
  
 This is the Gaussian(R) 03 program.  It is based on the
 the Gaussian(R) 98 system (copyright 1998, Gaussian, Inc.),
 the Gaussian(R) 94 system (copyright 1995, Gaussian, Inc.),
 the Gaussian 92(TM) system (copyright 1992, Gaussian, Inc.),
 the Gaussian 90(TM) system (copyright 1990, Gaussian, Inc.),
 the Gaussian 88(TM) system (copyright 1988, Gaussian, Inc.),
 the Gaussian 86(TM) system (copyright 1986, Carnegie Mellon
 University), and the Gaussian 82(TM) system (copyright 1983,
 Carnegie Mellon University). Gaussian is a federally registered
 trademark of Gaussian, Inc.
  
 This software contains proprietary and confidential information,
 including trade secrets, belonging to Gaussian, Inc.
  
 This software is provided under written license and may be
 used, copied, transmitted, or stored only in accord with that
 written license.
  
 The following legend is applicable only to US Government
 contracts under FAR:
  
                    RESTRICTED RIGHTS LEGEND
  
 Use, reproduction and disclosure by the US Government is
 subject to restrictions as set forth in subparagraphs (a)
 and (c) of the Commercial Computer Software - Restricted
 Rights clause in FAR 52.227-19.
  
 Gaussian, Inc.
 340 Quinnipiac St., Bldg. 40, Wallingford CT 06492
  
  
 ---------------------------------------------------------------
 Warning -- This program may not be used in any manner that
 competes with the business of Gaussian, Inc. or will provide
 assistance to any competitor of Gaussian, Inc.  The licensee
 of this program is prohibited from giving any competitor of
 Gaussian, Inc. access to this program.  By using this program,
 the user acknowledges that Gaussian, Inc. is engaged in the
 business of creating and licensing software in the field of
 computational chemistry and represents and warrants to the
 licensee that it is not a competitor of Gaussian, Inc. and that
 it will not use this program in any manner prohibited above.
 ---------------------------------------------------------------
  

 Cite this work as:
 Gaussian 03, Revision E.01,
 M. J. Frisch, G. W. Trucks, H. B. Schlegel, G. E. Scuseria, 
 M. A. Robb, J. R. Cheeseman, J. A. Montgomery, Jr., T. Vreven, 
 K. N. Kudin, J. C. Burant, J. M. Millam, S. S. Iyengar, J. Tomasi, 
 V. Barone, B. Mennucci, M. Cossi, G. Scalmani, N. Rega, 
 G. A. Petersson, H. Nakatsuji, M. Hada, M. Ehara, K. Toyota, 
 R. Fukuda, J. Hasegawa, M. Ishida, T. Nakajima, Y. Honda, O. Kitao, 
 H. Nakai, M. Klene, X. Li, J. E. Knox, H. P. Hratchian, J. B. Cross, 
 V. Bakken, C. Adamo, J. Jaramillo, R. Gomperts, R. E. Stratmann, 
 O. Yazyev, A. J. Austin, R. Cammi, C. Pomelli, J. W. Ochterski, 
 P. Y. Ayala, K. Morokuma, G. A. Voth, P. Salvador, J. J. Dannenberg, 
 V. G. Zakrzewski, S. Dapprich, A. D. Daniels, M. C. Strain, 
 O. Farkas, D. K. Malick, A. D. Rabuck, K. Raghavachari, 
 J. B. Foresman, J. V. Ortiz, Q. Cui, A. G. Baboul, S. Clifford, 
 J. Cioslowski, B. B. Stefanov, G. Liu, A. Liashenko, P. Piskorz, 
 I. Komaromi, R. L. Martin, D. J. Fox, T. Keith, M. A. Al-Laham, 
 C. Y. Peng, A. Nanayakkara, M. Challacombe, P. M. W. Gill, 
 B. Johnson, W. Chen, M. W. Wong, C. Gonzalez, and J. A. Pople, 
 Gaussian, Inc., Wallingford CT, 2004.
 
 ******************************************
 Gaussian 03:  EM64T-G03RevE.01 11-Sep-2007
                12-Jun-2015 
 ******************************************
 %nproc=2
 Will use up to    2 processors via shared memory.
 Default route:  MP2=Direct MaxDisk=2000MB
 ----------------------------------------------------
 # b3lyp/6-31+G(d,p) int=ultrafine pop=(ReadRadii,MK)
 ----------------------------------------------------

 Warning!  SCF SP cutoffs with diffuse functions may be unreliable.
 Consider SCF=Tight

 1/38=1/1;
 2/17=6,18=5,40=1/2;
 3/5=1,6=6,7=111,11=2,16=1,25=1,30=1,74=-5,75=5/1,2,3;
 4//1;
 5/5=2,32=1,38=5/2;
 6/7=2,8=2,9=2,10=2,15=8,20=101,28=1/1,2;
 99/5=1,9=1/99;
 -----------------------------------------
 mol_17.23.15.pdbcccc_plusQ.z58215.zip.xyz
 -----------------------------------------
 Symbolic Z-matrix:
 Charge =  1 Multiplicity = 1
 O                    -2.61421  -0.13983   0. 
 P                    -1.3058   -0.96034   0. 
 Ca                   -1.93077   2.14484   0. 
 O                     0.30865   2.71944   0. 
 O                     0.        1.1953    0. 
 Ca                    2.20069   1.11951   0. 
 O                     2.5175   -1.02333   0. 
 Ca                    1.14862  -2.64499   0. 
 O                    -1.30992  -2.49936   0. 
 
                          Input orientation:                          
 ---------------------------------------------------------------------
 Center     Atomic     Atomic              Coordinates (Angstroms)
 Number     Number      Type              X           Y           Z
 ---------------------------------------------------------------------
    1          8             0       -2.614210   -0.139830    0.000000
    2         15             0       -1.305800   -0.960340    0.000000
    3         20             0       -1.930770    2.144840    0.000000
    4          8             0        0.308650    2.719440    0.000000
    5          8             0        0.000000    1.195300    0.000000
    6         20             0        2.200690    1.119510    0.000000
    7          8             0        2.517500   -1.023330    0.000000
    8         20             0        1.148620   -2.644990    0.000000
    9          8             0       -1.309920   -2.499360    0.000000
 ---------------------------------------------------------------------
                    Distance matrix (angstroms):
                    1          2          3          4          5
     1  O    0.000000
     2  P    1.544401   0.000000
     3  Ca   2.384703   3.167449   0.000000
     4  O    4.088831   4.018362   2.311962   0.000000
     5  O    2.935416   2.520297   2.151627   1.555078   0.000000
     6  Ca   4.976866   4.076916   4.256790   2.477820   2.201995
     7  O    5.207208   3.823819   5.461173   4.345957   3.355611
     8  Ca   4.520477   2.976949   5.694305   5.429794   4.008386
     9  O    2.696026   1.539026   4.685515   5.464032   3.920000
                    6          7          8          9
     6  Ca   0.000000
     7  O    2.166133   0.000000
     8  Ca   3.908748   2.122172   0.000000
     9  O    5.041885   4.102171   2.462849   0.000000
 Stoichiometry    Ca3O5P(1+)
 Framework group  CS[SG(Ca3O5P)]
 Deg. of freedom    15
 Full point group                 CS
 Largest Abelian subgroup         CS      NOp   2
 Largest concise Abelian subgroup C1      NOp   1
                         Standard orientation:                         
 ---------------------------------------------------------------------
 Center     Atomic     Atomic              Coordinates (Angstroms)
 Number     Number      Type              X           Y           Z
 ---------------------------------------------------------------------
    1          8             0       -2.614210   -0.139830    0.000000
    2         15             0       -1.305799   -0.960339    0.000000
    3         20             0       -1.930770    2.144841    0.000000
    4          8             0        0.308650    2.719441    0.000000
    5          8             0        0.000000    1.195301    0.000000
    6         20             0        2.200690    1.119512    0.000000
    7          8             0        2.517501   -1.023328    0.000000
    8         20             0        1.148621   -2.644988    0.000000
    9          8             0       -1.309919   -2.499359    0.000000
 ---------------------------------------------------------------------
 Rotational constants (GHZ):      0.8255688      0.5770973      0.3396628
 Standard basis: 6-31+G(d,p) (6D, 7F)
 There are   147 symmetry adapted basis functions of A'  symmetry.
 There are    52 symmetry adapted basis functions of A"  symmetry.
 Integral buffers will be    131072 words long.
 Raffenetti 2 integral format.
 Two-electron integral symmetry is turned on.
   199 basis functions,   456 primitive gaussians,   199 cartesian basis functions
    57 alpha electrons       57 beta electrons
       nuclear repulsion energy       945.3523442888 Hartrees.
 NAtoms=    9 NActive=    9 NUniq=    9 SFac= 7.50D-01 NAtFMM=   80 NAOKFM=F Big=F
 One-electron integrals computed using PRISM.
 NBasis=   199 RedAO= T  NBF=   147    52
 NBsUse=   199 1.00D-06 NBFU=   147    52
 Harris functional with IExCor=  402 diagonalized for initial guess.
 ExpMin= 7.10D-03 ExpMax= 3.53D+04 ExpMxC= 5.30D+03 IAcc=3 IRadAn=         5 AccDes= 0.00D+00
 HarFok:  IExCor= 402 AccDes= 0.00D+00 IRadAn=         5 IDoV=1
 ScaDFX=  1.000000  1.000000  1.000000  1.000000
 Initial guess orbital symmetries:
       Occupied  (A') (A') (A') (A') (A') (A') (A') (A') (A') (A')
                 (A') (A') (A') (A') (A") (A') (A') (A") (A') (A')
                 (A") (A') (A') (A') (A") (A') (A') (A') (A') (A')
                 (A') (A') (A') (A') (A") (A") (A") (A') (A') (A')
                 (A') (A') (A') (A') (A') (A') (A") (A') (A") (A')
                 (A') (A') (A") (A") (A') (A") (A')
       Virtual   (A') (A") (A') (A') (A') (A") (A') (A") (A') (A")
                 (A') (A') (A') (A') (A') (A') (A') (A") (A') (A")
                 (A") (A') (A') (A') (A') (A') (A') (A') (A") (A')
                 (A') (A") (A") (A') (A') (A") (A') (A') (A') (A")
                 (A") (A') (A") (A') (A") (A') (A') (A') (A') (A")
                 (A') (A") (A') (A') (A') (A") (A') (A') (A') (A")
                 (A') (A") (A') (A') (A") (A') (A') (A") (A') (A')
                 (A') (A') (A') (A') (A") (A') (A') (A') (A') (A')
                 (A") (A') (A") (A') (A') (A') (A') (A') (A') (A')
                 (A") (A") (A") (A') (A") (A') (A") (A') (A') (A')
                 (A') (A') (A') (A') (A') (A') (A') (A") (A') (A')
                 (A') (A') (A') (A") (A") (A") (A") (A') (A") (A')
                 (A") (A') (A') (A') (A') (A") (A') (A') (A") (A')
                 (A') (A") (A') (A') (A') (A') (A') (A') (A') (A')
                 (A') (A')
 The electronic state of the initial guess is 1-A'.
 Requested convergence on RMS density matrix=1.00D-04 within 128 cycles.
 Requested convergence on MAX density matrix=1.00D-02.
 Requested convergence on             energy=1.00D-02.
 No special actions if energy rises.
 EnCoef did     2 forward-backward iterations
 EnCoef did     2 forward-backward iterations
 EnCoef did     4 forward-backward iterations
 SCF Done:  E(RB+HF-LYP) =  -2750.13357243     A.U. after   10 cycles
             Convg  =    0.6525D-04             -V/T =  2.0029
             S**2   =   0.0000

 **********************************************************************

            Population analysis using the SCF density.

 **********************************************************************

 Orbital symmetries:
       Occupied  (A') (A') (A') (A') (A') (A') (A') (A') (A') (A')
                 (A') (A') (A") (A') (A') (A") (A') (A') (A") (A')
                 (A') (A') (A") (A') (A') (A') (A') (A') (A') (A")
                 (A') (A") (A') (A') (A') (A") (A') (A') (A') (A')
                 (A') (A') (A') (A') (A') (A") (A') (A') (A") (A')
                 (A") (A') (A') (A') (A") (A") (A')
       Virtual   (A') (A') (A") (A') (A") (A') (A") (A') (A') (A")
                 (A') (A') (A') (A') (A') (A') (A") (A') (A') (A")
                 (A") (A') (A') (A') (A') (A') (A") (A') (A') (A')
                 (A') (A') (A") (A') (A") (A') (A') (A") (A") (A')
                 (A") (A') (A") (A') (A') (A") (A') (A") (A') (A')
                 (A") (A') (A') (A') (A") (A') (A') (A') (A') (A")
                 (A") (A') (A') (A') (A") (A') (A") (A') (A') (A')
                 (A') (A') (A') (A") (A') (A') (A') (A') (A') (A')
                 (A") (A') (A") (A') (A') (A') (A') (A') (A') (A')
                 (A") (A") (A") (A') (A') (A") (A') (A") (A') (A')
                 (A') (A') (A') (A') (A') (A') (A') (A') (A') (A")
                 (A') (A') (A') (A") (A") (A") (A') (A') (A") (A')
                 (A') (A") (A") (A") (A') (A') (A") (A') (A') (A')
                 (A') (A") (A') (A') (A') (A') (A') (A') (A') (A')
                 (A') (A')
 The electronic state is 1-A'.
 Alpha  occ. eigenvalues -- -145.53132-145.49946-145.45496 -77.27353 -19.26245
 Alpha  occ. eigenvalues --  -19.26049 -19.23340 -19.23108 -19.11532 -15.59915
 Alpha  occ. eigenvalues --  -15.56818 -15.52383 -12.73187 -12.73077 -12.73022
 Alpha  occ. eigenvalues --  -12.70069 -12.70038 -12.69861 -12.65656 -12.65564
 Alpha  occ. eigenvalues --  -12.65433  -6.72950  -4.89341  -4.89164  -4.88797
 Alpha  occ. eigenvalues --   -1.96940  -1.93925  -1.89678  -1.24776  -1.24743
 Alpha  occ. eigenvalues --   -1.24026  -1.21743  -1.21681  -1.20586  -1.17708
 Alpha  occ. eigenvalues --   -1.17668  -1.16590  -1.11544  -1.07222  -1.06380
 Alpha  occ. eigenvalues --   -0.86991  -0.85662  -0.64347  -0.53127  -0.52569
 Alpha  occ. eigenvalues --   -0.50282  -0.46705  -0.46426  -0.44216  -0.43745
 Alpha  occ. eigenvalues --   -0.43572  -0.35541  -0.34746  -0.31903  -0.31216
 Alpha  occ. eigenvalues --   -0.29798  -0.29513
 Alpha virt. eigenvalues --   -0.19996  -0.17692  -0.17321  -0.15031  -0.11889
 Alpha virt. eigenvalues --   -0.10333  -0.10271  -0.09996  -0.09110  -0.08532
 Alpha virt. eigenvalues --   -0.08204  -0.06886  -0.06466  -0.05838  -0.05331
 Alpha virt. eigenvalues --   -0.04959  -0.04958  -0.04449  -0.04154  -0.04135
 Alpha virt. eigenvalues --   -0.03965  -0.03745  -0.03541  -0.03167  -0.02977
 Alpha virt. eigenvalues --   -0.02476  -0.02331  -0.02296  -0.00053   0.00373
 Alpha virt. eigenvalues --    0.01690   0.02869   0.03513   0.03588   0.04238
 Alpha virt. eigenvalues --    0.04618   0.05262   0.05646   0.06083   0.06675
 Alpha virt. eigenvalues --    0.07113   0.07539   0.08228   0.08241   0.08891
 Alpha virt. eigenvalues --    0.09646   0.10624   0.10722   0.10819   0.11745
 Alpha virt. eigenvalues --    0.12463   0.12724   0.13752   0.14750   0.14978
 Alpha virt. eigenvalues --    0.16089   0.18259   0.18501   0.18892   0.18942
 Alpha virt. eigenvalues --    0.20783   0.20946   0.23272   0.26073   0.27199
 Alpha virt. eigenvalues --    0.27904   0.29355   0.29578   0.32006   0.32963
 Alpha virt. eigenvalues --    0.33288   0.34387   0.36030   0.36324   0.37333
 Alpha virt. eigenvalues --    0.39354   0.40632   0.45286   0.49003   0.51411
 Alpha virt. eigenvalues --    0.57325   0.58101   0.58433   0.59951   0.67708
 Alpha virt. eigenvalues --    0.71955   0.75244   0.81170   0.92116   0.95957
 Alpha virt. eigenvalues --    1.05218   1.09348   1.10355   1.10470   1.14310
 Alpha virt. eigenvalues --    1.14551   1.16504   1.16646   1.17907   1.19709
 Alpha virt. eigenvalues --    1.21423   1.22344   1.24754   1.30019   1.30924
 Alpha virt. eigenvalues --    1.35770   1.43701   1.44729   1.48555   1.50564
 Alpha virt. eigenvalues --    1.54211   1.60196   1.62089   1.67932   1.69939
 Alpha virt. eigenvalues --    1.73149   1.75381   1.78164   1.80370   1.81288
 Alpha virt. eigenvalues --    1.83778   1.84613   1.85467   1.86473   1.87596
 Alpha virt. eigenvalues --    1.89764   1.92748   1.96960   2.00885   2.04283
 Alpha virt. eigenvalues --    2.10050   2.20208   2.22718   2.60646   2.70699
 Alpha virt. eigenvalues --    3.08131   3.40579   3.85348   3.89994   3.99333
 Alpha virt. eigenvalues --    4.05664   4.18514
          Condensed to atoms (all electrons):
              1          2          3          4          5          6
     1  O    8.731639  -0.092256   0.059462  -0.012828  -0.020558  -0.003105
     2  P   -0.092256  15.250734  -0.036375   0.011945  -0.025315   0.041546
     3  Ca   0.059462  -0.036375  18.225878   0.111320   0.097920  -0.017926
     4  O   -0.012828   0.011945   0.111320   8.730225  -0.160657   0.084184
     5  O   -0.020558  -0.025315   0.097920  -0.160657   8.713565   0.045837
     6  Ca  -0.003105   0.041546  -0.017926   0.084184   0.045837  18.272027
     7  O    0.003550  -0.033570   0.001753  -0.001245   0.006118   0.186719
     8  Ca   0.025719  -0.068887   0.006351  -0.004690   0.012903  -0.019249
     9  O    0.059564  -0.624546   0.018057  -0.006346  -0.031300  -0.012395
              7          8          9
     1  O    0.003550   0.025719   0.059564
     2  P   -0.033570  -0.068887  -0.624546
     3  Ca   0.001753   0.006351   0.018057
     4  O   -0.001245  -0.004690  -0.006346
     5  O    0.006118   0.012903  -0.031300
     6  Ca   0.186719  -0.019249  -0.012395
     7  O    8.795165   0.257789   0.004655
     8  Ca   0.257789  18.306991   0.071680
     9  O    0.004655   0.071680   9.102131
 Mulliken atomic charges:
              1
     1  O   -0.751186
     2  P    0.576724
     3  Ca   1.533561
     4  O   -0.751908
     5  O   -0.638513
     6  Ca   1.422362
     7  O   -1.220933
     8  Ca   1.411393
     9  O   -0.581499
 Sum of Mulliken charges=   1.00000
 Atomic charges with hydrogens summed into heavy atoms:
              1
     1  O   -0.751186
     2  P    0.576724
     3  Ca   1.533561
     4  O   -0.751908
     5  O   -0.638513
     6  Ca   1.422362
     7  O   -1.220933
     8  Ca   1.411393
     9  O   -0.581499
 Sum of Mulliken charges=   1.00000
 Electronic spatial extent (au):  <R**2>=  2775.5406
 Charge=     1.0000 electrons
 Dipole moment (field-independent basis, Debye):
    X=    -0.7618    Y=     3.5881    Z=     0.0000  Tot=     3.6681
 Quadrupole moment (field-independent basis, Debye-Ang):
   XX=   -60.1477   YY=   -29.5411   ZZ=   -73.8956
   XY=   -27.7800   XZ=     0.0000   YZ=     0.0000
 Traceless Quadrupole moment (field-independent basis, Debye-Ang):
   XX=    -5.6196   YY=    24.9870   ZZ=   -19.3675
   XY=   -27.7800   XZ=     0.0000   YZ=     0.0000
 Octapole moment (field-independent basis, Debye-Ang**2):
  XXX=   -19.3847  YYY=   -71.0213  ZZZ=     0.0000  XYY=     7.2517
  XXY=   141.4129  XXZ=     0.0000  XZZ=    -1.7776  YZZ=     4.2509
  YYZ=     0.0000  XYZ=     0.0000
 Hexadecapole moment (field-independent basis, Debye-Ang**3):
 XXXX= -1509.9091 YYYY= -1251.7127 ZZZZ=   -84.8289 XXXY=   117.2713
 XXXZ=     0.0000 YYYX=  -311.1717 YYYZ=     0.0000 ZZZX=     0.0000
 ZZZY=     0.0000 XXYY=  -278.8708 XXZZ=  -244.0240 YYZZ=  -260.9404
 XXYZ=     0.0000 YYXZ=     0.0000 ZZXY=    22.4826
 N-N= 9.453523442888D+02 E-N=-8.392467067388D+03  KE= 2.742133834005D+03
 Symmetry A'   KE= 2.475777149626D+03
 Symmetry A"   KE= 2.663566843793D+02
 Merz-Kollman atomic radii used.
 Read replacement radii for each type of atom:
 Rad(20) =   1.188000000000D+00
 Atom Element Radius
    1     8    1.40
    2    15    1.80
    3    20    1.19
    4     8    1.40
    5     8    1.40
    6    20    1.19
    7     8    1.40
    8    20    1.19
    9     8    1.40

 **********************************************************************

            Electrostatic Properties Using The SCF Density

 **********************************************************************

       Atomic Center    1 is at  -2.614210 -0.139830  0.000000
       Atomic Center    2 is at  -1.305799 -0.960339  0.000000
       Atomic Center    3 is at  -1.930770  2.144841  0.000000
       Atomic Center    4 is at   0.308650  2.719441  0.000000
       Atomic Center    5 is at   0.000000  1.195301  0.000000
       Atomic Center    6 is at   2.200690  1.119512  0.000000
       Atomic Center    7 is at   2.517501 -1.023328  0.000000
       Atomic Center    8 is at   1.148621 -2.644988  0.000000
       Atomic Center    9 is at  -1.309919 -2.499359  0.000000
     805 points will be used for fitting atomic charges
 Fitting point charges to eletrostatic potential
 Charges from ESP fit, RMS=   0.00632 RRMS=   0.04204:
 Charge=   1.00000 Dipole=    -0.5804     3.7356     0.0000 Tot=     3.7804
              1
     1  O   -0.587564
     2  P    0.475665
     3  Ca   1.711462
     4  O   -0.812563
     5  O   -0.957877
     6  Ca   1.757823
     7  O   -1.599836
     8  Ca   1.629209
     9  O   -0.616318
 -----------------------------------------------------------------

              Electrostatic Properties (Atomic Units)

 -----------------------------------------------------------------
    Center     Electric         -------- Electric Field --------
               Potential          X             Y             Z
 -----------------------------------------------------------------
    1 Atom    -22.204246
    2 Atom    -53.944571
    3 Atom    -80.008685
    4 Atom    -22.240452
    5 Atom    -22.237543
    6 Atom    -80.085054
    7 Atom    -22.342442
    8 Atom    -80.043180
    9 Atom    -22.207241
 -----------------------------------------------------------------
 1\1\GINC-N021\SP\RB3LYP\6-31+G(d,p)\Ca3O5P1(1+)\TIMN\12-Jun-2015\0\\# 
 b3lyp/6-31+G(d,p) int=ultrafine pop=(ReadRadii,MK)\\mol_17.23.15.pdbcc
 cc_plusQ.z58215.zip.xyz\\1,1\O,0,-2.61421,-0.13983,0.\P,0,-1.3058,-0.9
 6034,0.\Ca,0,-1.93077,2.14484,0.\O,0,0.30865,2.71944,0.\O,0,0.,1.1953,
 0.\Ca,0,2.20069,1.11951,0.\O,0,2.5175,-1.02333,0.\Ca,0,1.14862,-2.6449
 9,0.\O,0,-1.30992,-2.49936,0.\\Version=EM64T-G03RevE.01\State=1-A'\HF=
 -2750.1335724\RMSD=6.525e-05\Thermal=0.\Dipole=-0.2997296,1.4116578,0.
 \PG=CS [SG(Ca3O5P1)]\\@


 "MATHEMATICS IS THE ART OF GIVING THE SAME NAME
 TO DIFFERENT THINGS."
                    - H. POINCARE
 Job cpu time:  0 days  0 hours  1 minutes 52.0 seconds.
 File lengths (MBytes):  RWF=     36 Int=      0 D2E=      0 Chk=     11 Scr=      1
 Normal termination of Gaussian 03 at Fri Jun 12 17:52:03 2015.
