 Entering Gaussian System, Link 0=/home/timn/tmp/g03.e01/g03
 Input=mol_17.27.17.pdbc_plusQ.z58484.zip.xyz.gjf
 Output=mol_17.27.17.pdbc_plusQ.z58484.zip.xyz.out
 Initial command:
 /home/timn/tmp/g03.e01/l1.exe /home/timn/tmp/g03.e01/Gau-15272.inp -scrdir=/home/timn/tmp/g03.e01/
 Default is to use a total of   2 processors:
                                2 via shared-memory
                                1 via Linda
 Entering Link 1 = /home/timn/tmp/g03.e01/l1.exe PID=     15273.
  
 Copyright (c) 1988,1990,1992,1993,1995,1998,2003,2004,2007, Gaussian, Inc.
                  All Rights Reserved.
  
 This is the Gaussian(R) 03 program.  It is based on the
 the Gaussian(R) 98 system (copyright 1998, Gaussian, Inc.),
 the Gaussian(R) 94 system (copyright 1995, Gaussian, Inc.),
 the Gaussian 92(TM) system (copyright 1992, Gaussian, Inc.),
 the Gaussian 90(TM) system (copyright 1990, Gaussian, Inc.),
 the Gaussian 88(TM) system (copyright 1988, Gaussian, Inc.),
 the Gaussian 86(TM) system (copyright 1986, Carnegie Mellon
 University), and the Gaussian 82(TM) system (copyright 1983,
 Carnegie Mellon University). Gaussian is a federally registered
 trademark of Gaussian, Inc.
  
 This software contains proprietary and confidential information,
 including trade secrets, belonging to Gaussian, Inc.
  
 This software is provided under written license and may be
 used, copied, transmitted, or stored only in accord with that
 written license.
  
 The following legend is applicable only to US Government
 contracts under FAR:
  
                    RESTRICTED RIGHTS LEGEND
  
 Use, reproduction and disclosure by the US Government is
 subject to restrictions as set forth in subparagraphs (a)
 and (c) of the Commercial Computer Software - Restricted
 Rights clause in FAR 52.227-19.
  
 Gaussian, Inc.
 340 Quinnipiac St., Bldg. 40, Wallingford CT 06492
  
  
 ---------------------------------------------------------------
 Warning -- This program may not be used in any manner that
 competes with the business of Gaussian, Inc. or will provide
 assistance to any competitor of Gaussian, Inc.  The licensee
 of this program is prohibited from giving any competitor of
 Gaussian, Inc. access to this program.  By using this program,
 the user acknowledges that Gaussian, Inc. is engaged in the
 business of creating and licensing software in the field of
 computational chemistry and represents and warrants to the
 licensee that it is not a competitor of Gaussian, Inc. and that
 it will not use this program in any manner prohibited above.
 ---------------------------------------------------------------
  

 Cite this work as:
 Gaussian 03, Revision E.01,
 M. J. Frisch, G. W. Trucks, H. B. Schlegel, G. E. Scuseria, 
 M. A. Robb, J. R. Cheeseman, J. A. Montgomery, Jr., T. Vreven, 
 K. N. Kudin, J. C. Burant, J. M. Millam, S. S. Iyengar, J. Tomasi, 
 V. Barone, B. Mennucci, M. Cossi, G. Scalmani, N. Rega, 
 G. A. Petersson, H. Nakatsuji, M. Hada, M. Ehara, K. Toyota, 
 R. Fukuda, J. Hasegawa, M. Ishida, T. Nakajima, Y. Honda, O. Kitao, 
 H. Nakai, M. Klene, X. Li, J. E. Knox, H. P. Hratchian, J. B. Cross, 
 V. Bakken, C. Adamo, J. Jaramillo, R. Gomperts, R. E. Stratmann, 
 O. Yazyev, A. J. Austin, R. Cammi, C. Pomelli, J. W. Ochterski, 
 P. Y. Ayala, K. Morokuma, G. A. Voth, P. Salvador, J. J. Dannenberg, 
 V. G. Zakrzewski, S. Dapprich, A. D. Daniels, M. C. Strain, 
 O. Farkas, D. K. Malick, A. D. Rabuck, K. Raghavachari, 
 J. B. Foresman, J. V. Ortiz, Q. Cui, A. G. Baboul, S. Clifford, 
 J. Cioslowski, B. B. Stefanov, G. Liu, A. Liashenko, P. Piskorz, 
 I. Komaromi, R. L. Martin, D. J. Fox, T. Keith, M. A. Al-Laham, 
 C. Y. Peng, A. Nanayakkara, M. Challacombe, P. M. W. Gill, 
 B. Johnson, W. Chen, M. W. Wong, C. Gonzalez, and J. A. Pople, 
 Gaussian, Inc., Wallingford CT, 2004.
 
 ******************************************
 Gaussian 03:  EM64T-G03RevE.01 11-Sep-2007
                12-Jun-2015 
 ******************************************
 %nproc=2
 Will use up to    2 processors via shared memory.
 Default route:  MP2=Direct MaxDisk=2000MB
 ----------------------------------------------------
 # b3lyp/6-31+G(d,p) int=ultrafine pop=(ReadRadii,MK)
 ----------------------------------------------------

 Warning!  SCF SP cutoffs with diffuse functions may be unreliable.
 Consider SCF=Tight

 1/38=1/1;
 2/17=6,18=5,40=1/2;
 3/5=1,6=6,7=111,11=2,16=1,25=1,30=1,74=-5,75=5/1,2,3;
 4//1;
 5/5=2,32=1,38=5/2;
 6/7=2,8=2,9=2,10=2,15=8,20=101,28=1/1,2;
 99/5=1,9=1/99;
 --------------------------------------
 mol_17.27.17.pdbc_plusQ.z58484.zip.xyz
 --------------------------------------
 Symbolic Z-matrix:
 Charge =  1 Multiplicity = 1
 O                    -2.60266   0.37817   0.00015 
 O                     0.65631   2.44852  -0.00013 
 Ca                   -1.44333   2.35002   0. 
 P                    -2.8419   -1.14444  -0.00007 
 O                    -1.50974  -1.92316   0.00003 
 Ca                    0.73114  -2.31811  -0.00003 
 O                     2.26255  -0.92575   0.78657 
 O                     2.26271  -0.9258   -0.78647 
 Ca                    2.41593   1.20562   0.00001 
 
                          Input orientation:                          
 ---------------------------------------------------------------------
 Center     Atomic     Atomic              Coordinates (Angstroms)
 Number     Number      Type              X           Y           Z
 ---------------------------------------------------------------------
    1          8             0       -2.602660    0.378170    0.000150
    2          8             0        0.656310    2.448520   -0.000130
    3         20             0       -1.443330    2.350020    0.000000
    4         15             0       -2.841900   -1.144440   -0.000070
    5          8             0       -1.509740   -1.923160    0.000030
    6         20             0        0.731140   -2.318110   -0.000030
    7          8             0        2.262550   -0.925750    0.786570
    8          8             0        2.262710   -0.925800   -0.786470
    9         20             0        2.415930    1.205620    0.000010
 ---------------------------------------------------------------------
                    Distance matrix (angstroms):
                    1          2          3          4          5
     1  O    0.000000
     2  O    3.860989   0.000000
     3  Ca   2.287409   2.101949   0.000000
     4  P    1.541291   5.014662   3.763941   0.000000
     5  O    2.547664   4.878869   4.273696   1.543067   0.000000
     6  Ca   4.287674   4.767217   5.149734   3.760866   2.275418
     7  O    5.097934   3.818979   5.008284   5.169336   3.980407
     8  O    5.098130   3.819016   5.008419   5.169456   3.980539
     9  Ca   5.086346   2.154313   4.025362   5.759128   5.019975
                    6          7          8          9
     6  Ca   0.000000
     7  O    2.214187   0.000000
     8  O    2.214209   1.573040   0.000000
     9  Ca   3.905789   2.277046   2.277055   0.000000
 Stoichiometry    Ca3O5P(1+)
 Framework group  C1[X(Ca3O5P)]
 Deg. of freedom    21
 Full point group                 C1
 Largest Abelian subgroup         C1      NOp   1
 Largest concise Abelian subgroup C1      NOp   1
                         Standard orientation:                         
 ---------------------------------------------------------------------
 Center     Atomic     Atomic              Coordinates (Angstroms)
 Number     Number      Type              X           Y           Z
 ---------------------------------------------------------------------
    1          8             0       -2.602657    0.378171    0.000152
    2          8             0        0.656313    2.448521   -0.000128
    3         20             0       -1.443327    2.350021    0.000002
    4         15             0       -2.841897   -1.144439   -0.000068
    5          8             0       -1.509737   -1.923159    0.000032
    6         20             0        0.731143   -2.318109   -0.000028
    7          8             0        2.262553   -0.925749    0.786572
    8          8             0        2.262713   -0.925799   -0.786468
    9         20             0        2.415933    1.205621    0.000012
 ---------------------------------------------------------------------
 Rotational constants (GHZ):      0.6842591      0.5473637      0.3115208
 Standard basis: 6-31+G(d,p) (6D, 7F)
 There are   199 symmetry adapted basis functions of A   symmetry.
 Integral buffers will be    131072 words long.
 Raffenetti 2 integral format.
 Two-electron integral symmetry is turned on.
   199 basis functions,   456 primitive gaussians,   199 cartesian basis functions
    57 alpha electrons       57 beta electrons
       nuclear repulsion energy       907.2908396327 Hartrees.
 NAtoms=    9 NActive=    9 NUniq=    9 SFac= 7.50D-01 NAtFMM=   80 NAOKFM=F Big=F
 One-electron integrals computed using PRISM.
 NBasis=   199 RedAO= T  NBF=   199
 NBsUse=   199 1.00D-06 NBFU=   199
 Harris functional with IExCor=  402 diagonalized for initial guess.
 ExpMin= 7.10D-03 ExpMax= 3.53D+04 ExpMxC= 5.30D+03 IAcc=3 IRadAn=         5 AccDes= 0.00D+00
 HarFok:  IExCor= 402 AccDes= 0.00D+00 IRadAn=         5 IDoV=1
 ScaDFX=  1.000000  1.000000  1.000000  1.000000
 Initial guess orbital symmetries:
       Occupied  (A) (A) (A) (A) (A) (A) (A) (A) (A) (A) (A) (A)
                 (A) (A) (A) (A) (A) (A) (A) (A) (A) (A) (A) (A)
                 (A) (A) (A) (A) (A) (A) (A) (A) (A) (A) (A) (A)
                 (A) (A) (A) (A) (A) (A) (A) (A) (A) (A) (A) (A)
                 (A) (A) (A) (A) (A) (A) (A) (A) (A)
       Virtual   (A) (A) (A) (A) (A) (A) (A) (A) (A) (A) (A) (A)
                 (A) (A) (A) (A) (A) (A) (A) (A) (A) (A) (A) (A)
                 (A) (A) (A) (A) (A) (A) (A) (A) (A) (A) (A) (A)
                 (A) (A) (A) (A) (A) (A) (A) (A) (A) (A) (A) (A)
                 (A) (A) (A) (A) (A) (A) (A) (A) (A) (A) (A) (A)
                 (A) (A) (A) (A) (A) (A) (A) (A) (A) (A) (A) (A)
                 (A) (A) (A) (A) (A) (A) (A) (A) (A) (A) (A) (A)
                 (A) (A) (A) (A) (A) (A) (A) (A) (A) (A) (A) (A)
                 (A) (A) (A) (A) (A) (A) (A) (A) (A) (A) (A) (A)
                 (A) (A) (A) (A) (A) (A) (A) (A) (A) (A) (A) (A)
                 (A) (A) (A) (A) (A) (A) (A) (A) (A) (A) (A) (A)
                 (A) (A) (A) (A) (A) (A) (A) (A) (A) (A)
 The electronic state of the initial guess is 1-A.
 Requested convergence on RMS density matrix=1.00D-04 within 128 cycles.
 Requested convergence on MAX density matrix=1.00D-02.
 Requested convergence on             energy=1.00D-02.
 No special actions if energy rises.
 EnCoef did     3 forward-backward iterations
 SCF Done:  E(RB+HF-LYP) =  -2750.19710324     A.U. after    8 cycles
             Convg  =    0.5191D-04             -V/T =  2.0029
             S**2   =   0.0000

 **********************************************************************

            Population analysis using the SCF density.

 **********************************************************************

 Orbital symmetries:
       Occupied  (A) (A) (A) (A) (A) (A) (A) (A) (A) (A) (A) (A)
                 (A) (A) (A) (A) (A) (A) (A) (A) (A) (A) (A) (A)
                 (A) (A) (A) (A) (A) (A) (A) (A) (A) (A) (A) (A)
                 (A) (A) (A) (A) (A) (A) (A) (A) (A) (A) (A) (A)
                 (A) (A) (A) (A) (A) (A) (A) (A) (A)
       Virtual   (A) (A) (A) (A) (A) (A) (A) (A) (A) (A) (A) (A)
                 (A) (A) (A) (A) (A) (A) (A) (A) (A) (A) (A) (A)
                 (A) (A) (A) (A) (A) (A) (A) (A) (A) (A) (A) (A)
                 (A) (A) (A) (A) (A) (A) (A) (A) (A) (A) (A) (A)
                 (A) (A) (A) (A) (A) (A) (A) (A) (A) (A) (A) (A)
                 (A) (A) (A) (A) (A) (A) (A) (A) (A) (A) (A) (A)
                 (A) (A) (A) (A) (A) (A) (A) (A) (A) (A) (A) (A)
                 (A) (A) (A) (A) (A) (A) (A) (A) (A) (A) (A) (A)
                 (A) (A) (A) (A) (A) (A) (A) (A) (A) (A) (A) (A)
                 (A) (A) (A) (A) (A) (A) (A) (A) (A) (A) (A) (A)
                 (A) (A) (A) (A) (A) (A) (A) (A) (A) (A) (A) (A)
                 (A) (A) (A) (A) (A) (A) (A) (A) (A) (A)
 The electronic state is 1-A.
 Alpha  occ. eigenvalues -- -145.50247-145.49521-145.43947 -77.30079 -19.27866
 Alpha  occ. eigenvalues --  -19.27702 -19.22480 -19.22475 -19.12215 -15.57110
 Alpha  occ. eigenvalues --  -15.56423 -15.50920 -12.70348 -12.70327 -12.70180
 Alpha  occ. eigenvalues --  -12.69676 -12.69630 -12.69459 -12.64145 -12.64142
 Alpha  occ. eigenvalues --  -12.63956  -6.75552  -4.91999  -4.91777  -4.91331
 Alpha  occ. eigenvalues --   -1.94316  -1.93664  -1.88350  -1.22288  -1.22013
 Alpha  occ. eigenvalues --   -1.21914  -1.21519  -1.21390  -1.20571  -1.16522
 Alpha  occ. eigenvalues --   -1.16137  -1.15617  -1.13710  -1.08479  -1.04679
 Alpha  occ. eigenvalues --   -0.86295  -0.86239  -0.67759  -0.57322  -0.52567
 Alpha  occ. eigenvalues --   -0.52495  -0.45798  -0.45756  -0.44705  -0.43913
 Alpha  occ. eigenvalues --   -0.42961  -0.40390  -0.34039  -0.32614  -0.30970
 Alpha  occ. eigenvalues --   -0.30563  -0.30363
 Alpha virt. eigenvalues --   -0.19720  -0.18399  -0.17451  -0.14061  -0.12037
 Alpha virt. eigenvalues --   -0.10577  -0.10163  -0.08900  -0.08320  -0.08285
 Alpha virt. eigenvalues --   -0.07013  -0.06734  -0.06064  -0.05999  -0.05476
 Alpha virt. eigenvalues --   -0.04804  -0.04661  -0.04654  -0.04462  -0.04384
 Alpha virt. eigenvalues --   -0.04059  -0.03940  -0.03807  -0.03370  -0.02989
 Alpha virt. eigenvalues --   -0.02859  -0.02425  -0.02383  -0.02093  -0.01504
 Alpha virt. eigenvalues --    0.01136   0.02451   0.03485   0.03968   0.04626
 Alpha virt. eigenvalues --    0.04968   0.05180   0.05425   0.06685   0.06898
 Alpha virt. eigenvalues --    0.07573   0.08287   0.08559   0.08979   0.09593
 Alpha virt. eigenvalues --    0.09663   0.10227   0.11123   0.11871   0.12152
 Alpha virt. eigenvalues --    0.12189   0.13351   0.14895   0.15199   0.15807
 Alpha virt. eigenvalues --    0.15809   0.17030   0.17573   0.18838   0.20319
 Alpha virt. eigenvalues --    0.21131   0.21592   0.22344   0.24911   0.26083
 Alpha virt. eigenvalues --    0.27492   0.29235   0.29378   0.31959   0.32617
 Alpha virt. eigenvalues --    0.34073   0.35223   0.36792   0.38313   0.38635
 Alpha virt. eigenvalues --    0.39875   0.41011   0.42725   0.48105   0.48688
 Alpha virt. eigenvalues --    0.55392   0.57402   0.58848   0.63677   0.71276
 Alpha virt. eigenvalues --    0.76042   0.83542   0.88512   0.90249   0.92411
 Alpha virt. eigenvalues --    1.01085   1.06428   1.08364   1.09640   1.11132
 Alpha virt. eigenvalues --    1.13692   1.13874   1.16698   1.16986   1.18901
 Alpha virt. eigenvalues --    1.20347   1.23525   1.24868   1.27420   1.28197
 Alpha virt. eigenvalues --    1.33664   1.40204   1.41820   1.46652   1.50144
 Alpha virt. eigenvalues --    1.53278   1.57220   1.61916   1.65482   1.65635
 Alpha virt. eigenvalues --    1.68020   1.70918   1.74559   1.78129   1.82704
 Alpha virt. eigenvalues --    1.83849   1.85273   1.85486   1.86535   1.87565
 Alpha virt. eigenvalues --    1.88932   1.89277   1.92527   2.01647   2.04818
 Alpha virt. eigenvalues --    2.09664   2.19760   2.20008   2.53838   2.68535
 Alpha virt. eigenvalues --    3.03371   3.39985   3.82441   3.90607   3.95361
 Alpha virt. eigenvalues --    4.00186   4.07317
          Condensed to atoms (all electrons):
              1          2          3          4          5          6
     1  O    8.896506   0.000078   0.059935  -0.177707  -0.072103   0.004139
     2  O    0.000078   8.822782   0.244835  -0.003172   0.001188   0.009473
     3  Ca   0.059935   0.244835  18.281436  -0.047224   0.006346   0.007275
     4  P   -0.177707  -0.003172  -0.047224  14.789467  -0.206095  -0.052489
     5  O   -0.072103   0.001188   0.006346  -0.206095   8.912635   0.066515
     6  Ca   0.004139   0.009473   0.007275  -0.052489   0.066515  18.254695
     7  O    0.000111  -0.000324   0.002479  -0.001283  -0.000189   0.117585
     8  O    0.000110  -0.000325   0.002476  -0.001282  -0.000192   0.117596
     9  Ca  -0.007322   0.172517  -0.016421   0.045710  -0.006334  -0.022738
              7          8          9
     1  O    0.000111   0.000110  -0.007322
     2  O   -0.000324  -0.000325   0.172517
     3  Ca   0.002479   0.002476  -0.016421
     4  P   -0.001283  -0.001282   0.045710
     5  O   -0.000189  -0.000192  -0.006334
     6  Ca   0.117585   0.117596  -0.022738
     7  O    8.562892  -0.085087   0.080114
     8  O   -0.085087   8.562887   0.080114
     9  Ca   0.080114   0.080114  18.280085
 Mulliken atomic charges:
              1
     1  O   -0.703747
     2  O   -1.247052
     3  Ca   1.458862
     4  P    0.654075
     5  O   -0.701771
     6  Ca   1.497950
     7  O   -0.676297
     8  O   -0.676297
     9  Ca   1.394276
 Sum of Mulliken charges=   1.00000
 Atomic charges with hydrogens summed into heavy atoms:
              1
     1  O   -0.703747
     2  O   -1.247052
     3  Ca   1.458862
     4  P    0.654075
     5  O   -0.701771
     6  Ca   1.497950
     7  O   -0.676297
     8  O   -0.676297
     9  Ca   1.394276
 Sum of Mulliken charges=   1.00000
 Electronic spatial extent (au):  <R**2>=  3042.5251
 Charge=     1.0000 electrons
 Dipole moment (field-independent basis, Debye):
    X=    -1.9815    Y=     0.5248    Z=    -0.0001  Tot=     2.0498
 Quadrupole moment (field-independent basis, Debye-Ang):
   XX=   -55.9161   YY=   -34.8106   ZZ=   -77.5236
   XY=   -11.2749   XZ=     0.0011   YZ=     0.0026
 Traceless Quadrupole moment (field-independent basis, Debye-Ang):
   XX=     0.1673   YY=    21.2728   ZZ=   -21.4401
   XY=   -11.2749   XZ=     0.0011   YZ=     0.0026
 Octapole moment (field-independent basis, Debye-Ang**2):
  XXX=    51.8282  YYY=   -60.1175  ZZZ=     0.0002  XYY=   -25.9100
  XXY=   103.8234  XXZ=    -0.0001  XZZ=    -7.2489  YZZ=     3.9509
  YYZ=     0.0044  XYZ=     0.0035
 Hexadecapole moment (field-independent basis, Debye-Ang**3):
 XXXX= -1813.2941 YYYY= -1165.3580 ZZZZ=  -131.2090 XXXY=   153.9121
 XXXZ=     0.0039 YYYX=  -338.9826 YYYZ=     0.0195 ZZZX=    -0.0014
 ZZZY=     0.0056 XXYY=  -417.1100 XXZZ=  -348.7363 YYZZ=  -253.2651
 XXYZ=    -0.0035 YYXZ=     0.0019 ZZXY=    -4.8829
 N-N= 9.072908396327D+02 E-N=-8.316670384616D+03  KE= 2.742188812734D+03
 Merz-Kollman atomic radii used.
 Read replacement radii for each type of atom:
 Rad(20) =   1.188000000000D+00
 Atom Element Radius
    1     8    1.40
    2     8    1.40
    3    20    1.19
    4    15    1.80
    5     8    1.40
    6    20    1.19
    7     8    1.40
    8     8    1.40
    9    20    1.19

 **********************************************************************

            Electrostatic Properties Using The SCF Density

 **********************************************************************

       Atomic Center    1 is at  -2.602657  0.378171  0.000152
       Atomic Center    2 is at   0.656313  2.448521 -0.000128
       Atomic Center    3 is at  -1.443327  2.350021  0.000002
       Atomic Center    4 is at  -2.841897 -1.144439 -0.000068
       Atomic Center    5 is at  -1.509737 -1.923159  0.000032
       Atomic Center    6 is at   0.731143 -2.318109 -0.000028
       Atomic Center    7 is at   2.262553 -0.925749  0.786572
       Atomic Center    8 is at   2.262713 -0.925799 -0.786468
       Atomic Center    9 is at   2.415933  1.205621  0.000012
     918 points will be used for fitting atomic charges
 Fitting point charges to eletrostatic potential
 Charges from ESP fit, RMS=   0.00595 RRMS=   0.04184:
 Charge=   1.00000 Dipole=    -2.3172     0.6307    -0.0004 Tot=     2.4015
              1
     1  O   -0.798593
     2  O   -1.662865
     3  Ca   1.743048
     4  P    0.679608
     5  O   -0.805750
     6  Ca   1.752957
     7  O   -0.842161
     8  O   -0.842174
     9  Ca   1.775930
 -----------------------------------------------------------------

              Electrostatic Properties (Atomic Units)

 -----------------------------------------------------------------
    Center     Electric         -------- Electric Field --------
               Potential          X             Y             Z
 -----------------------------------------------------------------
    1 Atom    -22.183788
    2 Atom    -22.338922
    3 Atom    -80.045687
    4 Atom    -53.918448
    5 Atom    -22.185596
    6 Atom    -80.038020
    7 Atom    -22.247345
    8 Atom    -22.247345
    9 Atom    -80.100691
 -----------------------------------------------------------------
 1\1\GINC-N035\SP\RB3LYP\6-31+G(d,p)\Ca3O5P1(1+)\TIMN\12-Jun-2015\0\\# 
 b3lyp/6-31+G(d,p) int=ultrafine pop=(ReadRadii,MK)\\mol_17.27.17.pdbc_
 plusQ.z58484.zip.xyz\\1,1\O,0,-2.60266,0.37817,0.00015\O,0,0.65631,2.4
 4852,-0.00013\Ca,0,-1.44333,2.35002,0.\P,0,-2.8419,-1.14444,-0.00007\O
 ,0,-1.50974,-1.92316,0.00003\Ca,0,0.73114,-2.31811,-0.00003\O,0,2.2625
 5,-0.92575,0.78657\O,0,2.26271,-0.9258,-0.78647\Ca,0,2.41593,1.20562,0
 .00001\\Version=EM64T-G03RevE.01\State=1-A\HF=-2750.1971032\RMSD=5.191
 e-05\Thermal=0.\Dipole=-0.7795877,0.2064656,-0.0000507\PG=C01 [X(Ca3O5
 P1)]\\@


 THESE ARE THE TIMES THAT TRY MENS SOULS.
 THE SUMMER SOLDIER AND THE SUNSHINE PATRIOT WILL IN THIS CRISIS,
 SHRINK FROM THE SERVICE OF HIS COUNTRY.  BUT HE THAT STANDS NOW,
 DESERVES THE LOVE AND THANKS OF MAN AND WOMAN.
 TYRANNY, LIKE HELL, IS NOT EASILY CONQUERED,
 YET WE HAVE THIS CONSOLATION WITH US,
 THAT THE HARDER THE CONFLICT, THE MORE GLORIOUS THE TRIUMPH.
 WHAT WE OBTAIN TOO CHEAP, WE ESTEEM TOO LIGHTLY, 
 'TIS DEARNESS ONLY THAT GIVES EVERYTHING ITS VALUE.

                                              -- TOM PAINE
 Job cpu time:  0 days  0 hours  1 minutes 47.1 seconds.
 File lengths (MBytes):  RWF=     36 Int=      0 D2E=      0 Chk=     11 Scr=      1
 Normal termination of Gaussian 03 at Fri Jun 12 18:02:58 2015.
