 Entering Gaussian System, Link 0=/home/timn/tmp/g03.e01/g03
 Input=mol_17.24.0.pdbccc_plusQ.z58265.zip.xyz.gjf
 Output=mol_17.24.0.pdbccc_plusQ.z58265.zip.xyz.out
 Initial command:
 /home/timn/tmp/g03.e01/l1.exe /home/timn/tmp/g03.e01/Gau-14827.inp -scrdir=/home/timn/tmp/g03.e01/
 Default is to use a total of   2 processors:
                                2 via shared-memory
                                1 via Linda
 Entering Link 1 = /home/timn/tmp/g03.e01/l1.exe PID=     14828.
  
 Copyright (c) 1988,1990,1992,1993,1995,1998,2003,2004,2007, Gaussian, Inc.
                  All Rights Reserved.
  
 This is the Gaussian(R) 03 program.  It is based on the
 the Gaussian(R) 98 system (copyright 1998, Gaussian, Inc.),
 the Gaussian(R) 94 system (copyright 1995, Gaussian, Inc.),
 the Gaussian 92(TM) system (copyright 1992, Gaussian, Inc.),
 the Gaussian 90(TM) system (copyright 1990, Gaussian, Inc.),
 the Gaussian 88(TM) system (copyright 1988, Gaussian, Inc.),
 the Gaussian 86(TM) system (copyright 1986, Carnegie Mellon
 University), and the Gaussian 82(TM) system (copyright 1983,
 Carnegie Mellon University). Gaussian is a federally registered
 trademark of Gaussian, Inc.
  
 This software contains proprietary and confidential information,
 including trade secrets, belonging to Gaussian, Inc.
  
 This software is provided under written license and may be
 used, copied, transmitted, or stored only in accord with that
 written license.
  
 The following legend is applicable only to US Government
 contracts under FAR:
  
                    RESTRICTED RIGHTS LEGEND
  
 Use, reproduction and disclosure by the US Government is
 subject to restrictions as set forth in subparagraphs (a)
 and (c) of the Commercial Computer Software - Restricted
 Rights clause in FAR 52.227-19.
  
 Gaussian, Inc.
 340 Quinnipiac St., Bldg. 40, Wallingford CT 06492
  
  
 ---------------------------------------------------------------
 Warning -- This program may not be used in any manner that
 competes with the business of Gaussian, Inc. or will provide
 assistance to any competitor of Gaussian, Inc.  The licensee
 of this program is prohibited from giving any competitor of
 Gaussian, Inc. access to this program.  By using this program,
 the user acknowledges that Gaussian, Inc. is engaged in the
 business of creating and licensing software in the field of
 computational chemistry and represents and warrants to the
 licensee that it is not a competitor of Gaussian, Inc. and that
 it will not use this program in any manner prohibited above.
 ---------------------------------------------------------------
  

 Cite this work as:
 Gaussian 03, Revision E.01,
 M. J. Frisch, G. W. Trucks, H. B. Schlegel, G. E. Scuseria, 
 M. A. Robb, J. R. Cheeseman, J. A. Montgomery, Jr., T. Vreven, 
 K. N. Kudin, J. C. Burant, J. M. Millam, S. S. Iyengar, J. Tomasi, 
 V. Barone, B. Mennucci, M. Cossi, G. Scalmani, N. Rega, 
 G. A. Petersson, H. Nakatsuji, M. Hada, M. Ehara, K. Toyota, 
 R. Fukuda, J. Hasegawa, M. Ishida, T. Nakajima, Y. Honda, O. Kitao, 
 H. Nakai, M. Klene, X. Li, J. E. Knox, H. P. Hratchian, J. B. Cross, 
 V. Bakken, C. Adamo, J. Jaramillo, R. Gomperts, R. E. Stratmann, 
 O. Yazyev, A. J. Austin, R. Cammi, C. Pomelli, J. W. Ochterski, 
 P. Y. Ayala, K. Morokuma, G. A. Voth, P. Salvador, J. J. Dannenberg, 
 V. G. Zakrzewski, S. Dapprich, A. D. Daniels, M. C. Strain, 
 O. Farkas, D. K. Malick, A. D. Rabuck, K. Raghavachari, 
 J. B. Foresman, J. V. Ortiz, Q. Cui, A. G. Baboul, S. Clifford, 
 J. Cioslowski, B. B. Stefanov, G. Liu, A. Liashenko, P. Piskorz, 
 I. Komaromi, R. L. Martin, D. J. Fox, T. Keith, M. A. Al-Laham, 
 C. Y. Peng, A. Nanayakkara, M. Challacombe, P. M. W. Gill, 
 B. Johnson, W. Chen, M. W. Wong, C. Gonzalez, and J. A. Pople, 
 Gaussian, Inc., Wallingford CT, 2004.
 
 ******************************************
 Gaussian 03:  EM64T-G03RevE.01 11-Sep-2007
                12-Jun-2015 
 ******************************************
 %nproc=2
 Will use up to    2 processors via shared memory.
 Default route:  MP2=Direct MaxDisk=2000MB
 ----------------------------------------------------
 # b3lyp/6-31+G(d,p) int=ultrafine pop=(ReadRadii,MK)
 ----------------------------------------------------

 Warning!  SCF SP cutoffs with diffuse functions may be unreliable.
 Consider SCF=Tight

 1/38=1/1;
 2/17=6,18=5,40=1/2;
 3/5=1,6=6,7=111,11=2,16=1,25=1,30=1,74=-5,75=5/1,2,3;
 4//1;
 5/5=2,32=1,38=5/2;
 6/7=2,8=2,9=2,10=2,15=8,20=101,28=1/1,2;
 99/5=1,9=1/99;
 ---------------------------------------
 mol_17.24.0.pdbccc_plusQ.z58265.zip.xyz
 ---------------------------------------
 Symbolic Z-matrix:
 Charge =  1 Multiplicity = 1
 O                    -1.03233  -2.21611   0. 
 P                    -2.56854  -2.31922   0. 
 O                    -3.17433  -0.88994   0. 
 O                     3.97428   0.94572   0. 
 O                     2.82742  -0.03035   0. 
 O                     0.        1.12231   0. 
 Ca                    0.95991  -1.03892   0. 
 Ca                    2.08737   2.07361   0. 
 Ca                   -2.1589    1.13207   0. 
 
                          Input orientation:                          
 ---------------------------------------------------------------------
 Center     Atomic     Atomic              Coordinates (Angstroms)
 Number     Number      Type              X           Y           Z
 ---------------------------------------------------------------------
    1          8             0       -1.032330   -2.216110    0.000000
    2         15             0       -2.568540   -2.319220    0.000000
    3          8             0       -3.174330   -0.889940    0.000000
    4          8             0        3.974280    0.945720    0.000000
    5          8             0        2.827420   -0.030350    0.000000
    6          8             0        0.000000    1.122310    0.000000
    7         20             0        0.959910   -1.038920    0.000000
    8         20             0        2.087370    2.073610    0.000000
    9         20             0       -2.158900    1.132070    0.000000
 ---------------------------------------------------------------------
                    Distance matrix (angstroms):
                    1          2          3          4          5
     1  O    0.000000
     2  P    1.539666   0.000000
     3  O    2.519304   1.552360   0.000000
     4  O    5.921428   7.312204   7.380533   0.000000
     5  O    4.435675   5.861340   6.062994   1.505988   0.000000
     6  O    3.494389   4.294360   3.758393   3.978201   3.053347
     7  Ca   2.314043   3.753549   4.136923   3.609047   2.122453
     8  Ca   5.304171   6.401129   6.038884   2.198310   2.230319
     9  Ca   3.532629   3.475515   2.262658   6.136010   5.120020
                    6          7          8          9
     6  O    0.000000
     7  Ca   2.364813   0.000000
     8  Ca   2.293924   3.310439   0.000000
     9  Ca   2.158922   3.800023   4.349403   0.000000
 Stoichiometry    Ca3O5P(1+)
 Framework group  CS[SG(Ca3O5P)]
 Deg. of freedom    15
 Full point group                 CS
 Largest Abelian subgroup         CS      NOp   2
 Largest concise Abelian subgroup C1      NOp   1
                         Standard orientation:                         
 ---------------------------------------------------------------------
 Center     Atomic     Atomic              Coordinates (Angstroms)
 Number     Number      Type              X           Y           Z
 ---------------------------------------------------------------------
    1          8             0       -1.032325   -2.216111    0.000000
    2         15             0       -2.568535   -2.319223    0.000000
    3          8             0       -3.174327   -0.889944    0.000000
    4          8             0        3.974280    0.945726    0.000000
    5          8             0        2.827422   -0.030346    0.000000
    6          8             0        0.000000    1.122311    0.000000
    7         20             0        0.959913   -1.038918    0.000000
    8         20             0        2.087369    2.073613    0.000000
    9         20             0       -2.158900    1.132068    0.000000
 ---------------------------------------------------------------------
 Rotational constants (GHZ):      1.2964943      0.3803019      0.2940484
 Standard basis: 6-31+G(d,p) (6D, 7F)
 There are   147 symmetry adapted basis functions of A'  symmetry.
 There are    52 symmetry adapted basis functions of A"  symmetry.
 Integral buffers will be    131072 words long.
 Raffenetti 2 integral format.
 Two-electron integral symmetry is turned on.
   199 basis functions,   456 primitive gaussians,   199 cartesian basis functions
    57 alpha electrons       57 beta electrons
       nuclear repulsion energy       925.8281213837 Hartrees.
 NAtoms=    9 NActive=    9 NUniq=    9 SFac= 7.50D-01 NAtFMM=   80 NAOKFM=F Big=F
 One-electron integrals computed using PRISM.
 NBasis=   199 RedAO= T  NBF=   147    52
 NBsUse=   199 1.00D-06 NBFU=   147    52
 Harris functional with IExCor=  402 diagonalized for initial guess.
 ExpMin= 7.10D-03 ExpMax= 3.53D+04 ExpMxC= 5.30D+03 IAcc=3 IRadAn=         5 AccDes= 0.00D+00
 HarFok:  IExCor= 402 AccDes= 0.00D+00 IRadAn=         5 IDoV=1
 ScaDFX=  1.000000  1.000000  1.000000  1.000000
 Initial guess orbital symmetries:
       Occupied  (A') (A') (A') (A') (A') (A') (A') (A') (A') (A')
                 (A') (A') (A') (A') (A") (A') (A') (A") (A') (A')
                 (A") (A') (A') (A') (A") (A') (A') (A') (A') (A')
                 (A') (A') (A') (A') (A") (A") (A") (A') (A') (A')
                 (A') (A') (A') (A') (A') (A') (A') (A') (A") (A")
                 (A') (A") (A") (A') (A') (A") (A')
       Virtual   (A') (A") (A') (A') (A') (A") (A') (A") (A') (A')
                 (A") (A') (A') (A') (A') (A') (A") (A') (A') (A")
                 (A') (A") (A') (A') (A') (A') (A') (A') (A') (A")
                 (A') (A") (A") (A') (A') (A") (A') (A') (A') (A")
                 (A') (A') (A") (A") (A') (A") (A') (A') (A') (A")
                 (A') (A') (A') (A") (A') (A") (A') (A") (A') (A')
                 (A') (A') (A") (A") (A') (A') (A') (A') (A') (A")
                 (A') (A') (A") (A') (A') (A') (A') (A') (A') (A')
                 (A') (A") (A') (A") (A') (A') (A') (A') (A") (A')
                 (A") (A') (A') (A") (A') (A') (A") (A") (A') (A')
                 (A') (A') (A') (A') (A') (A') (A') (A') (A") (A')
                 (A') (A') (A") (A") (A") (A") (A") (A') (A') (A')
                 (A') (A") (A') (A') (A') (A") (A') (A") (A') (A')
                 (A') (A") (A') (A') (A') (A') (A') (A') (A') (A')
                 (A') (A')
 The electronic state of the initial guess is 1-A'.
 Requested convergence on RMS density matrix=1.00D-04 within 128 cycles.
 Requested convergence on MAX density matrix=1.00D-02.
 Requested convergence on             energy=1.00D-02.
 No special actions if energy rises.
 EnCoef did     3 forward-backward iterations
 EnCoef did   100 forward-backward iterations
 EnCoef did   100 forward-backward iterations
 SCF Done:  E(RB+HF-LYP) =  -2750.16992789     A.U. after   11 cycles
             Convg  =    0.4190D-04             -V/T =  2.0029
             S**2   =   0.0000

 **********************************************************************

            Population analysis using the SCF density.

 **********************************************************************

 Orbital symmetries:
       Occupied  (A') (A') (A') (A') (A') (A') (A') (A') (A') (A')
                 (A') (A') (A") (A') (A') (A") (A') (A') (A") (A')
                 (A') (A') (A") (A') (A') (A') (A') (A') (A") (A')
                 (A') (A') (A") (A") (A') (A') (A') (A') (A') (A')
                 (A') (A') (A') (A') (A') (A") (A") (A') (A') (A')
                 (A') (A") (A') (A') (A") (A') (A")
       Virtual   (A') (A") (A') (A') (A") (A') (A') (A") (A") (A')
                 (A') (A') (A') (A') (A") (A') (A') (A') (A") (A')
                 (A') (A") (A') (A") (A') (A') (A') (A') (A') (A')
                 (A') (A') (A") (A") (A") (A') (A') (A') (A") (A')
                 (A") (A') (A') (A') (A") (A') (A') (A") (A") (A')
                 (A') (A") (A') (A') (A") (A') (A') (A') (A') (A")
                 (A") (A') (A') (A") (A') (A') (A') (A") (A') (A')
                 (A') (A") (A') (A') (A') (A') (A') (A') (A') (A')
                 (A') (A") (A") (A') (A') (A') (A') (A') (A') (A')
                 (A") (A") (A") (A') (A') (A") (A') (A') (A") (A')
                 (A') (A') (A') (A') (A') (A') (A') (A') (A') (A")
                 (A') (A') (A") (A") (A') (A') (A") (A") (A") (A')
                 (A') (A') (A") (A") (A') (A") (A') (A') (A') (A')
                 (A') (A") (A') (A') (A') (A') (A') (A') (A') (A')
                 (A') (A')
 The electronic state is 1-A'.
 Alpha  occ. eigenvalues -- -145.54772-145.47752-145.47207 -77.30832 -19.28642
 Alpha  occ. eigenvalues --  -19.28542 -19.19602 -19.19178 -19.17169 -15.61656
 Alpha  occ. eigenvalues --  -15.54565 -15.54142 -12.74913 -12.74858 -12.74705
 Alpha  occ. eigenvalues --  -12.67845 -12.67746 -12.67643 -12.67410 -12.67324
 Alpha  occ. eigenvalues --  -12.67181  -6.76341  -4.92782  -4.92562  -4.92120
 Alpha  occ. eigenvalues --   -1.98833  -1.91865  -1.91508  -1.26674  -1.26516
 Alpha  occ. eigenvalues --   -1.25715  -1.20257  -1.19866  -1.19468  -1.19344
 Alpha  occ. eigenvalues --   -1.19051  -1.18405  -1.14651  -1.09125  -1.02396
 Alpha  occ. eigenvalues --   -0.94132  -0.80924  -0.68300  -0.57787  -0.53621
 Alpha  occ. eigenvalues --   -0.53421  -0.46401  -0.44442  -0.43885  -0.41908
 Alpha  occ. eigenvalues --   -0.40836  -0.39464  -0.39309  -0.38759  -0.37953
 Alpha  occ. eigenvalues --   -0.27056  -0.25327
 Alpha virt. eigenvalues --   -0.22489  -0.20592  -0.17890  -0.15413  -0.14411
 Alpha virt. eigenvalues --   -0.12357  -0.11557  -0.10322  -0.09505  -0.08545
 Alpha virt. eigenvalues --   -0.08084  -0.07382  -0.06901  -0.06413  -0.05914
 Alpha virt. eigenvalues --   -0.05766  -0.05269  -0.05065  -0.04333  -0.04246
 Alpha virt. eigenvalues --   -0.03884  -0.03874  -0.03481  -0.03077  -0.03012
 Alpha virt. eigenvalues --   -0.02846  -0.02487  -0.01952  -0.00937   0.00259
 Alpha virt. eigenvalues --    0.01140   0.01171   0.02422   0.02902   0.03346
 Alpha virt. eigenvalues --    0.03492   0.03755   0.04749   0.04906   0.05324
 Alpha virt. eigenvalues --    0.05823   0.06153   0.06681   0.06831   0.07256
 Alpha virt. eigenvalues --    0.08448   0.09811   0.09848   0.11232   0.11313
 Alpha virt. eigenvalues --    0.12588   0.14404   0.14585   0.15204   0.16290
 Alpha virt. eigenvalues --    0.16790   0.17692   0.18989   0.19788   0.19884
 Alpha virt. eigenvalues --    0.20211   0.22435   0.24110   0.25237   0.25637
 Alpha virt. eigenvalues --    0.26083   0.28305   0.29512   0.30170   0.31670
 Alpha virt. eigenvalues --    0.31771   0.32556   0.36114   0.37896   0.38818
 Alpha virt. eigenvalues --    0.40116   0.41535   0.44450   0.47013   0.51402
 Alpha virt. eigenvalues --    0.54504   0.55487   0.57311   0.61030   0.65894
 Alpha virt. eigenvalues --    0.73323   0.82306   0.90094   0.95434   1.01367
 Alpha virt. eigenvalues --    1.05523   1.08018   1.08244   1.08775   1.11432
 Alpha virt. eigenvalues --    1.11712   1.16089   1.16938   1.19452   1.20725
 Alpha virt. eigenvalues --    1.21740   1.24061   1.25563   1.31015   1.32889
 Alpha virt. eigenvalues --    1.38265   1.41089   1.47853   1.51819   1.56253
 Alpha virt. eigenvalues --    1.59671   1.61995   1.65164   1.65856   1.69825
 Alpha virt. eigenvalues --    1.73755   1.74755   1.76687   1.77914   1.80542
 Alpha virt. eigenvalues --    1.83665   1.84493   1.84575   1.85952   1.87836
 Alpha virt. eigenvalues --    1.88865   1.92685   1.97449   2.00580   2.10479
 Alpha virt. eigenvalues --    2.15146   2.30722   2.33481   2.52623   2.67829
 Alpha virt. eigenvalues --    3.13885   3.38860   3.83169   3.88794   3.91301
 Alpha virt. eigenvalues --    4.00969   4.19900
          Condensed to atoms (all electrons):
              1          2          3          4          5          6
     1  O    8.815822  -0.110221  -0.076158   0.000316  -0.000165  -0.009716
     2  P   -0.110221  14.546294  -0.072505   0.000123   0.000536  -0.006423
     3  O   -0.076158  -0.072505   8.774873   0.000004   0.000110   0.003323
     4  O    0.000316   0.000123   0.000004   8.530541  -0.064735   0.009704
     5  O   -0.000165   0.000536   0.000110  -0.064735   8.433346  -0.011716
     6  O   -0.009716  -0.006423   0.003323   0.009704  -0.011716   9.068192
     7  Ca   0.053287   0.008703  -0.001318  -0.032099   0.196371   0.060838
     8  Ca   0.008743  -0.012275   0.003198   0.177229   0.058157   0.090803
     9  Ca   0.002017  -0.033784   0.087083   0.004235   0.000705   0.177576
              7          8          9
     1  O    0.053287   0.008743   0.002017
     2  P    0.008703  -0.012275  -0.033784
     3  O   -0.001318   0.003198   0.087083
     4  O   -0.032099   0.177229   0.004235
     5  O    0.196371   0.058157   0.000705
     6  O    0.060838   0.090803   0.177576
     7  Ca  18.362320  -0.030400  -0.019290
     8  Ca  -0.030400  18.314566  -0.006223
     9  Ca  -0.019290  -0.006223  18.241981
 Mulliken atomic charges:
              1
     1  O   -0.683924
     2  P    0.679552
     3  O   -0.718610
     4  O   -0.625318
     5  O   -0.612609
     6  O   -1.382582
     7  Ca   1.401589
     8  Ca   1.396202
     9  Ca   1.545700
 Sum of Mulliken charges=   1.00000
 Atomic charges with hydrogens summed into heavy atoms:
              1
     1  O   -0.683924
     2  P    0.679552
     3  O   -0.718610
     4  O   -0.625318
     5  O   -0.612609
     6  O   -1.382582
     7  Ca   1.401589
     8  Ca   1.396202
     9  Ca   1.545700
 Sum of Mulliken charges=   1.00000
 Electronic spatial extent (au):  <R**2>=  3202.7856
 Charge=     1.0000 electrons
 Dipole moment (field-independent basis, Debye):
    X=   -10.9209    Y=     8.8755    Z=     0.0000  Tot=    14.0727
 Quadrupole moment (field-independent basis, Debye-Ang):
   XX=   -94.3306   YY=   -38.6795   ZZ=   -73.0976
   XY=    -6.9137   XZ=     0.0000   YZ=     0.0000
 Traceless Quadrupole moment (field-independent basis, Debye-Ang):
   XX=   -25.6281   YY=    30.0231   ZZ=    -4.3950
   XY=    -6.9137   XZ=     0.0000   YZ=     0.0000
 Octapole moment (field-independent basis, Debye-Ang**2):
  XXX=  -212.7722  YYY=   101.3398  ZZZ=     0.0000  XYY=    33.0840
  XXY=    63.9006  XXZ=     0.0000  XZZ=    -5.0741  YZZ=     7.6221
  YYZ=     0.0000  XYZ=     0.0000
 Hexadecapole moment (field-independent basis, Debye-Ang**3):
 XXXX= -3365.4062 YYYY=  -995.6619 ZZZZ=   -80.6719 XXXY=  -568.9239
 XXXZ=     0.0000 YYYX=  -287.3975 YYYZ=     0.0000 ZZZX=     0.0000
 ZZZY=     0.0000 XXYY=  -412.0045 XXZZ=  -425.2802 YYZZ=  -194.2401
 XXYZ=     0.0000 YYXZ=     0.0000 ZZXY=  -130.6189
 N-N= 9.258281213837D+02 E-N=-8.352520934396D+03  KE= 2.742186794252D+03
 Symmetry A'   KE= 2.475768107076D+03
 Symmetry A"   KE= 2.664186871758D+02
 Merz-Kollman atomic radii used.
 Read replacement radii for each type of atom:
 Rad(20) =   1.188000000000D+00
 Atom Element Radius
    1     8    1.40
    2    15    1.80
    3     8    1.40
    4     8    1.40
    5     8    1.40
    6     8    1.40
    7    20    1.19
    8    20    1.19
    9    20    1.19

 **********************************************************************

            Electrostatic Properties Using The SCF Density

 **********************************************************************

       Atomic Center    1 is at  -1.032325 -2.216111  0.000000
       Atomic Center    2 is at  -2.568535 -2.319223  0.000000
       Atomic Center    3 is at  -3.174327 -0.889944  0.000000
       Atomic Center    4 is at   3.974280  0.945726  0.000000
       Atomic Center    5 is at   2.827422 -0.030346  0.000000
       Atomic Center    6 is at   0.000000  1.122311  0.000000
       Atomic Center    7 is at   0.959913 -1.038918  0.000000
       Atomic Center    8 is at   2.087369  2.073613  0.000000
       Atomic Center    9 is at  -2.158900  1.132068  0.000000
     880 points will be used for fitting atomic charges
 Fitting point charges to eletrostatic potential
 Charges from ESP fit, RMS=   0.00590 RRMS=   0.03882:
 Charge=   1.00000 Dipole=   -10.9874     9.0490     0.0000 Tot=    14.2341
              1
     1  O   -0.634466
     2  P    0.555314
     3  O   -0.703087
     4  O   -0.664472
     5  O   -0.822099
     6  O   -1.669016
     7  Ca   1.609379
     8  Ca   1.615102
     9  Ca   1.713346
 -----------------------------------------------------------------

              Electrostatic Properties (Atomic Units)

 -----------------------------------------------------------------
    Center     Electric         -------- Electric Field --------
               Potential          X             Y             Z
 -----------------------------------------------------------------
    1 Atom    -22.181887
    2 Atom    -53.909526
    3 Atom    -22.174804
    4 Atom    -22.303778
    5 Atom    -22.276555
    6 Atom    -22.274889
    7 Atom    -80.062790
    8 Atom    -80.070305
    9 Atom    -79.993228
 -----------------------------------------------------------------
 1\1\GINC-N035\SP\RB3LYP\6-31+G(d,p)\Ca3O5P1(1+)\TIMN\12-Jun-2015\0\\# 
 b3lyp/6-31+G(d,p) int=ultrafine pop=(ReadRadii,MK)\\mol_17.24.0.pdbccc
 _plusQ.z58265.zip.xyz\\1,1\O,0,-1.03233,-2.21611,0.\P,0,-2.56854,-2.31
 922,0.\O,0,-3.17433,-0.88994,0.\O,0,3.97428,0.94572,0.\O,0,2.82742,-0.
 03035,0.\O,0,0.,1.12231,0.\Ca,0,0.95991,-1.03892,0.\Ca,0,2.08737,2.073
 61,0.\Ca,0,-2.1589,1.13207,0.\\Version=EM64T-G03RevE.01\State=1-A'\HF=
 -2750.1699279\RMSD=4.190e-05\Thermal=0.\Dipole=-4.2966156,3.4919126,0.
 \PG=CS [SG(Ca3O5P1)]\\@


 THEORY:  SUPPOSITION WHICH HAS SCIENTIFIC BASIS,
          BUT NOT EXPERIMENTALLY PROVEN.
 FACT:    A THEORY WHICH HAS BEEN PROVEN BY ENOUGH 
          MONEY TO PAY FOR THE EXPERIMENTS.

                          --  THE WIZARD OF ID
 Job cpu time:  0 days  0 hours  1 minutes 55.4 seconds.
 File lengths (MBytes):  RWF=     36 Int=      0 D2E=      0 Chk=     11 Scr=      1
 Normal termination of Gaussian 03 at Fri Jun 12 17:54:34 2015.
