 Entering Gaussian System, Link 0=/home/timn/tmp/g03.e01/g03
 Input=mol_17.22.55.pdbc_plusQ.z58205.zip.xyz.gjf
 Output=mol_17.22.55.pdbc_plusQ.z58205.zip.xyz.out
 Initial command:
 /home/timn/tmp/g03.e01/l1.exe /home/timn/tmp/g03.e01/Gau-16948.inp -scrdir=/home/timn/tmp/g03.e01/
 Default is to use a total of   2 processors:
                                2 via shared-memory
                                1 via Linda
 Entering Link 1 = /home/timn/tmp/g03.e01/l1.exe PID=     16949.
  
 Copyright (c) 1988,1990,1992,1993,1995,1998,2003,2004,2007, Gaussian, Inc.
                  All Rights Reserved.
  
 This is the Gaussian(R) 03 program.  It is based on the
 the Gaussian(R) 98 system (copyright 1998, Gaussian, Inc.),
 the Gaussian(R) 94 system (copyright 1995, Gaussian, Inc.),
 the Gaussian 92(TM) system (copyright 1992, Gaussian, Inc.),
 the Gaussian 90(TM) system (copyright 1990, Gaussian, Inc.),
 the Gaussian 88(TM) system (copyright 1988, Gaussian, Inc.),
 the Gaussian 86(TM) system (copyright 1986, Carnegie Mellon
 University), and the Gaussian 82(TM) system (copyright 1983,
 Carnegie Mellon University). Gaussian is a federally registered
 trademark of Gaussian, Inc.
  
 This software contains proprietary and confidential information,
 including trade secrets, belonging to Gaussian, Inc.
  
 This software is provided under written license and may be
 used, copied, transmitted, or stored only in accord with that
 written license.
  
 The following legend is applicable only to US Government
 contracts under FAR:
  
                    RESTRICTED RIGHTS LEGEND
  
 Use, reproduction and disclosure by the US Government is
 subject to restrictions as set forth in subparagraphs (a)
 and (c) of the Commercial Computer Software - Restricted
 Rights clause in FAR 52.227-19.
  
 Gaussian, Inc.
 340 Quinnipiac St., Bldg. 40, Wallingford CT 06492
  
  
 ---------------------------------------------------------------
 Warning -- This program may not be used in any manner that
 competes with the business of Gaussian, Inc. or will provide
 assistance to any competitor of Gaussian, Inc.  The licensee
 of this program is prohibited from giving any competitor of
 Gaussian, Inc. access to this program.  By using this program,
 the user acknowledges that Gaussian, Inc. is engaged in the
 business of creating and licensing software in the field of
 computational chemistry and represents and warrants to the
 licensee that it is not a competitor of Gaussian, Inc. and that
 it will not use this program in any manner prohibited above.
 ---------------------------------------------------------------
  

 Cite this work as:
 Gaussian 03, Revision E.01,
 M. J. Frisch, G. W. Trucks, H. B. Schlegel, G. E. Scuseria, 
 M. A. Robb, J. R. Cheeseman, J. A. Montgomery, Jr., T. Vreven, 
 K. N. Kudin, J. C. Burant, J. M. Millam, S. S. Iyengar, J. Tomasi, 
 V. Barone, B. Mennucci, M. Cossi, G. Scalmani, N. Rega, 
 G. A. Petersson, H. Nakatsuji, M. Hada, M. Ehara, K. Toyota, 
 R. Fukuda, J. Hasegawa, M. Ishida, T. Nakajima, Y. Honda, O. Kitao, 
 H. Nakai, M. Klene, X. Li, J. E. Knox, H. P. Hratchian, J. B. Cross, 
 V. Bakken, C. Adamo, J. Jaramillo, R. Gomperts, R. E. Stratmann, 
 O. Yazyev, A. J. Austin, R. Cammi, C. Pomelli, J. W. Ochterski, 
 P. Y. Ayala, K. Morokuma, G. A. Voth, P. Salvador, J. J. Dannenberg, 
 V. G. Zakrzewski, S. Dapprich, A. D. Daniels, M. C. Strain, 
 O. Farkas, D. K. Malick, A. D. Rabuck, K. Raghavachari, 
 J. B. Foresman, J. V. Ortiz, Q. Cui, A. G. Baboul, S. Clifford, 
 J. Cioslowski, B. B. Stefanov, G. Liu, A. Liashenko, P. Piskorz, 
 I. Komaromi, R. L. Martin, D. J. Fox, T. Keith, M. A. Al-Laham, 
 C. Y. Peng, A. Nanayakkara, M. Challacombe, P. M. W. Gill, 
 B. Johnson, W. Chen, M. W. Wong, C. Gonzalez, and J. A. Pople, 
 Gaussian, Inc., Wallingford CT, 2004.
 
 ******************************************
 Gaussian 03:  EM64T-G03RevE.01 11-Sep-2007
                12-Jun-2015 
 ******************************************
 %nproc=2
 Will use up to    2 processors via shared memory.
 Default route:  MP2=Direct MaxDisk=2000MB
 ----------------------------------------------------
 # b3lyp/6-31+G(d,p) int=ultrafine pop=(ReadRadii,MK)
 ----------------------------------------------------

 Warning!  SCF SP cutoffs with diffuse functions may be unreliable.
 Consider SCF=Tight

 1/38=1/1;
 2/17=6,18=5,40=1/2;
 3/5=1,6=6,7=111,11=2,16=1,25=1,30=1,74=-5,75=5/1,2,3;
 4//1;
 5/5=2,32=1,38=5/2;
 6/7=2,8=2,9=2,10=2,15=8,20=101,28=1/1,2;
 99/5=1,9=1/99;
 --------------------------------------
 mol_17.22.55.pdbc_plusQ.z58205.zip.xyz
 --------------------------------------
 Symbolic Z-matrix:
 Charge =  1 Multiplicity = 1
 Ca                    0.72772   1.51869   0.00879 
 O                     2.87665   1.41467  -0.00354 
 Ca                    3.07515  -0.69565  -0.00943 
 P                    -3.17      0.86732  -0.00977 
 O                    -3.4108   -0.65311  -0.01107 
 O                    -1.61289   1.04065   0.0056 
 O                     0.82412  -0.87886   0.78004 
 O                     0.81674  -0.87674  -0.77535 
 Ca                   -1.22289  -1.49217   0.00969 
 
                          Input orientation:                          
 ---------------------------------------------------------------------
 Center     Atomic     Atomic              Coordinates (Angstroms)
 Number     Number      Type              X           Y           Z
 ---------------------------------------------------------------------
    1         20             0        0.727720    1.518690    0.008790
    2          8             0        2.876650    1.414670   -0.003540
    3         20             0        3.075150   -0.695650   -0.009430
    4         15             0       -3.170000    0.867320   -0.009770
    5          8             0       -3.410800   -0.653110   -0.011070
    6          8             0       -1.612890    1.040650    0.005600
    7          8             0        0.824120   -0.878860    0.780040
    8          8             0        0.816740   -0.876740   -0.775350
    9         20             0       -1.222890   -1.492170    0.009690
 ---------------------------------------------------------------------
                    Distance matrix (angstroms):
                    1          2          3          4          5
     1  Ca   0.000000
     2  O    2.151481   0.000000
     3  Ca   3.227082   2.119643   0.000000
     4  P    3.951816   6.071376   6.437762   0.000000
     5  O    4.673805   6.618746   6.486090   1.539381   0.000000
     6  O    2.388930   4.505102   4.999268   1.566803   2.470138
     7  O    2.520390   3.176028   2.392481   4.430117   4.314089
     8  O    2.522079   3.176394   2.391619   4.418366   4.301887
     9  Ca   3.587500   5.025547   4.371265   3.059217   2.343374
                    6          7          8          9
     6  O    0.000000
     7  O    3.197389   0.000000
     8  O    3.192079   1.555409   0.000000
     9  Ca   2.562673   2.271528   2.270492   0.000000
 Stoichiometry    Ca3O5P(1+)
 Framework group  C1[X(Ca3O5P)]
 Deg. of freedom    21
 Full point group                 C1
 Largest Abelian subgroup         C1      NOp   1
 Largest concise Abelian subgroup C1      NOp   1
                         Standard orientation:                         
 ---------------------------------------------------------------------
 Center     Atomic     Atomic              Coordinates (Angstroms)
 Number     Number      Type              X           Y           Z
 ---------------------------------------------------------------------
    1         20             0        0.727718    1.518690    0.008791
    2          8             0        2.876648    1.414671   -0.003539
    3         20             0        3.075149   -0.695649   -0.009429
    4         15             0       -3.170002    0.867318   -0.009769
    5          8             0       -3.410801   -0.653112   -0.011069
    6          8             0       -1.612892    1.040649    0.005601
    7          8             0        0.824119   -0.878860    0.780041
    8          8             0        0.816739   -0.876740   -0.775349
    9         20             0       -1.222891   -1.492171    0.009691
 ---------------------------------------------------------------------
 Rotational constants (GHZ):      1.5600763      0.4315809      0.3470505
 Standard basis: 6-31+G(d,p) (6D, 7F)
 There are   199 symmetry adapted basis functions of A   symmetry.
 Integral buffers will be    131072 words long.
 Raffenetti 2 integral format.
 Two-electron integral symmetry is turned on.
   199 basis functions,   456 primitive gaussians,   199 cartesian basis functions
    57 alpha electrons       57 beta electrons
       nuclear repulsion energy       978.4416269594 Hartrees.
 NAtoms=    9 NActive=    9 NUniq=    9 SFac= 7.50D-01 NAtFMM=   80 NAOKFM=F Big=F
 One-electron integrals computed using PRISM.
 NBasis=   199 RedAO= T  NBF=   199
 NBsUse=   199 1.00D-06 NBFU=   199
 Harris functional with IExCor=  402 diagonalized for initial guess.
 ExpMin= 7.10D-03 ExpMax= 3.53D+04 ExpMxC= 5.30D+03 IAcc=3 IRadAn=         5 AccDes= 0.00D+00
 HarFok:  IExCor= 402 AccDes= 0.00D+00 IRadAn=         5 IDoV=1
 ScaDFX=  1.000000  1.000000  1.000000  1.000000
 Initial guess orbital symmetries:
       Occupied  (A) (A) (A) (A) (A) (A) (A) (A) (A) (A) (A) (A)
                 (A) (A) (A) (A) (A) (A) (A) (A) (A) (A) (A) (A)
                 (A) (A) (A) (A) (A) (A) (A) (A) (A) (A) (A) (A)
                 (A) (A) (A) (A) (A) (A) (A) (A) (A) (A) (A) (A)
                 (A) (A) (A) (A) (A) (A) (A) (A) (A)
       Virtual   (A) (A) (A) (A) (A) (A) (A) (A) (A) (A) (A) (A)
                 (A) (A) (A) (A) (A) (A) (A) (A) (A) (A) (A) (A)
                 (A) (A) (A) (A) (A) (A) (A) (A) (A) (A) (A) (A)
                 (A) (A) (A) (A) (A) (A) (A) (A) (A) (A) (A) (A)
                 (A) (A) (A) (A) (A) (A) (A) (A) (A) (A) (A) (A)
                 (A) (A) (A) (A) (A) (A) (A) (A) (A) (A) (A) (A)
                 (A) (A) (A) (A) (A) (A) (A) (A) (A) (A) (A) (A)
                 (A) (A) (A) (A) (A) (A) (A) (A) (A) (A) (A) (A)
                 (A) (A) (A) (A) (A) (A) (A) (A) (A) (A) (A) (A)
                 (A) (A) (A) (A) (A) (A) (A) (A) (A) (A) (A) (A)
                 (A) (A) (A) (A) (A) (A) (A) (A) (A) (A) (A) (A)
                 (A) (A) (A) (A) (A) (A) (A) (A) (A) (A)
 The electronic state of the initial guess is 1-A.
 Requested convergence on RMS density matrix=1.00D-04 within 128 cycles.
 Requested convergence on MAX density matrix=1.00D-02.
 Requested convergence on             energy=1.00D-02.
 No special actions if energy rises.
 EnCoef did     3 forward-backward iterations
 SCF Done:  E(RB+HF-LYP) =  -2750.19922442     A.U. after    8 cycles
             Convg  =    0.8789D-04             -V/T =  2.0029
             S**2   =   0.0000

 **********************************************************************

            Population analysis using the SCF density.

 **********************************************************************

 Orbital symmetries:
       Occupied  (A) (A) (A) (A) (A) (A) (A) (A) (A) (A) (A) (A)
                 (A) (A) (A) (A) (A) (A) (A) (A) (A) (A) (A) (A)
                 (A) (A) (A) (A) (A) (A) (A) (A) (A) (A) (A) (A)
                 (A) (A) (A) (A) (A) (A) (A) (A) (A) (A) (A) (A)
                 (A) (A) (A) (A) (A) (A) (A) (A) (A)
       Virtual   (A) (A) (A) (A) (A) (A) (A) (A) (A) (A) (A) (A)
                 (A) (A) (A) (A) (A) (A) (A) (A) (A) (A) (A) (A)
                 (A) (A) (A) (A) (A) (A) (A) (A) (A) (A) (A) (A)
                 (A) (A) (A) (A) (A) (A) (A) (A) (A) (A) (A) (A)
                 (A) (A) (A) (A) (A) (A) (A) (A) (A) (A) (A) (A)
                 (A) (A) (A) (A) (A) (A) (A) (A) (A) (A) (A) (A)
                 (A) (A) (A) (A) (A) (A) (A) (A) (A) (A) (A) (A)
                 (A) (A) (A) (A) (A) (A) (A) (A) (A) (A) (A) (A)
                 (A) (A) (A) (A) (A) (A) (A) (A) (A) (A) (A) (A)
                 (A) (A) (A) (A) (A) (A) (A) (A) (A) (A) (A) (A)
                 (A) (A) (A) (A) (A) (A) (A) (A) (A) (A) (A) (A)
                 (A) (A) (A) (A) (A) (A) (A) (A) (A) (A)
 The electronic state is 1-A.
 Alpha  occ. eigenvalues -- -145.53298-145.48109-145.46493 -77.31642 -19.29953
 Alpha  occ. eigenvalues --  -19.29130 -19.27663 -19.27651 -19.10313 -15.60144
 Alpha  occ. eigenvalues --  -15.54946 -15.53352 -12.73380 -12.73375 -12.73210
 Alpha  occ. eigenvalues --  -12.68164 -12.68128 -12.68049 -12.66606 -12.66570
 Alpha  occ. eigenvalues --  -12.66401  -6.77266  -4.93698  -4.93466  -4.93048
 Alpha  occ. eigenvalues --   -1.97330  -1.92143  -1.90662  -1.25313  -1.25144
 Alpha  occ. eigenvalues --   -1.25003  -1.20364  -1.19797  -1.19245  -1.18522
 Alpha  occ. eigenvalues --   -1.18449  -1.17863  -1.15546  -1.10922  -1.09759
 Alpha  occ. eigenvalues --   -0.91294  -0.84520  -0.68924  -0.57891  -0.55267
 Alpha  occ. eigenvalues --   -0.54477  -0.51232  -0.50456  -0.49474  -0.46895
 Alpha  occ. eigenvalues --   -0.45450  -0.42691  -0.38849  -0.36724  -0.30146
 Alpha  occ. eigenvalues --   -0.28562  -0.28508
 Alpha virt. eigenvalues --   -0.21592  -0.19570  -0.17917  -0.15030  -0.15005
 Alpha virt. eigenvalues --   -0.11259  -0.10531  -0.09854  -0.09292  -0.08790
 Alpha virt. eigenvalues --   -0.08671  -0.08135  -0.07317  -0.06846  -0.06406
 Alpha virt. eigenvalues --   -0.05270  -0.05160  -0.04772  -0.04394  -0.04324
 Alpha virt. eigenvalues --   -0.04068  -0.03928  -0.03831  -0.03753  -0.03164
 Alpha virt. eigenvalues --   -0.02887  -0.02818  -0.02754  -0.02035  -0.00680
 Alpha virt. eigenvalues --    0.01190   0.02376   0.03019   0.03134   0.03554
 Alpha virt. eigenvalues --    0.04611   0.04767   0.05251   0.05727   0.05970
 Alpha virt. eigenvalues --    0.06042   0.07068   0.07149   0.08140   0.08654
 Alpha virt. eigenvalues --    0.09110   0.09290   0.10065   0.10523   0.11195
 Alpha virt. eigenvalues --    0.12818   0.12900   0.14774   0.15008   0.16231
 Alpha virt. eigenvalues --    0.16463   0.16544   0.17574   0.18109   0.20913
 Alpha virt. eigenvalues --    0.21390   0.22325   0.22849   0.23435   0.24459
 Alpha virt. eigenvalues --    0.26194   0.28125   0.28798   0.29845   0.31219
 Alpha virt. eigenvalues --    0.31318   0.33452   0.35768   0.37585   0.39304
 Alpha virt. eigenvalues --    0.42517   0.43237   0.45403   0.47276   0.47398
 Alpha virt. eigenvalues --    0.51482   0.53832   0.56505   0.60370   0.61259
 Alpha virt. eigenvalues --    0.63774   0.84703   0.89738   0.94114   0.99207
 Alpha virt. eigenvalues --    1.04403   1.06947   1.08638   1.10110   1.11257
 Alpha virt. eigenvalues --    1.11321   1.14310   1.15314   1.17577   1.19318
 Alpha virt. eigenvalues --    1.19831   1.21059   1.24061   1.29915   1.34438
 Alpha virt. eigenvalues --    1.35821   1.41105   1.46736   1.47084   1.53189
 Alpha virt. eigenvalues --    1.54204   1.60370   1.65385   1.66168   1.66520
 Alpha virt. eigenvalues --    1.69497   1.73063   1.74293   1.76462   1.79029
 Alpha virt. eigenvalues --    1.82239   1.83822   1.84199   1.86182   1.87439
 Alpha virt. eigenvalues --    1.89442   1.92628   1.95938   2.01031   2.04372
 Alpha virt. eigenvalues --    2.16481   2.17764   2.17909   2.50745   2.67335
 Alpha virt. eigenvalues --    3.00534   3.38867   3.87259   3.89029   4.00851
 Alpha virt. eigenvalues --    4.08757   4.08988
          Condensed to atoms (all electrons):
              1          2          3          4          5          6
     1  Ca  18.364808   0.224340  -0.027424  -0.006770   0.003448   0.034072
     2  O    0.224340   8.679290   0.224178  -0.001402   0.000000  -0.005219
     3  Ca  -0.027424   0.224178  18.361543  -0.012380   0.001057   0.005476
     4  P   -0.006770  -0.001402  -0.012380  14.416780   0.111029  -0.160411
     5  O    0.003448   0.000000   0.001057   0.111029   8.529799  -0.074562
     6  O    0.034072  -0.005219   0.005476  -0.160411  -0.074562   8.921565
     7  O    0.027703   0.000625   0.050772  -0.004069  -0.001318  -0.000236
     8  O    0.027626   0.000634   0.050851  -0.004293  -0.001200  -0.000706
     9  Ca  -0.004207   0.001305  -0.016899  -0.018426   0.079295   0.022359
              7          8          9
     1  Ca   0.027703   0.027626  -0.004207
     2  O    0.000625   0.000634   0.001305
     3  Ca   0.050772   0.050851  -0.016899
     4  P   -0.004069  -0.004293  -0.018426
     5  O   -0.001318  -0.001200   0.079295
     6  O   -0.000236  -0.000706   0.022359
     7  O    8.577135  -0.050441   0.094664
     8  O   -0.050441   8.577098   0.094412
     9  Ca   0.094664   0.094412  18.244218
 Mulliken atomic charges:
              1
     1  Ca   1.356403
     2  O   -1.123750
     3  Ca   1.362827
     4  P    0.679942
     5  O   -0.647549
     6  O   -0.742337
     7  O   -0.694834
     8  O   -0.693980
     9  Ca   1.503278
 Sum of Mulliken charges=   1.00000
 Atomic charges with hydrogens summed into heavy atoms:
              1
     1  Ca   1.356403
     2  O   -1.123750
     3  Ca   1.362827
     4  P    0.679942
     5  O   -0.647549
     6  O   -0.742337
     7  O   -0.694834
     8  O   -0.693980
     9  Ca   1.503278
 Sum of Mulliken charges=   1.00000
 Electronic spatial extent (au):  <R**2>=  2764.3961
 Charge=     1.0000 electrons
 Dipole moment (field-independent basis, Debye):
    X=    -0.3544    Y=    -7.6523    Z=     0.0609  Tot=     7.6607
 Quadrupole moment (field-independent basis, Debye-Ang):
   XX=   -63.5010   YY=   -57.0020   ZZ=   -77.2545
   XY=   -23.1754   XZ=    -0.2480   YZ=     0.0318
 Traceless Quadrupole moment (field-independent basis, Debye-Ang):
   XX=     2.4182   YY=     8.9172   ZZ=   -11.3353
   XY=   -23.1754   XZ=    -0.2480   YZ=     0.0318
 Octapole moment (field-independent basis, Debye-Ang**2):
  XXX=   107.3724  YYY=   -38.0176  ZZZ=     0.1438  XYY=   -27.6060
  XXY=  -109.6427  XXZ=    -0.1907  XZZ=    -2.9028  YZZ=    -3.5107
  YYZ=     0.4098  XYZ=     0.6466
 Hexadecapole moment (field-independent basis, Debye-Ang**3):
 XXXX= -2337.6174 YYYY=  -569.1785 ZZZZ=  -129.5980 XXXY=  -484.0717
 XXXZ=    -3.2031 YYYX=    -2.7820 YYYZ=     0.1997 ZZZX=    -0.5569
 ZZZY=     0.1485 XXYY=  -575.6221 XXZZ=  -421.9952 YYZZ=  -129.9723
 XXYZ=     0.3446 YYXZ=    -0.3804 ZZXY=    -6.1505
 N-N= 9.784416269594D+02 E-N=-8.456883510702D+03  KE= 2.742195567203D+03
 Merz-Kollman atomic radii used.
 Read replacement radii for each type of atom:
 Rad(20) =   1.188000000000D+00
 Atom Element Radius
    1    20    1.19
    2     8    1.40
    3    20    1.19
    4    15    1.80
    5     8    1.40
    6     8    1.40
    7     8    1.40
    8     8    1.40
    9    20    1.19

 **********************************************************************

            Electrostatic Properties Using The SCF Density

 **********************************************************************

       Atomic Center    1 is at   0.727718  1.518690  0.008791
       Atomic Center    2 is at   2.876648  1.414671 -0.003539
       Atomic Center    3 is at   3.075149 -0.695649 -0.009429
       Atomic Center    4 is at  -3.170002  0.867318 -0.009769
       Atomic Center    5 is at  -3.410801 -0.653112 -0.011069
       Atomic Center    6 is at  -1.612892  1.040649  0.005601
       Atomic Center    7 is at   0.824119 -0.878860  0.780041
       Atomic Center    8 is at   0.816739 -0.876740 -0.775349
       Atomic Center    9 is at  -1.222891 -1.492171  0.009691
     872 points will be used for fitting atomic charges
 Fitting point charges to eletrostatic potential
 Charges from ESP fit, RMS=   0.00489 RRMS=   0.03300:
 Charge=   1.00000 Dipole=    -0.1041    -7.7219     0.0614 Tot=     7.7229
              1
     1  Ca   1.662137
     2  O   -1.475636
     3  Ca   1.627043
     4  P    0.596418
     5  O   -0.648466
     6  O   -0.760284
     7  O   -0.866879
     8  O   -0.864926
     9  Ca   1.730593
 -----------------------------------------------------------------

              Electrostatic Properties (Atomic Units)

 -----------------------------------------------------------------
    Center     Electric         -------- Electric Field --------
               Potential          X             Y             Z
 -----------------------------------------------------------------
    1 Atom    -80.075643
    2 Atom    -22.360322
    3 Atom    -80.060407
    4 Atom    -53.900398
    5 Atom    -22.175354
    6 Atom    -22.165657
    7 Atom    -22.188259
    8 Atom    -22.188380
    9 Atom    -80.007473
 -----------------------------------------------------------------
 1\1\GINC-N028\SP\RB3LYP\6-31+G(d,p)\Ca3O5P1(1+)\TIMN\12-Jun-2015\0\\# 
 b3lyp/6-31+G(d,p) int=ultrafine pop=(ReadRadii,MK)\\mol_17.22.55.pdbc_
 plusQ.z58205.zip.xyz\\1,1\Ca,0,0.72772,1.51869,0.00879\O,0,2.87665,1.4
 1467,-0.00354\Ca,0,3.07515,-0.69565,-0.00943\P,0,-3.17,0.86732,-0.0097
 7\O,0,-3.4108,-0.65311,-0.01107\O,0,-1.61289,1.04065,0.0056\O,0,0.8241
 2,-0.87886,0.78004\O,0,0.81674,-0.87674,-0.77535\Ca,0,-1.22289,-1.4921
 7,0.00969\\Version=EM64T-G03RevE.01\State=1-A\HF=-2750.1992244\RMSD=8.
 789e-05\Thermal=0.\Dipole=-0.1394325,-3.0106282,0.0239791\PG=C01 [X(Ca
 3O5P1)]\\@


 CLIMB THE MOUNTAINS AND GET THEIR GOOD TIDINGS.
 NATURE'S PEACE WILL FLOW INTO YOU AS SUNSHINE FLOWS INTO TREES.
 THE WINDS WILL BLOW THEIR OWN FRESHNESS INTO YOU, 
 AND CARES WILL DROP OFF LIKE AUTUMN LEAVES.

                                         -- JOHN MUIR
 Job cpu time:  0 days  0 hours  1 minutes 57.2 seconds.
 File lengths (MBytes):  RWF=     36 Int=      0 D2E=      0 Chk=     11 Scr=      1
 Normal termination of Gaussian 03 at Fri Jun 12 17:51:05 2015.
