 Entering Gaussian System, Link 0=/home/timn/tmp/g03.e01/g03
 Input=mol_16.4.38.pdbcc_plusQ.out.z51588.zip.xyz.gjf
 Output=mol_16.4.38.pdbcc_plusQ.out.z51588.zip.xyz.out
 Initial command:
 /home/timn/tmp/g03.e01/l1.exe /home/timn/tmp/g03.e01/Gau-12245.inp -scrdir=/home/timn/tmp/g03.e01/
 Default is to use a total of   2 processors:
                                2 via shared-memory
                                1 via Linda
 Entering Link 1 = /home/timn/tmp/g03.e01/l1.exe PID=     12247.
  
 Copyright (c) 1988,1990,1992,1993,1995,1998,2003,2004,2007, Gaussian, Inc.
                  All Rights Reserved.
  
 This is the Gaussian(R) 03 program.  It is based on the
 the Gaussian(R) 98 system (copyright 1998, Gaussian, Inc.),
 the Gaussian(R) 94 system (copyright 1995, Gaussian, Inc.),
 the Gaussian 92(TM) system (copyright 1992, Gaussian, Inc.),
 the Gaussian 90(TM) system (copyright 1990, Gaussian, Inc.),
 the Gaussian 88(TM) system (copyright 1988, Gaussian, Inc.),
 the Gaussian 86(TM) system (copyright 1986, Carnegie Mellon
 University), and the Gaussian 82(TM) system (copyright 1983,
 Carnegie Mellon University). Gaussian is a federally registered
 trademark of Gaussian, Inc.
  
 This software contains proprietary and confidential information,
 including trade secrets, belonging to Gaussian, Inc.
  
 This software is provided under written license and may be
 used, copied, transmitted, or stored only in accord with that
 written license.
  
 The following legend is applicable only to US Government
 contracts under FAR:
  
                    RESTRICTED RIGHTS LEGEND
  
 Use, reproduction and disclosure by the US Government is
 subject to restrictions as set forth in subparagraphs (a)
 and (c) of the Commercial Computer Software - Restricted
 Rights clause in FAR 52.227-19.
  
 Gaussian, Inc.
 340 Quinnipiac St., Bldg. 40, Wallingford CT 06492
  
  
 ---------------------------------------------------------------
 Warning -- This program may not be used in any manner that
 competes with the business of Gaussian, Inc. or will provide
 assistance to any competitor of Gaussian, Inc.  The licensee
 of this program is prohibited from giving any competitor of
 Gaussian, Inc. access to this program.  By using this program,
 the user acknowledges that Gaussian, Inc. is engaged in the
 business of creating and licensing software in the field of
 computational chemistry and represents and warrants to the
 licensee that it is not a competitor of Gaussian, Inc. and that
 it will not use this program in any manner prohibited above.
 ---------------------------------------------------------------
  

 Cite this work as:
 Gaussian 03, Revision E.01,
 M. J. Frisch, G. W. Trucks, H. B. Schlegel, G. E. Scuseria, 
 M. A. Robb, J. R. Cheeseman, J. A. Montgomery, Jr., T. Vreven, 
 K. N. Kudin, J. C. Burant, J. M. Millam, S. S. Iyengar, J. Tomasi, 
 V. Barone, B. Mennucci, M. Cossi, G. Scalmani, N. Rega, 
 G. A. Petersson, H. Nakatsuji, M. Hada, M. Ehara, K. Toyota, 
 R. Fukuda, J. Hasegawa, M. Ishida, T. Nakajima, Y. Honda, O. Kitao, 
 H. Nakai, M. Klene, X. Li, J. E. Knox, H. P. Hratchian, J. B. Cross, 
 V. Bakken, C. Adamo, J. Jaramillo, R. Gomperts, R. E. Stratmann, 
 O. Yazyev, A. J. Austin, R. Cammi, C. Pomelli, J. W. Ochterski, 
 P. Y. Ayala, K. Morokuma, G. A. Voth, P. Salvador, J. J. Dannenberg, 
 V. G. Zakrzewski, S. Dapprich, A. D. Daniels, M. C. Strain, 
 O. Farkas, D. K. Malick, A. D. Rabuck, K. Raghavachari, 
 J. B. Foresman, J. V. Ortiz, Q. Cui, A. G. Baboul, S. Clifford, 
 J. Cioslowski, B. B. Stefanov, G. Liu, A. Liashenko, P. Piskorz, 
 I. Komaromi, R. L. Martin, D. J. Fox, T. Keith, M. A. Al-Laham, 
 C. Y. Peng, A. Nanayakkara, M. Challacombe, P. M. W. Gill, 
 B. Johnson, W. Chen, M. W. Wong, C. Gonzalez, and J. A. Pople, 
 Gaussian, Inc., Wallingford CT, 2004.
 
 ******************************************
 Gaussian 03:  EM64T-G03RevE.01 11-Sep-2007
                12-Jun-2015 
 ******************************************
 %nproc=2
 Will use up to    2 processors via shared memory.
 Default route:  MP2=Direct MaxDisk=2000MB
 ----------------------------------------------------
 # b3lyp/6-31+G(d,p) int=ultrafine pop=(ReadRadii,MK)
 ----------------------------------------------------

 Warning!  SCF SP cutoffs with diffuse functions may be unreliable.
 Consider SCF=Tight

 1/38=1/1;
 2/17=6,18=5,40=1/2;
 3/5=1,6=6,7=111,11=2,16=1,25=1,30=1,74=-5,75=5/1,2,3;
 4//1;
 5/5=2,32=1,38=5/2;
 6/7=2,8=2,9=2,10=2,15=8,20=101,28=1/1,2;
 99/5=1,9=1/99;
 ------------------------------------------
 mol_16.4.38.pdbcc_plusQ.out.z51588.zip.xyz
 ------------------------------------------
 Symbolic Z-matrix:
 Charge =  1 Multiplicity = 1
 O                     1.7133    0.00243  -0.78613 
 O                     1.71316   0.00247   0.78628 
 O                    -1.44015  -1.27527   0.00018 
 P                    -2.31978  -0.0033   -0.00017 
 O                    -1.44437   1.2716    0.00029 
 Ca                    0.76437  -1.85728  -0.00004 
 Ca                    0.75868   1.85926  -0.00008 
 
                          Input orientation:                          
 ---------------------------------------------------------------------
 Center     Atomic     Atomic              Coordinates (Angstroms)
 Number     Number      Type              X           Y           Z
 ---------------------------------------------------------------------
    1          8             0        1.713300    0.002430   -0.786130
    2          8             0        1.713160    0.002470    0.786280
    3          8             0       -1.440150   -1.275270    0.000180
    4         15             0       -2.319780   -0.003300   -0.000170
    5          8             0       -1.444370    1.271600    0.000290
    6         20             0        0.764370   -1.857280   -0.000040
    7         20             0        0.758680    1.859260   -0.000080
 ---------------------------------------------------------------------
                    Distance matrix (angstroms):
                    1          2          3          4          5
     1  O    0.000000
     2  O    1.572410   0.000000
     3  O    3.492141   3.491982   0.000000
     4  P    4.108954   4.108910   1.546498   0.000000
     5  O    3.492868   3.492630   2.546873   1.546516   0.000000
     6  Ca   2.230903   2.230958   2.280054   3.598503   3.829938
     7  Ca   2.230917   2.230933   3.828855   3.598061   2.280082
                    6          7
     6  Ca   0.000000
     7  Ca   3.716544   0.000000
 Stoichiometry    Ca2O4P(1+)
 Framework group  C1[X(Ca2O4P)]
 Deg. of freedom    15
 Full point group                 C1
 Largest Abelian subgroup         C1      NOp   1
 Largest concise Abelian subgroup C1      NOp   1
                         Standard orientation:                         
 ---------------------------------------------------------------------
 Center     Atomic     Atomic              Coordinates (Angstroms)
 Number     Number      Type              X           Y           Z
 ---------------------------------------------------------------------
    1          8             0        1.713302    0.002428   -0.786130
    2          8             0        1.713162    0.002468    0.786280
    3          8             0       -1.440150   -1.275267    0.000180
    4         15             0       -2.319778   -0.003296   -0.000170
    5          8             0       -1.444366    1.271603    0.000290
    6         20             0        0.764370   -1.857280   -0.000040
    7         20             0        0.758685    1.859260   -0.000080
 ---------------------------------------------------------------------
 Rotational constants (GHZ):      1.4537210      1.2852551      0.7206203
 Standard basis: 6-31+G(d,p) (6D, 7F)
 There are   153 symmetry adapted basis functions of A   symmetry.
 Integral buffers will be    131072 words long.
 Raffenetti 2 integral format.
 Two-electron integral symmetry is turned on.
   153 basis functions,   344 primitive gaussians,   153 cartesian basis functions
    43 alpha electrons       43 beta electrons
       nuclear repulsion energy       602.1456786626 Hartrees.
 NAtoms=    7 NActive=    7 NUniq=    7 SFac= 7.50D-01 NAtFMM=   80 NAOKFM=F Big=F
 One-electron integrals computed using PRISM.
 NBasis=   153 RedAO= T  NBF=   153
 NBsUse=   153 1.00D-06 NBFU=   153
 Harris functional with IExCor=  402 diagonalized for initial guess.
 ExpMin= 7.10D-03 ExpMax= 3.53D+04 ExpMxC= 5.30D+03 IAcc=3 IRadAn=         5 AccDes= 0.00D+00
 HarFok:  IExCor= 402 AccDes= 0.00D+00 IRadAn=         5 IDoV=1
 ScaDFX=  1.000000  1.000000  1.000000  1.000000
 Initial guess orbital symmetries:
       Occupied  (A) (A) (A) (A) (A) (A) (A) (A) (A) (A) (A) (A)
                 (A) (A) (A) (A) (A) (A) (A) (A) (A) (A) (A) (A)
                 (A) (A) (A) (A) (A) (A) (A) (A) (A) (A) (A) (A)
                 (A) (A) (A) (A) (A) (A) (A)
       Virtual   (A) (A) (A) (A) (A) (A) (A) (A) (A) (A) (A) (A)
                 (A) (A) (A) (A) (A) (A) (A) (A) (A) (A) (A) (A)
                 (A) (A) (A) (A) (A) (A) (A) (A) (A) (A) (A) (A)
                 (A) (A) (A) (A) (A) (A) (A) (A) (A) (A) (A) (A)
                 (A) (A) (A) (A) (A) (A) (A) (A) (A) (A) (A) (A)
                 (A) (A) (A) (A) (A) (A) (A) (A) (A) (A) (A) (A)
                 (A) (A) (A) (A) (A) (A) (A) (A) (A) (A) (A) (A)
                 (A) (A) (A) (A) (A) (A) (A) (A) (A) (A) (A) (A)
                 (A) (A) (A) (A) (A) (A) (A) (A) (A) (A) (A) (A)
                 (A) (A)
 The electronic state of the initial guess is 1-A.
 Requested convergence on RMS density matrix=1.00D-04 within 128 cycles.
 Requested convergence on MAX density matrix=1.00D-02.
 Requested convergence on             energy=1.00D-02.
 No special actions if energy rises.
 SCF Done:  E(RB+HF-LYP) =  -1997.33372465     A.U. after    6 cycles
             Convg  =    0.4406D-04             -V/T =  2.0031
             S**2   =   0.0000

 **********************************************************************

            Population analysis using the SCF density.

 **********************************************************************

 Orbital symmetries:
       Occupied  (A) (A) (A) (A) (A) (A) (A) (A) (A) (A) (A) (A)
                 (A) (A) (A) (A) (A) (A) (A) (A) (A) (A) (A) (A)
                 (A) (A) (A) (A) (A) (A) (A) (A) (A) (A) (A) (A)
                 (A) (A) (A) (A) (A) (A) (A)
       Virtual   (A) (A) (A) (A) (A) (A) (A) (A) (A) (A) (A) (A)
                 (A) (A) (A) (A) (A) (A) (A) (A) (A) (A) (A) (A)
                 (A) (A) (A) (A) (A) (A) (A) (A) (A) (A) (A) (A)
                 (A) (A) (A) (A) (A) (A) (A) (A) (A) (A) (A) (A)
                 (A) (A) (A) (A) (A) (A) (A) (A) (A) (A) (A) (A)
                 (A) (A) (A) (A) (A) (A) (A) (A) (A) (A) (A) (A)
                 (A) (A) (A) (A) (A) (A) (A) (A) (A) (A) (A) (A)
                 (A) (A) (A) (A) (A) (A) (A) (A) (A) (A) (A) (A)
                 (A) (A) (A) (A) (A) (A) (A) (A) (A) (A) (A) (A)
                 (A) (A)
 The electronic state is 1-A.
 Alpha  occ. eigenvalues -- -145.53246-145.53245 -77.30160 -19.27957 -19.27946
 Alpha  occ. eigenvalues --  -19.25593 -19.25579 -15.60093 -15.60092 -12.73308
 Alpha  occ. eigenvalues --  -12.73307 -12.73290 -12.73289 -12.73208 -12.73205
 Alpha  occ. eigenvalues --   -6.75642  -4.92081  -4.91866  -4.91422  -1.97236
 Alpha  occ. eigenvalues --   -1.97209  -1.25763  -1.24805  -1.24792  -1.24725
 Alpha  occ. eigenvalues --   -1.24725  -1.24302  -1.13926  -1.08556  -1.08248
 Alpha  occ. eigenvalues --   -0.89518  -0.67705  -0.57283  -0.52824  -0.52602
 Alpha  occ. eigenvalues --   -0.48991  -0.47943  -0.46117  -0.45763  -0.43901
 Alpha  occ. eigenvalues --   -0.40699  -0.37188  -0.34163
 Alpha virt. eigenvalues --   -0.20456  -0.19851  -0.19631  -0.14480  -0.11367
 Alpha virt. eigenvalues --   -0.11280  -0.10319  -0.09666  -0.09042  -0.07375
 Alpha virt. eigenvalues --   -0.07215  -0.06432  -0.05961  -0.05215  -0.04857
 Alpha virt. eigenvalues --   -0.04431  -0.04389  -0.04082  -0.03999  -0.03873
 Alpha virt. eigenvalues --   -0.03337  -0.02377   0.00222   0.01112   0.02011
 Alpha virt. eigenvalues --    0.02949   0.03326   0.03644   0.04213   0.05048
 Alpha virt. eigenvalues --    0.05146   0.05190   0.06783   0.07028   0.07278
 Alpha virt. eigenvalues --    0.07476   0.08123   0.08219   0.12230   0.13582
 Alpha virt. eigenvalues --    0.14152   0.14769   0.16275   0.16814   0.16922
 Alpha virt. eigenvalues --    0.18689   0.20335   0.21717   0.24408   0.26748
 Alpha virt. eigenvalues --    0.28309   0.29465   0.31799   0.32146   0.32489
 Alpha virt. eigenvalues --    0.36021   0.36754   0.40436   0.43971   0.45547
 Alpha virt. eigenvalues --    0.48019   0.56603   0.57824   0.60212   0.65644
 Alpha virt. eigenvalues --    0.71357   0.87015   0.90195   0.94380   1.03573
 Alpha virt. eigenvalues --    1.05863   1.07986   1.08400   1.12010   1.12332
 Alpha virt. eigenvalues --    1.14816   1.15162   1.17897   1.20708   1.23940
 Alpha virt. eigenvalues --    1.28607   1.38347   1.43005   1.46781   1.50564
 Alpha virt. eigenvalues --    1.50926   1.58068   1.66232   1.68016   1.70615
 Alpha virt. eigenvalues --    1.71272   1.75760   1.80031   1.81219   1.82384
 Alpha virt. eigenvalues --    1.84418   1.85986   1.86061   1.92954   2.09477
 Alpha virt. eigenvalues --    2.16198   2.16964   2.53554   2.67527   3.00300
 Alpha virt. eigenvalues --    3.38473   3.83795   3.90579   3.97507   4.05862
          Condensed to atoms (all electrons):
              1          2          3          4          5          6
     1  O    8.515559  -0.059763   0.002542  -0.004366   0.002543   0.105977
     2  O   -0.059763   8.515876   0.002553  -0.004412   0.002557   0.105938
     3  O    0.002542   0.002553   8.815349  -0.094594  -0.085976   0.067451
     4  P   -0.004366  -0.004412  -0.094594  14.567464  -0.094469  -0.019111
     5  O    0.002543   0.002557  -0.085976  -0.094469   8.815369   0.002347
     6  Ca   0.105977   0.105938   0.067451  -0.019111   0.002347  18.210017
     7  Ca   0.105987   0.105939   0.002338  -0.019117   0.067460  -0.016656
              7
     1  O    0.105987
     2  O    0.105939
     3  O    0.002338
     4  P   -0.019117
     5  O    0.067460
     6  Ca  -0.016656
     7  Ca  18.210032
 Mulliken atomic charges:
              1
     1  O   -0.668478
     2  O   -0.668687
     3  O   -0.709662
     4  P    0.668605
     5  O   -0.709831
     6  Ca   1.544037
     7  Ca   1.544017
 Sum of Mulliken charges=   1.00000
 Atomic charges with hydrogens summed into heavy atoms:
              1
     1  O   -0.668478
     2  O   -0.668687
     3  O   -0.709662
     4  P    0.668605
     5  O   -0.709831
     6  Ca   1.544037
     7  Ca   1.544017
 Sum of Mulliken charges=   1.00000
 Electronic spatial extent (au):  <R**2>=  1378.2426
 Charge=     1.0000 electrons
 Dipole moment (field-independent basis, Debye):
    X=     3.1408    Y=     0.0008    Z=    -0.0036  Tot=     3.1408
 Quadrupole moment (field-independent basis, Debye-Ang):
   XX=   -66.5064   YY=    -8.8743   ZZ=   -58.2534
   XY=    -0.0841   XZ=    -0.0021   YZ=    -0.0012
 Traceless Quadrupole moment (field-independent basis, Debye-Ang):
   XX=   -21.9617   YY=    35.6704   ZZ=   -13.7088
   XY=    -0.0841   XZ=    -0.0021   YZ=    -0.0012
 Octapole moment (field-independent basis, Debye-Ang**2):
  XXX=    -6.9165  YYY=     0.2736  ZZZ=    -0.0035  XYY=    70.8630
  XXY=    -0.2326  XXZ=    -0.0014  XZZ=    -1.4176  YZZ=    -0.0031
  YYZ=    -0.0065  XYZ=     0.0001
 Hexadecapole moment (field-independent basis, Debye-Ang**3):
 XXXX=  -942.8223 YYYY=  -329.5089 ZZZZ=  -103.9605 XXXY=    -0.3525
 XXXZ=    -0.0201 YYYX=    -0.4432 YYYZ=    -0.0046 ZZZX=    -0.0065
 ZZZY=    -0.0016 XXYY=  -220.7123 XXZZ=  -174.4658 YYZZ=  -103.3878
 XXYZ=    -0.0022 YYXZ=     0.0013 ZZXY=    -0.0862
 N-N= 6.021456786626D+02 E-N=-5.923726431166D+03  KE= 1.991110812084D+03
 Merz-Kollman atomic radii used.
 Read replacement radii for each type of atom:
 Rad(20) =   1.188000000000D+00
 Atom Element Radius
    1     8    1.40
    2     8    1.40
    3     8    1.40
    4    15    1.80
    5     8    1.40
    6    20    1.19
    7    20    1.19

 **********************************************************************

            Electrostatic Properties Using The SCF Density

 **********************************************************************

       Atomic Center    1 is at   1.713302  0.002428 -0.786130
       Atomic Center    2 is at   1.713162  0.002468  0.786280
       Atomic Center    3 is at  -1.440150 -1.275267  0.000180
       Atomic Center    4 is at  -2.319778 -0.003296 -0.000170
       Atomic Center    5 is at  -1.444366  1.271603  0.000290
       Atomic Center    6 is at   0.764370 -1.857280 -0.000040
       Atomic Center    7 is at   0.758685  1.859260 -0.000080
     712 points will be used for fitting atomic charges
 Fitting point charges to eletrostatic potential
 Charges from ESP fit, RMS=   0.00428 RRMS=   0.02804:
 Charge=   1.00000 Dipole=     2.9943     0.0006    -0.0043 Tot=     2.9943
              1
     1  O   -0.787247
     2  O   -0.787376
     3  O   -0.751691
     4  P    0.633772
     5  O   -0.751767
     6  Ca   1.722155
     7  Ca   1.722154
 -----------------------------------------------------------------

              Electrostatic Properties (Atomic Units)

 -----------------------------------------------------------------
    Center     Electric         -------- Electric Field --------
               Potential          X             Y             Z
 -----------------------------------------------------------------
    1 Atom    -22.213850
    2 Atom    -22.214291
    3 Atom    -22.183976
    4 Atom    -53.916375
    5 Atom    -22.184294
    6 Atom    -80.007937
    7 Atom    -80.007969
 -----------------------------------------------------------------
 1\1\GINC-N033\SP\RB3LYP\6-31+G(d,p)\Ca2O4P1(1+)\TIMN\12-Jun-2015\0\\# 
 b3lyp/6-31+G(d,p) int=ultrafine pop=(ReadRadii,MK)\\mol_16.4.38.pdbcc_
 plusQ.out.z51588.zip.xyz\\1,1\O,0,1.7133,0.00243,-0.78613\O,0,1.71316,
 0.00247,0.78628\O,0,-1.44015,-1.27527,0.00018\P,0,-2.31978,-0.0033,-0.
 00017\O,0,-1.44437,1.2716,0.00029\Ca,0,0.76437,-1.85728,-0.00004\Ca,0,
 0.75868,1.85926,-0.00008\\Version=EM64T-G03RevE.01\State=1-A\HF=-1997.
 3337247\RMSD=4.406e-05\Thermal=0.\Dipole=1.2356832,0.0002996,-0.001421
 8\PG=C01 [X(Ca2O4P1)]\\@


 ON A CLEAR DISK YOU CAN SEEK FOREVER.
 Job cpu time:  0 days  0 hours  0 minutes 45.4 seconds.
 File lengths (MBytes):  RWF=     28 Int=      0 D2E=      0 Chk=     10 Scr=      1
 Normal termination of Gaussian 03 at Fri Jun 12 17:48:12 2015.
