 Entering Gaussian System, Link 0=/home/timn/tmp/g03.e01/g03
 Input=mol_17.27.47.pdbcc_plusQ.z58513.zip.xyz.gjf
 Output=mol_17.27.47.pdbcc_plusQ.z58513.zip.xyz.out
 Initial command:
 /home/timn/tmp/g03.e01/l1.exe /home/timn/tmp/g03.e01/Gau-13347.inp -scrdir=/home/timn/tmp/g03.e01/
 Default is to use a total of   2 processors:
                                2 via shared-memory
                                1 via Linda
 Entering Link 1 = /home/timn/tmp/g03.e01/l1.exe PID=     13349.
  
 Copyright (c) 1988,1990,1992,1993,1995,1998,2003,2004,2007, Gaussian, Inc.
                  All Rights Reserved.
  
 This is the Gaussian(R) 03 program.  It is based on the
 the Gaussian(R) 98 system (copyright 1998, Gaussian, Inc.),
 the Gaussian(R) 94 system (copyright 1995, Gaussian, Inc.),
 the Gaussian 92(TM) system (copyright 1992, Gaussian, Inc.),
 the Gaussian 90(TM) system (copyright 1990, Gaussian, Inc.),
 the Gaussian 88(TM) system (copyright 1988, Gaussian, Inc.),
 the Gaussian 86(TM) system (copyright 1986, Carnegie Mellon
 University), and the Gaussian 82(TM) system (copyright 1983,
 Carnegie Mellon University). Gaussian is a federally registered
 trademark of Gaussian, Inc.
  
 This software contains proprietary and confidential information,
 including trade secrets, belonging to Gaussian, Inc.
  
 This software is provided under written license and may be
 used, copied, transmitted, or stored only in accord with that
 written license.
  
 The following legend is applicable only to US Government
 contracts under FAR:
  
                    RESTRICTED RIGHTS LEGEND
  
 Use, reproduction and disclosure by the US Government is
 subject to restrictions as set forth in subparagraphs (a)
 and (c) of the Commercial Computer Software - Restricted
 Rights clause in FAR 52.227-19.
  
 Gaussian, Inc.
 340 Quinnipiac St., Bldg. 40, Wallingford CT 06492
  
  
 ---------------------------------------------------------------
 Warning -- This program may not be used in any manner that
 competes with the business of Gaussian, Inc. or will provide
 assistance to any competitor of Gaussian, Inc.  The licensee
 of this program is prohibited from giving any competitor of
 Gaussian, Inc. access to this program.  By using this program,
 the user acknowledges that Gaussian, Inc. is engaged in the
 business of creating and licensing software in the field of
 computational chemistry and represents and warrants to the
 licensee that it is not a competitor of Gaussian, Inc. and that
 it will not use this program in any manner prohibited above.
 ---------------------------------------------------------------
  

 Cite this work as:
 Gaussian 03, Revision E.01,
 M. J. Frisch, G. W. Trucks, H. B. Schlegel, G. E. Scuseria, 
 M. A. Robb, J. R. Cheeseman, J. A. Montgomery, Jr., T. Vreven, 
 K. N. Kudin, J. C. Burant, J. M. Millam, S. S. Iyengar, J. Tomasi, 
 V. Barone, B. Mennucci, M. Cossi, G. Scalmani, N. Rega, 
 G. A. Petersson, H. Nakatsuji, M. Hada, M. Ehara, K. Toyota, 
 R. Fukuda, J. Hasegawa, M. Ishida, T. Nakajima, Y. Honda, O. Kitao, 
 H. Nakai, M. Klene, X. Li, J. E. Knox, H. P. Hratchian, J. B. Cross, 
 V. Bakken, C. Adamo, J. Jaramillo, R. Gomperts, R. E. Stratmann, 
 O. Yazyev, A. J. Austin, R. Cammi, C. Pomelli, J. W. Ochterski, 
 P. Y. Ayala, K. Morokuma, G. A. Voth, P. Salvador, J. J. Dannenberg, 
 V. G. Zakrzewski, S. Dapprich, A. D. Daniels, M. C. Strain, 
 O. Farkas, D. K. Malick, A. D. Rabuck, K. Raghavachari, 
 J. B. Foresman, J. V. Ortiz, Q. Cui, A. G. Baboul, S. Clifford, 
 J. Cioslowski, B. B. Stefanov, G. Liu, A. Liashenko, P. Piskorz, 
 I. Komaromi, R. L. Martin, D. J. Fox, T. Keith, M. A. Al-Laham, 
 C. Y. Peng, A. Nanayakkara, M. Challacombe, P. M. W. Gill, 
 B. Johnson, W. Chen, M. W. Wong, C. Gonzalez, and J. A. Pople, 
 Gaussian, Inc., Wallingford CT, 2004.
 
 ******************************************
 Gaussian 03:  EM64T-G03RevE.01 11-Sep-2007
                12-Jun-2015 
 ******************************************
 %nproc=2
 Will use up to    2 processors via shared memory.
 Default route:  MP2=Direct MaxDisk=2000MB
 ----------------------------------------------------
 # b3lyp/6-31+G(d,p) int=ultrafine pop=(ReadRadii,MK)
 ----------------------------------------------------

 Warning!  SCF SP cutoffs with diffuse functions may be unreliable.
 Consider SCF=Tight

 1/38=1/1;
 2/17=6,18=5,40=1/2;
 3/5=1,6=6,7=111,11=2,16=1,25=1,30=1,74=-5,75=5/1,2,3;
 4//1;
 5/5=2,32=1,38=5/2;
 6/7=2,8=2,9=2,10=2,15=8,20=101,28=1/1,2;
 99/5=1,9=1/99;
 ---------------------------------------
 mol_17.27.47.pdbcc_plusQ.z58513.zip.xyz
 ---------------------------------------
 Symbolic Z-matrix:
 Charge =  1 Multiplicity = 1
 O                    -0.82187  -0.88017  -0.77723 
 O                    -0.82197  -0.88026   0.7785 
 O                     3.41083  -0.65318  -0.00076 
 P                     3.17044   0.86708  -0.00035 
 Ca                    1.22173  -1.49267   0.00016 
 Ca                   -3.0761   -0.69368  -0.00043 
 O                    -2.87434   1.41627  -0.00066 
 O                     1.61303   1.04012   0.00049 
 Ca                   -0.72573   1.51893   0.0004 
 
                          Input orientation:                          
 ---------------------------------------------------------------------
 Center     Atomic     Atomic              Coordinates (Angstroms)
 Number     Number      Type              X           Y           Z
 ---------------------------------------------------------------------
    1          8             0       -0.821870   -0.880170   -0.777230
    2          8             0       -0.821970   -0.880260    0.778500
    3          8             0        3.410830   -0.653180   -0.000760
    4         15             0        3.170440    0.867080   -0.000350
    5         20             0        1.221730   -1.492670    0.000160
    6         20             0       -3.076100   -0.693680   -0.000430
    7          8             0       -2.874340    1.416270   -0.000660
    8          8             0        1.613030    1.040120    0.000490
    9         20             0       -0.725730    1.518930    0.000400
 ---------------------------------------------------------------------
                    Distance matrix (angstroms):
                    1          2          3          4          5
     1  O    0.000000
     2  O    1.555730   0.000000
     3  O    4.309313   4.309920   0.000000
     4  P    4.426620   4.427092   1.539148   0.000000
     5  Ca   2.270637   2.271028   2.344548   3.060374   0.000000
     6  Ca   2.391600   2.392205   6.487056   6.438574   4.371467
     7  O    3.176371   3.177005   6.617098   6.069677   5.023915
     8  O    3.197046   3.197246   2.469686   1.566994   2.562838
     9  Ca   2.523813   2.524047   4.672172   3.950323   3.586410
                    6          7          8          9
     6  Ca   0.000000
     7  O    2.119575   0.000000
     8  O    4.999400   4.503108   0.000000
     9  Ca   3.227984   2.151061   2.387270   0.000000
 Stoichiometry    Ca3O5P(1+)
 Framework group  C1[X(Ca3O5P)]
 Deg. of freedom    21
 Full point group                 C1
 Largest Abelian subgroup         C1      NOp   1
 Largest concise Abelian subgroup C1      NOp   1
                         Standard orientation:                         
 ---------------------------------------------------------------------
 Center     Atomic     Atomic              Coordinates (Angstroms)
 Number     Number      Type              X           Y           Z
 ---------------------------------------------------------------------
    1          8             0       -0.821871   -0.880170   -0.777231
    2          8             0       -0.821971   -0.880260    0.778499
    3          8             0        3.410829   -0.653181   -0.000761
    4         15             0        3.170440    0.867079   -0.000351
    5         20             0        1.221729   -1.492671    0.000159
    6         20             0       -3.076101   -0.693680   -0.000431
    7          8             0       -2.874340    1.416270   -0.000661
    8          8             0        1.613030    1.040119    0.000489
    9         20             0       -0.725730    1.518930    0.000399
 ---------------------------------------------------------------------
 Rotational constants (GHZ):      1.5593500      0.4315960      0.3470206
 Standard basis: 6-31+G(d,p) (6D, 7F)
 There are   199 symmetry adapted basis functions of A   symmetry.
 Integral buffers will be    131072 words long.
 Raffenetti 2 integral format.
 Two-electron integral symmetry is turned on.
   199 basis functions,   456 primitive gaussians,   199 cartesian basis functions
    57 alpha electrons       57 beta electrons
       nuclear repulsion energy       978.3573720958 Hartrees.
 NAtoms=    9 NActive=    9 NUniq=    9 SFac= 7.50D-01 NAtFMM=   80 NAOKFM=F Big=F
 One-electron integrals computed using PRISM.
 NBasis=   199 RedAO= T  NBF=   199
 NBsUse=   199 1.00D-06 NBFU=   199
 Harris functional with IExCor=  402 diagonalized for initial guess.
 ExpMin= 7.10D-03 ExpMax= 3.53D+04 ExpMxC= 5.30D+03 IAcc=3 IRadAn=         5 AccDes= 0.00D+00
 HarFok:  IExCor= 402 AccDes= 0.00D+00 IRadAn=         5 IDoV=1
 ScaDFX=  1.000000  1.000000  1.000000  1.000000
 Initial guess orbital symmetries:
       Occupied  (A) (A) (A) (A) (A) (A) (A) (A) (A) (A) (A) (A)
                 (A) (A) (A) (A) (A) (A) (A) (A) (A) (A) (A) (A)
                 (A) (A) (A) (A) (A) (A) (A) (A) (A) (A) (A) (A)
                 (A) (A) (A) (A) (A) (A) (A) (A) (A) (A) (A) (A)
                 (A) (A) (A) (A) (A) (A) (A) (A) (A)
       Virtual   (A) (A) (A) (A) (A) (A) (A) (A) (A) (A) (A) (A)
                 (A) (A) (A) (A) (A) (A) (A) (A) (A) (A) (A) (A)
                 (A) (A) (A) (A) (A) (A) (A) (A) (A) (A) (A) (A)
                 (A) (A) (A) (A) (A) (A) (A) (A) (A) (A) (A) (A)
                 (A) (A) (A) (A) (A) (A) (A) (A) (A) (A) (A) (A)
                 (A) (A) (A) (A) (A) (A) (A) (A) (A) (A) (A) (A)
                 (A) (A) (A) (A) (A) (A) (A) (A) (A) (A) (A) (A)
                 (A) (A) (A) (A) (A) (A) (A) (A) (A) (A) (A) (A)
                 (A) (A) (A) (A) (A) (A) (A) (A) (A) (A) (A) (A)
                 (A) (A) (A) (A) (A) (A) (A) (A) (A) (A) (A) (A)
                 (A) (A) (A) (A) (A) (A) (A) (A) (A) (A) (A) (A)
                 (A) (A) (A) (A) (A) (A) (A) (A) (A) (A)
 The electronic state of the initial guess is 1-A.
 Requested convergence on RMS density matrix=1.00D-04 within 128 cycles.
 Requested convergence on MAX density matrix=1.00D-02.
 Requested convergence on             energy=1.00D-02.
 No special actions if energy rises.
 EnCoef did     3 forward-backward iterations
 SCF Done:  E(RB+HF-LYP) =  -2750.19922766     A.U. after    8 cycles
             Convg  =    0.8777D-04             -V/T =  2.0029
             S**2   =   0.0000

 **********************************************************************

            Population analysis using the SCF density.

 **********************************************************************

 Orbital symmetries:
       Occupied  (A) (A) (A) (A) (A) (A) (A) (A) (A) (A) (A) (A)
                 (A) (A) (A) (A) (A) (A) (A) (A) (A) (A) (A) (A)
                 (A) (A) (A) (A) (A) (A) (A) (A) (A) (A) (A) (A)
                 (A) (A) (A) (A) (A) (A) (A) (A) (A) (A) (A) (A)
                 (A) (A) (A) (A) (A) (A) (A) (A) (A)
       Virtual   (A) (A) (A) (A) (A) (A) (A) (A) (A) (A) (A) (A)
                 (A) (A) (A) (A) (A) (A) (A) (A) (A) (A) (A) (A)
                 (A) (A) (A) (A) (A) (A) (A) (A) (A) (A) (A) (A)
                 (A) (A) (A) (A) (A) (A) (A) (A) (A) (A) (A) (A)
                 (A) (A) (A) (A) (A) (A) (A) (A) (A) (A) (A) (A)
                 (A) (A) (A) (A) (A) (A) (A) (A) (A) (A) (A) (A)
                 (A) (A) (A) (A) (A) (A) (A) (A) (A) (A) (A) (A)
                 (A) (A) (A) (A) (A) (A) (A) (A) (A) (A) (A) (A)
                 (A) (A) (A) (A) (A) (A) (A) (A) (A) (A) (A) (A)
                 (A) (A) (A) (A) (A) (A) (A) (A) (A) (A) (A) (A)
                 (A) (A) (A) (A) (A) (A) (A) (A) (A) (A) (A) (A)
                 (A) (A) (A) (A) (A) (A) (A) (A) (A) (A)
 The electronic state is 1-A.
 Alpha  occ. eigenvalues -- -145.53301-145.48101-145.46497 -77.31648 -19.29958
 Alpha  occ. eigenvalues --  -19.29136 -19.27654 -19.27649 -19.10310 -15.60146
 Alpha  occ. eigenvalues --  -15.54938 -15.53357 -12.73382 -12.73377 -12.73212
 Alpha  occ. eigenvalues --  -12.68156 -12.68121 -12.68041 -12.66611 -12.66574
 Alpha  occ. eigenvalues --  -12.66405  -6.77273  -4.93705  -4.93473  -4.93055
 Alpha  occ. eigenvalues --   -1.97330  -1.92135  -1.90667  -1.25313  -1.25142
 Alpha  occ. eigenvalues --   -1.25003  -1.20355  -1.19790  -1.19239  -1.18527
 Alpha  occ. eigenvalues --   -1.18450  -1.17870  -1.15552  -1.10906  -1.09762
 Alpha  occ. eigenvalues --   -0.91288  -0.84519  -0.68932  -0.57897  -0.55273
 Alpha  occ. eigenvalues --   -0.54484  -0.51217  -0.50442  -0.49458  -0.46901
 Alpha  occ. eigenvalues --   -0.45453  -0.42702  -0.38844  -0.36712  -0.30147
 Alpha  occ. eigenvalues --   -0.28562  -0.28509
 Alpha virt. eigenvalues --   -0.21599  -0.19564  -0.17910  -0.15028  -0.15010
 Alpha virt. eigenvalues --   -0.11254  -0.10532  -0.09852  -0.09287  -0.08794
 Alpha virt. eigenvalues --   -0.08675  -0.08136  -0.07318  -0.06844  -0.06403
 Alpha virt. eigenvalues --   -0.05270  -0.05161  -0.04773  -0.04392  -0.04325
 Alpha virt. eigenvalues --   -0.04067  -0.03928  -0.03832  -0.03754  -0.03164
 Alpha virt. eigenvalues --   -0.02886  -0.02820  -0.02756  -0.02036  -0.00678
 Alpha virt. eigenvalues --    0.01192   0.02370   0.03019   0.03129   0.03557
 Alpha virt. eigenvalues --    0.04614   0.04770   0.05246   0.05722   0.05974
 Alpha virt. eigenvalues --    0.06045   0.07071   0.07152   0.08139   0.08650
 Alpha virt. eigenvalues --    0.09108   0.09287   0.10066   0.10526   0.11195
 Alpha virt. eigenvalues --    0.12843   0.12876   0.14785   0.14995   0.16232
 Alpha virt. eigenvalues --    0.16459   0.16524   0.17569   0.18107   0.20919
 Alpha virt. eigenvalues --    0.21384   0.22314   0.22848   0.23440   0.24458
 Alpha virt. eigenvalues --    0.26190   0.28129   0.28795   0.29850   0.31217
 Alpha virt. eigenvalues --    0.31307   0.33453   0.35770   0.37587   0.39305
 Alpha virt. eigenvalues --    0.42546   0.43236   0.45405   0.47302   0.47387
 Alpha virt. eigenvalues --    0.51488   0.53830   0.56498   0.60322   0.61232
 Alpha virt. eigenvalues --    0.63766   0.84709   0.89747   0.94114   0.99237
 Alpha virt. eigenvalues --    1.04397   1.06951   1.08631   1.10110   1.11272
 Alpha virt. eigenvalues --    1.11286   1.14319   1.15321   1.17574   1.19319
 Alpha virt. eigenvalues --    1.19828   1.21098   1.24063   1.29927   1.34427
 Alpha virt. eigenvalues --    1.35823   1.41134   1.46724   1.47081   1.53222
 Alpha virt. eigenvalues --    1.54270   1.60410   1.65367   1.66159   1.66535
 Alpha virt. eigenvalues --    1.69470   1.73057   1.74296   1.76448   1.78984
 Alpha virt. eigenvalues --    1.82211   1.83844   1.84148   1.86186   1.87445
 Alpha virt. eigenvalues --    1.89439   1.92634   1.95947   2.01022   2.04345
 Alpha virt. eigenvalues --    2.16461   2.17824   2.17885   2.50719   2.67348
 Alpha virt. eigenvalues --    3.00518   3.38858   3.87256   3.89012   4.00832
 Alpha virt. eigenvalues --    4.08740   4.08993
          Condensed to atoms (all electrons):
              1          2          3          4          5          6
     1  O    8.576885  -0.050404  -0.001255  -0.004158   0.094650   0.050865
     2  O   -0.050404   8.576834  -0.001254  -0.004136   0.094668   0.050864
     3  O   -0.001255  -0.001254   8.529447   0.111386   0.079151   0.001051
     4  P   -0.004158  -0.004136   0.111386  14.415089  -0.018406  -0.012402
     5  Ca   0.094650   0.094668   0.079151  -0.018406  18.244150  -0.016938
     6  Ca   0.050865   0.050864   0.001051  -0.012402  -0.016938  18.361311
     7  O    0.000565   0.000546   0.000000  -0.001398   0.001292   0.224136
     8  O   -0.000420  -0.000410  -0.074552  -0.159560   0.022360   0.005519
     9  Ca   0.027641   0.027602   0.003495  -0.006703  -0.004170  -0.027438
              7          8          9
     1  O    0.000565  -0.000420   0.027641
     2  O    0.000546  -0.000410   0.027602
     3  O    0.000000  -0.074552   0.003495
     4  P   -0.001398  -0.159560  -0.006703
     5  Ca   0.001292   0.022360  -0.004170
     6  Ca   0.224136   0.005519  -0.027438
     7  O    8.679346  -0.005216   0.224593
     8  O   -0.005216   8.920896   0.034086
     9  Ca   0.224593   0.034086  18.364740
 Mulliken atomic charges:
              1
     1  O   -0.694370
     2  O   -0.694311
     3  O   -0.647470
     4  P    0.680286
     5  Ca   1.503244
     6  Ca   1.363032
     7  O   -1.123864
     8  O   -0.742703
     9  Ca   1.356155
 Sum of Mulliken charges=   1.00000
 Atomic charges with hydrogens summed into heavy atoms:
              1
     1  O   -0.694370
     2  O   -0.694311
     3  O   -0.647470
     4  P    0.680286
     5  Ca   1.503244
     6  Ca   1.363032
     7  O   -1.123864
     8  O   -0.742703
     9  Ca   1.356155
 Sum of Mulliken charges=   1.00000
 Electronic spatial extent (au):  <R**2>=  2764.5707
 Charge=     1.0000 electrons
 Dipole moment (field-independent basis, Debye):
    X=     0.3528    Y=    -7.6387    Z=     0.0011  Tot=     7.6468
 Quadrupole moment (field-independent basis, Debye-Ang):
   XX=   -63.3936   YY=   -57.0645   ZZ=   -77.2567
   XY=    23.1630   XZ=     0.0040   YZ=     0.0106
 Traceless Quadrupole moment (field-independent basis, Debye-Ang):
   XX=     2.5113   YY=     8.8404   ZZ=   -11.3518
   XY=    23.1630   XZ=     0.0040   YZ=     0.0106
 Octapole moment (field-independent basis, Debye-Ang**2):
  XXX=  -107.8746  YYY=   -38.0211  ZZZ=    -0.0014  XYY=    27.7902
  XXY=  -109.5051  XXZ=     0.0210  XZZ=     2.9071  YZZ=    -3.4938
  YYZ=     0.0145  XYZ=    -0.0428
 Hexadecapole moment (field-independent basis, Debye-Ang**3):
 XXXX= -2334.4592 YYYY=  -569.7671 ZZZZ=  -129.5895 XXXY=   483.6877
 XXXZ=     0.0940 YYYX=     2.8932 YYYZ=     0.0439 ZZZX=     0.0125
 ZZZY=     0.0297 XXYY=  -576.0217 XXZZ=  -421.9092 YYZZ=  -130.0789
 XXYZ=     0.0510 YYXZ=    -0.0094 ZZXY=     6.1385
 N-N= 9.783573720958D+02 E-N=-8.456714573268D+03  KE= 2.742194726832D+03
 Merz-Kollman atomic radii used.
 Read replacement radii for each type of atom:
 Rad(20) =   1.188000000000D+00
 Atom Element Radius
    1     8    1.40
    2     8    1.40
    3     8    1.40
    4    15    1.80
    5    20    1.19
    6    20    1.19
    7     8    1.40
    8     8    1.40
    9    20    1.19

 **********************************************************************

            Electrostatic Properties Using The SCF Density

 **********************************************************************

       Atomic Center    1 is at  -0.821871 -0.880170 -0.777231
       Atomic Center    2 is at  -0.821971 -0.880260  0.778499
       Atomic Center    3 is at   3.410829 -0.653181 -0.000761
       Atomic Center    4 is at   3.170440  0.867079 -0.000351
       Atomic Center    5 is at   1.221729 -1.492671  0.000159
       Atomic Center    6 is at  -3.076101 -0.693680 -0.000431
       Atomic Center    7 is at  -2.874340  1.416270 -0.000661
       Atomic Center    8 is at   1.613030  1.040119  0.000489
       Atomic Center    9 is at  -0.725730  1.518930  0.000399
     878 points will be used for fitting atomic charges
 Fitting point charges to eletrostatic potential
 Charges from ESP fit, RMS=   0.00499 RRMS=   0.03332:
 Charge=   1.00000 Dipole=     0.0765    -7.7050     0.0010 Tot=     7.7054
              1
     1  O   -0.868281
     2  O   -0.868058
     3  O   -0.647965
     4  P    0.596608
     5  Ca   1.731717
     6  Ca   1.631165
     7  O   -1.478183
     8  O   -0.762859
     9  Ca   1.665856
 -----------------------------------------------------------------

              Electrostatic Properties (Atomic Units)

 -----------------------------------------------------------------
    Center     Electric         -------- Electric Field --------
               Potential          X             Y             Z
 -----------------------------------------------------------------
    1 Atom    -22.188396
    2 Atom    -22.188397
    3 Atom    -22.175287
    4 Atom    -53.900333
    5 Atom    -80.007448
    6 Atom    -80.060485
    7 Atom    -22.360328
    8 Atom    -22.165607
    9 Atom    -80.075600
 -----------------------------------------------------------------
 1\1\GINC-N033\SP\RB3LYP\6-31+G(d,p)\Ca3O5P1(1+)\TIMN\12-Jun-2015\0\\# 
 b3lyp/6-31+G(d,p) int=ultrafine pop=(ReadRadii,MK)\\mol_17.27.47.pdbcc
 _plusQ.z58513.zip.xyz\\1,1\O,0,-0.82187,-0.88017,-0.77723\O,0,-0.82197
 ,-0.88026,0.7785\O,0,3.41083,-0.65318,-0.00076\P,0,3.17044,0.86708,-0.
 00035\Ca,0,1.22173,-1.49267,0.00016\Ca,0,-3.0761,-0.69368,-0.00043\O,0
 ,-2.87434,1.41627,-0.00066\O,0,1.61303,1.04012,0.00049\Ca,0,-0.72573,1
 .51893,0.0004\\Version=EM64T-G03RevE.01\State=1-A\HF=-2750.1992277\RMS
 D=8.777e-05\Thermal=0.\Dipole=0.138799,-3.0052811,0.0004454\PG=C01 [X(
 Ca3O5P1)]\\@


 A SUCCESSFUL PURSUIT OF SCIENCE MAKES A MAN THE
 BENEFACTOR OF ALL MANKIND OF EVERY AGE.
   --  JOSEPH PRIESTLEY, "EXPERIMENTS AND
 OBSERVATIONS ON DIFFERENT KINDS OF AIR", 1774
 Job cpu time:  0 days  0 hours  1 minutes 55.0 seconds.
 File lengths (MBytes):  RWF=     36 Int=      0 D2E=      0 Chk=     11 Scr=      1
 Normal termination of Gaussian 03 at Fri Jun 12 18:06:37 2015.
