 Entering Gaussian System, Link 0=/home/timn/tmp/g03.e01/g03
 Input=mol_16.4.14.pdb_plusQ.out.z51565.zip.xyz.gjf
 Output=mol_16.4.14.pdb_plusQ.out.z51565.zip.xyz.out
 Initial command:
 /home/timn/tmp/g03.e01/l1.exe /home/timn/tmp/g03.e01/Gau-14229.inp -scrdir=/home/timn/tmp/g03.e01/
 Default is to use a total of   2 processors:
                                2 via shared-memory
                                1 via Linda
 Entering Link 1 = /home/timn/tmp/g03.e01/l1.exe PID=     14230.
  
 Copyright (c) 1988,1990,1992,1993,1995,1998,2003,2004,2007, Gaussian, Inc.
                  All Rights Reserved.
  
 This is the Gaussian(R) 03 program.  It is based on the
 the Gaussian(R) 98 system (copyright 1998, Gaussian, Inc.),
 the Gaussian(R) 94 system (copyright 1995, Gaussian, Inc.),
 the Gaussian 92(TM) system (copyright 1992, Gaussian, Inc.),
 the Gaussian 90(TM) system (copyright 1990, Gaussian, Inc.),
 the Gaussian 88(TM) system (copyright 1988, Gaussian, Inc.),
 the Gaussian 86(TM) system (copyright 1986, Carnegie Mellon
 University), and the Gaussian 82(TM) system (copyright 1983,
 Carnegie Mellon University). Gaussian is a federally registered
 trademark of Gaussian, Inc.
  
 This software contains proprietary and confidential information,
 including trade secrets, belonging to Gaussian, Inc.
  
 This software is provided under written license and may be
 used, copied, transmitted, or stored only in accord with that
 written license.
  
 The following legend is applicable only to US Government
 contracts under FAR:
  
                    RESTRICTED RIGHTS LEGEND
  
 Use, reproduction and disclosure by the US Government is
 subject to restrictions as set forth in subparagraphs (a)
 and (c) of the Commercial Computer Software - Restricted
 Rights clause in FAR 52.227-19.
  
 Gaussian, Inc.
 340 Quinnipiac St., Bldg. 40, Wallingford CT 06492
  
  
 ---------------------------------------------------------------
 Warning -- This program may not be used in any manner that
 competes with the business of Gaussian, Inc. or will provide
 assistance to any competitor of Gaussian, Inc.  The licensee
 of this program is prohibited from giving any competitor of
 Gaussian, Inc. access to this program.  By using this program,
 the user acknowledges that Gaussian, Inc. is engaged in the
 business of creating and licensing software in the field of
 computational chemistry and represents and warrants to the
 licensee that it is not a competitor of Gaussian, Inc. and that
 it will not use this program in any manner prohibited above.
 ---------------------------------------------------------------
  

 Cite this work as:
 Gaussian 03, Revision E.01,
 M. J. Frisch, G. W. Trucks, H. B. Schlegel, G. E. Scuseria, 
 M. A. Robb, J. R. Cheeseman, J. A. Montgomery, Jr., T. Vreven, 
 K. N. Kudin, J. C. Burant, J. M. Millam, S. S. Iyengar, J. Tomasi, 
 V. Barone, B. Mennucci, M. Cossi, G. Scalmani, N. Rega, 
 G. A. Petersson, H. Nakatsuji, M. Hada, M. Ehara, K. Toyota, 
 R. Fukuda, J. Hasegawa, M. Ishida, T. Nakajima, Y. Honda, O. Kitao, 
 H. Nakai, M. Klene, X. Li, J. E. Knox, H. P. Hratchian, J. B. Cross, 
 V. Bakken, C. Adamo, J. Jaramillo, R. Gomperts, R. E. Stratmann, 
 O. Yazyev, A. J. Austin, R. Cammi, C. Pomelli, J. W. Ochterski, 
 P. Y. Ayala, K. Morokuma, G. A. Voth, P. Salvador, J. J. Dannenberg, 
 V. G. Zakrzewski, S. Dapprich, A. D. Daniels, M. C. Strain, 
 O. Farkas, D. K. Malick, A. D. Rabuck, K. Raghavachari, 
 J. B. Foresman, J. V. Ortiz, Q. Cui, A. G. Baboul, S. Clifford, 
 J. Cioslowski, B. B. Stefanov, G. Liu, A. Liashenko, P. Piskorz, 
 I. Komaromi, R. L. Martin, D. J. Fox, T. Keith, M. A. Al-Laham, 
 C. Y. Peng, A. Nanayakkara, M. Challacombe, P. M. W. Gill, 
 B. Johnson, W. Chen, M. W. Wong, C. Gonzalez, and J. A. Pople, 
 Gaussian, Inc., Wallingford CT, 2004.
 
 ******************************************
 Gaussian 03:  EM64T-G03RevE.01 11-Sep-2007
                12-Jun-2015 
 ******************************************
 %nproc=2
 Will use up to    2 processors via shared memory.
 Default route:  MP2=Direct MaxDisk=2000MB
 ----------------------------------------------------
 # b3lyp/6-31+G(d,p) int=ultrafine pop=(ReadRadii,MK)
 ----------------------------------------------------

 Warning!  SCF SP cutoffs with diffuse functions may be unreliable.
 Consider SCF=Tight

 1/38=1/1;
 2/17=6,18=5,40=1/2;
 3/5=1,6=6,7=111,11=2,16=1,25=1,30=1,74=-5,75=5/1,2,3;
 4//1;
 5/5=2,32=1,38=5/2;
 6/7=2,8=2,9=2,10=2,15=8,20=101,28=1/1,2;
 99/5=1,9=1/99;
 ----------------------------------------
 mol_16.4.14.pdb_plusQ.out.z51565.zip.xyz
 ----------------------------------------
 Symbolic Z-matrix:
 Charge =  1 Multiplicity = 1
 O                     1.51792  -1.37534   0. 
 P                     0.322    -2.36436   0. 
 Ca                    1.9827    0.83614   0. 
 O                     0.        1.54871   0. 
 O                    -1.13912   2.53562   0. 
 Ca                   -1.9681    0.49549   0. 
 O                    -1.01905  -1.6049    0. 
 
                          Input orientation:                          
 ---------------------------------------------------------------------
 Center     Atomic     Atomic              Coordinates (Angstroms)
 Number     Number      Type              X           Y           Z
 ---------------------------------------------------------------------
    1          8             0        1.517920   -1.375340    0.000000
    2         15             0        0.322000   -2.364360    0.000000
    3         20             0        1.982700    0.836140    0.000000
    4          8             0        0.000000    1.548710    0.000000
    5          8             0       -1.139120    2.535620    0.000000
    6         20             0       -1.968100    0.495490    0.000000
    7          8             0       -1.019050   -1.604900    0.000000
 ---------------------------------------------------------------------
                    Distance matrix (angstroms):
                    1          2          3          4          5
     1  O    0.000000
     2  P    1.551897   0.000000
     3  Ca   2.259793   3.605707   0.000000
     4  O    3.294564   3.926296   2.106859   0.000000
     5  O    4.728157   5.113186   3.554433   1.507178   0.000000
     6  Ca   3.956304   3.663782   3.965459   2.232194   2.202121
     7  O    2.547335   1.541167   3.869002   3.314169   4.142261
                    6          7
     6  Ca   0.000000
     7  O    2.304850   0.000000
 Stoichiometry    Ca2O4P(1+)
 Framework group  CS[SG(Ca2O4P)]
 Deg. of freedom    11
 Full point group                 CS
 Largest Abelian subgroup         CS      NOp   2
 Largest concise Abelian subgroup C1      NOp   1
                         Standard orientation:                         
 ---------------------------------------------------------------------
 Center     Atomic     Atomic              Coordinates (Angstroms)
 Number     Number      Type              X           Y           Z
 ---------------------------------------------------------------------
    1          8             0        1.517920   -1.375339    0.000000
    2         15             0        0.322000   -2.364359    0.000000
    3         20             0        1.982700    0.836141    0.000000
    4          8             0        0.000000    1.548711    0.000000
    5          8             0       -1.139120    2.535621    0.000000
    6         20             0       -1.968100    0.495491    0.000000
    7          8             0       -1.019050   -1.604899    0.000000
 ---------------------------------------------------------------------
 Rotational constants (GHZ):      1.4282977      1.1010252      0.6217442
 Standard basis: 6-31+G(d,p) (6D, 7F)
 There are   113 symmetry adapted basis functions of A'  symmetry.
 There are    40 symmetry adapted basis functions of A"  symmetry.
 Integral buffers will be    131072 words long.
 Raffenetti 2 integral format.
 Two-electron integral symmetry is turned on.
   153 basis functions,   344 primitive gaussians,   153 cartesian basis functions
    43 alpha electrons       43 beta electrons
       nuclear repulsion energy       580.9286392671 Hartrees.
 NAtoms=    7 NActive=    7 NUniq=    7 SFac= 7.50D-01 NAtFMM=   80 NAOKFM=F Big=F
 One-electron integrals computed using PRISM.
 NBasis=   153 RedAO= T  NBF=   113    40
 NBsUse=   153 1.00D-06 NBFU=   113    40
 Harris functional with IExCor=  402 diagonalized for initial guess.
 ExpMin= 7.10D-03 ExpMax= 3.53D+04 ExpMxC= 5.30D+03 IAcc=3 IRadAn=         5 AccDes= 0.00D+00
 HarFok:  IExCor= 402 AccDes= 0.00D+00 IRadAn=         5 IDoV=1
 ScaDFX=  1.000000  1.000000  1.000000  1.000000
 Initial guess orbital symmetries:
       Occupied  (A') (A') (A') (A') (A') (A') (A') (A') (A') (A')
                 (A') (A') (A') (A") (A") (A') (A') (A') (A") (A')
                 (A') (A') (A') (A') (A') (A") (A") (A') (A') (A')
                 (A') (A') (A') (A') (A') (A') (A") (A") (A") (A')
                 (A') (A") (A')
       Virtual   (A') (A") (A') (A') (A") (A') (A') (A") (A') (A')
                 (A') (A') (A') (A") (A') (A") (A') (A') (A') (A')
                 (A") (A') (A') (A') (A") (A') (A") (A') (A") (A')
                 (A') (A") (A') (A") (A') (A') (A') (A") (A') (A')
                 (A") (A') (A') (A") (A') (A') (A") (A') (A') (A')
                 (A") (A') (A') (A") (A') (A') (A') (A') (A') (A')
                 (A') (A") (A") (A') (A') (A') (A') (A") (A') (A')
                 (A') (A") (A") (A") (A') (A') (A') (A') (A') (A')
                 (A') (A') (A') (A") (A') (A') (A') (A") (A") (A")
                 (A') (A') (A") (A') (A') (A') (A') (A") (A") (A')
                 (A") (A') (A') (A') (A') (A') (A') (A') (A') (A')
 The electronic state of the initial guess is 1-A'.
 Requested convergence on RMS density matrix=1.00D-04 within 128 cycles.
 Requested convergence on MAX density matrix=1.00D-02.
 Requested convergence on             energy=1.00D-02.
 No special actions if energy rises.
 EnCoef did     2 forward-backward iterations
 EnCoef did     2 forward-backward iterations
 SCF Done:  E(RB+HF-LYP) =  -1997.28618334     A.U. after    8 cycles
             Convg  =    0.9574D-04             -V/T =  2.0031
             S**2   =   0.0000

 **********************************************************************

            Population analysis using the SCF density.

 **********************************************************************

 Orbital symmetries:
       Occupied  (A') (A') (A') (A') (A') (A') (A') (A') (A') (A")
                 (A') (A') (A") (A') (A') (A') (A") (A') (A') (A')
                 (A') (A") (A') (A') (A') (A") (A') (A') (A') (A')
                 (A') (A') (A') (A') (A") (A') (A") (A') (A') (A")
                 (A') (A') (A")
       Virtual   (A') (A") (A') (A") (A') (A') (A") (A') (A') (A')
                 (A') (A') (A') (A") (A') (A") (A') (A") (A') (A')
                 (A') (A') (A') (A') (A") (A') (A") (A") (A') (A")
                 (A') (A') (A') (A") (A') (A') (A") (A') (A') (A')
                 (A") (A') (A') (A") (A') (A") (A') (A') (A') (A")
                 (A') (A') (A") (A') (A') (A') (A') (A') (A') (A')
                 (A') (A") (A") (A') (A') (A') (A') (A') (A') (A")
                 (A') (A") (A") (A') (A") (A') (A') (A') (A') (A')
                 (A') (A') (A') (A') (A") (A') (A') (A") (A") (A")
                 (A') (A') (A') (A") (A") (A') (A") (A') (A') (A')
                 (A") (A') (A') (A') (A') (A') (A') (A') (A') (A')
 The electronic state is 1-A'.
 Alpha  occ. eigenvalues -- -145.56427-145.51720 -77.31054 -19.29159 -19.28647
 Alpha  occ. eigenvalues --  -19.24387 -19.21652 -15.63213 -15.58612 -12.76466
 Alpha  occ. eigenvalues --  -12.76397 -12.76317 -12.71883 -12.71795 -12.71674
 Alpha  occ. eigenvalues --   -6.76537  -4.92977  -4.92761  -4.92314  -2.00225
 Alpha  occ. eigenvalues --   -1.95817  -1.27915  -1.27832  -1.27385  -1.23718
 Alpha  occ. eigenvalues --   -1.23688  -1.23112  -1.14838  -1.09503  -1.07360
 Alpha  occ. eigenvalues --   -0.85818  -0.68694  -0.58259  -0.53675  -0.53560
 Alpha  occ. eigenvalues --   -0.48659  -0.46762  -0.45349  -0.44827  -0.44357
 Alpha  occ. eigenvalues --   -0.41500  -0.31956  -0.30017
 Alpha virt. eigenvalues --   -0.22480  -0.20771  -0.19125  -0.13943  -0.12570
 Alpha virt. eigenvalues --   -0.11826  -0.11541  -0.09651  -0.08286  -0.07733
 Alpha virt. eigenvalues --   -0.06693  -0.06322  -0.05696  -0.05598  -0.05322
 Alpha virt. eigenvalues --   -0.04673  -0.04500  -0.04423  -0.04039  -0.03709
 Alpha virt. eigenvalues --   -0.03430  -0.02677  -0.00146   0.01080   0.01658
 Alpha virt. eigenvalues --    0.02042   0.02344   0.03257   0.03577   0.04383
 Alpha virt. eigenvalues --    0.04766   0.05351   0.05719   0.06222   0.06780
 Alpha virt. eigenvalues --    0.07562   0.08736   0.08950   0.10825   0.13731
 Alpha virt. eigenvalues --    0.13830   0.15772   0.15820   0.16195   0.18114
 Alpha virt. eigenvalues --    0.18316   0.20543   0.21335   0.23580   0.25999
 Alpha virt. eigenvalues --    0.27049   0.27472   0.31025   0.31130   0.34048
 Alpha virt. eigenvalues --    0.36079   0.37132   0.39593   0.44160   0.46118
 Alpha virt. eigenvalues --    0.52076   0.55658   0.56754   0.60458   0.66070
 Alpha virt. eigenvalues --    0.80633   0.88109   0.93657   0.96585   1.04679
 Alpha virt. eigenvalues --    1.04711   1.05523   1.07268   1.12321   1.13683
 Alpha virt. eigenvalues --    1.13727   1.15815   1.19534   1.21503   1.24025
 Alpha virt. eigenvalues --    1.33373   1.37038   1.41182   1.47817   1.51115
 Alpha virt. eigenvalues --    1.56946   1.60027   1.65123   1.65203   1.70602
 Alpha virt. eigenvalues --    1.71870   1.72030   1.79459   1.83486   1.84225
 Alpha virt. eigenvalues --    1.85463   1.85745   1.86536   1.92608   2.08569
 Alpha virt. eigenvalues --    2.25571   2.26677   2.52332   2.66690   3.09059
 Alpha virt. eigenvalues --    3.37967   3.81054   3.84792   3.89204   4.13276
          Condensed to atoms (all electrons):
              1          2          3          4          5          6
     1  O    8.834120  -0.112120   0.071604   0.013753   0.003597   0.000601
     2  P   -0.112120  14.562409  -0.013902  -0.008641  -0.002544  -0.011559
     3  Ca   0.071604  -0.013902  18.220259   0.169792  -0.019968  -0.004878
     4  O    0.013753  -0.008641   0.169792   8.489833  -0.045836   0.064256
     5  O    0.003597  -0.002544  -0.019968  -0.045836   8.508280   0.173527
     6  Ca   0.000601  -0.011559  -0.004878   0.064256   0.173527  18.240802
     7  O   -0.086219  -0.097875   0.001041   0.007602  -0.002883   0.059911
              7
     1  O   -0.086219
     2  P   -0.097875
     3  Ca   0.001041
     4  O    0.007602
     5  O   -0.002883
     6  Ca   0.059911
     7  O    8.825781
 Mulliken atomic charges:
              1
     1  O   -0.725336
     2  P    0.684233
     3  Ca   1.576052
     4  O   -0.690759
     5  O   -0.614173
     6  Ca   1.477340
     7  O   -0.707358
 Sum of Mulliken charges=   1.00000
 Atomic charges with hydrogens summed into heavy atoms:
              1
     1  O   -0.725336
     2  P    0.684233
     3  Ca   1.576052
     4  O   -0.690759
     5  O   -0.614173
     6  Ca   1.477340
     7  O   -0.707358
 Sum of Mulliken charges=   1.00000
 Electronic spatial extent (au):  <R**2>=  1544.9677
 Charge=     1.0000 electrons
 Dipole moment (field-independent basis, Debye):
    X=     3.1359    Y=    -0.1986    Z=     0.0000  Tot=     3.1422
 Quadrupole moment (field-independent basis, Debye-Ang):
   XX=    -7.0421   YY=   -76.8256   ZZ=   -54.2793
   XY=    15.0311   XZ=     0.0000   YZ=     0.0000
 Traceless Quadrupole moment (field-independent basis, Debye-Ang):
   XX=    39.0069   YY=   -30.7765   ZZ=    -8.2303
   XY=    15.0311   XZ=     0.0000   YZ=     0.0000
 Octapole moment (field-independent basis, Debye-Ang**2):
  XXX=     2.2297  YYY=   -40.5155  ZZZ=     0.0000  XYY=    34.9566
  XXY=    55.7447  XXZ=     0.0000  XZZ=     1.6145  YZZ=     2.7021
  YYZ=     0.0000  XYZ=     0.0000
 Hexadecapole moment (field-independent basis, Debye-Ang**3):
 XXXX=  -400.4545 YYYY= -1152.7312 ZZZZ=   -56.1960 XXXY=   130.0172
 XXXZ=     0.0000 YYYX=   134.3238 YYYZ=     0.0000 ZZZX=     0.0000
 ZZZY=     0.0000 XXYY=  -294.3672 XXZZ=  -113.5893 YYZZ=  -178.7484
 XXYZ=     0.0000 YYXZ=     0.0000 ZZXY=    27.5079
 N-N= 5.809286392671D+02 E-N=-5.881207270277D+03  KE= 1.991088353479D+03
 Symmetry A'   KE= 1.800528919315D+03
 Symmetry A"   KE= 1.905594341637D+02
 Merz-Kollman atomic radii used.
 Read replacement radii for each type of atom:
 Rad(20) =   1.188000000000D+00
 Atom Element Radius
    1     8    1.40
    2    15    1.80
    3    20    1.19
    4     8    1.40
    5     8    1.40
    6    20    1.19
    7     8    1.40

 **********************************************************************

            Electrostatic Properties Using The SCF Density

 **********************************************************************

       Atomic Center    1 is at   1.517920 -1.375339  0.000000
       Atomic Center    2 is at   0.322000 -2.364359  0.000000
       Atomic Center    3 is at   1.982700  0.836141  0.000000
       Atomic Center    4 is at   0.000000  1.548711  0.000000
       Atomic Center    5 is at  -1.139120  2.535621  0.000000
       Atomic Center    6 is at  -1.968100  0.495491  0.000000
       Atomic Center    7 is at  -1.019050 -1.604899  0.000000
     729 points will be used for fitting atomic charges
 Fitting point charges to eletrostatic potential
 Charges from ESP fit, RMS=   0.00517 RRMS=   0.03285:
 Charge=   1.00000 Dipole=     3.0424    -0.3160     0.0000 Tot=     3.0587
              1
     1  O   -0.743371
     2  P    0.594919
     3  Ca   1.722092
     4  O   -0.914917
     5  O   -0.637088
     6  Ca   1.657329
     7  O   -0.678963
 -----------------------------------------------------------------

              Electrostatic Properties (Atomic Units)

 -----------------------------------------------------------------
    Center     Electric         -------- Electric Field --------
               Potential          X             Y             Z
 -----------------------------------------------------------------
    1 Atom    -22.177640
    2 Atom    -53.907247
    3 Atom    -79.974829
    4 Atom    -22.225254
    5 Atom    -22.268174
    6 Atom    -80.024194
    7 Atom    -22.174028
 -----------------------------------------------------------------
 1\1\GINC-N035\SP\RB3LYP\6-31+G(d,p)\Ca2O4P1(1+)\TIMN\12-Jun-2015\0\\# 
 b3lyp/6-31+G(d,p) int=ultrafine pop=(ReadRadii,MK)\\mol_16.4.14.pdb_pl
 usQ.out.z51565.zip.xyz\\1,1\O,0,1.51792,-1.37534,0.\P,0,0.322,-2.36436
 ,0.\Ca,0,1.9827,0.83614,0.\O,0,0.,1.54871,0.\O,0,-1.13912,2.53562,0.\C
 a,0,-1.9681,0.49549,0.\O,0,-1.01905,-1.6049,0.\\Version=EM64T-G03RevE.
 01\State=1-A'\HF=-1997.2861833\RMSD=9.574e-05\Thermal=0.\Dipole=1.2337
 497,-0.0781405,0.\PG=CS [SG(Ca2O4P1)]\\@


 MICRO CREDO - NEVER TRUST A COMPUTER BIGGER
               BIGGER THAN YOU CAN LIFT.
 Job cpu time:  0 days  0 hours  0 minutes 41.8 seconds.
 File lengths (MBytes):  RWF=     28 Int=      0 D2E=      0 Chk=     10 Scr=      1
 Normal termination of Gaussian 03 at Fri Jun 12 17:46:23 2015.
