 Entering Gaussian System, Link 0=/home/timn/tmp/g03.e01/g03
 Input=mol_17.23.8.pdbc_plusQ.z58263.zip.xyz.gjf
 Output=mol_17.23.8.pdbc_plusQ.z58263.zip.xyz.out
 Initial command:
 /home/timn/tmp/g03.e01/l1.exe /home/timn/tmp/g03.e01/Gau-18137.inp -scrdir=/home/timn/tmp/g03.e01/
 Default is to use a total of   2 processors:
                                2 via shared-memory
                                1 via Linda
 Entering Link 1 = /home/timn/tmp/g03.e01/l1.exe PID=     18138.
  
 Copyright (c) 1988,1990,1992,1993,1995,1998,2003,2004,2007, Gaussian, Inc.
                  All Rights Reserved.
  
 This is the Gaussian(R) 03 program.  It is based on the
 the Gaussian(R) 98 system (copyright 1998, Gaussian, Inc.),
 the Gaussian(R) 94 system (copyright 1995, Gaussian, Inc.),
 the Gaussian 92(TM) system (copyright 1992, Gaussian, Inc.),
 the Gaussian 90(TM) system (copyright 1990, Gaussian, Inc.),
 the Gaussian 88(TM) system (copyright 1988, Gaussian, Inc.),
 the Gaussian 86(TM) system (copyright 1986, Carnegie Mellon
 University), and the Gaussian 82(TM) system (copyright 1983,
 Carnegie Mellon University). Gaussian is a federally registered
 trademark of Gaussian, Inc.
  
 This software contains proprietary and confidential information,
 including trade secrets, belonging to Gaussian, Inc.
  
 This software is provided under written license and may be
 used, copied, transmitted, or stored only in accord with that
 written license.
  
 The following legend is applicable only to US Government
 contracts under FAR:
  
                    RESTRICTED RIGHTS LEGEND
  
 Use, reproduction and disclosure by the US Government is
 subject to restrictions as set forth in subparagraphs (a)
 and (c) of the Commercial Computer Software - Restricted
 Rights clause in FAR 52.227-19.
  
 Gaussian, Inc.
 340 Quinnipiac St., Bldg. 40, Wallingford CT 06492
  
  
 ---------------------------------------------------------------
 Warning -- This program may not be used in any manner that
 competes with the business of Gaussian, Inc. or will provide
 assistance to any competitor of Gaussian, Inc.  The licensee
 of this program is prohibited from giving any competitor of
 Gaussian, Inc. access to this program.  By using this program,
 the user acknowledges that Gaussian, Inc. is engaged in the
 business of creating and licensing software in the field of
 computational chemistry and represents and warrants to the
 licensee that it is not a competitor of Gaussian, Inc. and that
 it will not use this program in any manner prohibited above.
 ---------------------------------------------------------------
  

 Cite this work as:
 Gaussian 03, Revision E.01,
 M. J. Frisch, G. W. Trucks, H. B. Schlegel, G. E. Scuseria, 
 M. A. Robb, J. R. Cheeseman, J. A. Montgomery, Jr., T. Vreven, 
 K. N. Kudin, J. C. Burant, J. M. Millam, S. S. Iyengar, J. Tomasi, 
 V. Barone, B. Mennucci, M. Cossi, G. Scalmani, N. Rega, 
 G. A. Petersson, H. Nakatsuji, M. Hada, M. Ehara, K. Toyota, 
 R. Fukuda, J. Hasegawa, M. Ishida, T. Nakajima, Y. Honda, O. Kitao, 
 H. Nakai, M. Klene, X. Li, J. E. Knox, H. P. Hratchian, J. B. Cross, 
 V. Bakken, C. Adamo, J. Jaramillo, R. Gomperts, R. E. Stratmann, 
 O. Yazyev, A. J. Austin, R. Cammi, C. Pomelli, J. W. Ochterski, 
 P. Y. Ayala, K. Morokuma, G. A. Voth, P. Salvador, J. J. Dannenberg, 
 V. G. Zakrzewski, S. Dapprich, A. D. Daniels, M. C. Strain, 
 O. Farkas, D. K. Malick, A. D. Rabuck, K. Raghavachari, 
 J. B. Foresman, J. V. Ortiz, Q. Cui, A. G. Baboul, S. Clifford, 
 J. Cioslowski, B. B. Stefanov, G. Liu, A. Liashenko, P. Piskorz, 
 I. Komaromi, R. L. Martin, D. J. Fox, T. Keith, M. A. Al-Laham, 
 C. Y. Peng, A. Nanayakkara, M. Challacombe, P. M. W. Gill, 
 B. Johnson, W. Chen, M. W. Wong, C. Gonzalez, and J. A. Pople, 
 Gaussian, Inc., Wallingford CT, 2004.
 
 ******************************************
 Gaussian 03:  EM64T-G03RevE.01 11-Sep-2007
                12-Jun-2015 
 ******************************************
 %nproc=2
 Will use up to    2 processors via shared memory.
 Default route:  MP2=Direct MaxDisk=2000MB
 ----------------------------------------------------
 # b3lyp/6-31+G(d,p) int=ultrafine pop=(ReadRadii,MK)
 ----------------------------------------------------

 Warning!  SCF SP cutoffs with diffuse functions may be unreliable.
 Consider SCF=Tight

 1/38=1/1;
 2/17=6,18=5,40=1/2;
 3/5=1,6=6,7=111,11=2,16=1,25=1,30=1,74=-5,75=5/1,2,3;
 4//1;
 5/5=2,32=1,38=5/2;
 6/7=2,8=2,9=2,10=2,15=8,20=101,28=1/1,2;
 99/5=1,9=1/99;
 -------------------------------------
 mol_17.23.8.pdbc_plusQ.z58263.zip.xyz
 -------------------------------------
 Symbolic Z-matrix:
 Charge =  1 Multiplicity = 1
 O                     1.61324   1.03999   0.00629 
 O                    -2.8749    1.41606  -0.00255 
 Ca                   -0.72611   1.5191    0.00466 
 Ca                   -3.07585  -0.69392  -0.00548 
 P                     3.17076   0.86697  -0.00598 
 O                     3.41114  -0.6532   -0.00798 
 O                    -0.81976  -0.87916  -0.77621 
 O                    -0.8241   -0.88106   0.77932 
 Ca                    1.22164  -1.49246   0.00575 
 
                          Input orientation:                          
 ---------------------------------------------------------------------
 Center     Atomic     Atomic              Coordinates (Angstroms)
 Number     Number      Type              X           Y           Z
 ---------------------------------------------------------------------
    1          8             0        1.613240    1.039990    0.006290
    2          8             0       -2.874900    1.416060   -0.002550
    3         20             0       -0.726110    1.519100    0.004660
    4         20             0       -3.075850   -0.693920   -0.005480
    5         15             0        3.170760    0.866970   -0.005980
    6          8             0        3.411140   -0.653200   -0.007980
    7          8             0       -0.819760   -0.879160   -0.776210
    8          8             0       -0.824100   -0.881060    0.779320
    9         20             0        1.221640   -1.492460    0.005750
 ---------------------------------------------------------------------
                    Distance matrix (angstroms):
                    1          2          3          4          5
     1  O    0.000000
     2  O    4.503877   0.000000
     3  Ca   2.387909   2.151271   0.000000
     4  Ca   4.999415   2.119529   3.227823   0.000000
     5  P    1.567149   6.070545   3.951074   6.438673   0.000000
     6  O    2.469725   6.617867   4.672888   6.487118   1.539059
     7  O    3.196081   3.176505   2.523921   2.391293   4.423401
     8  O    3.198224   3.177084   2.523979   2.391926   4.430712
     9  Ca   2.562548   5.024062   3.586534   4.371065   3.060411
                    6          7          8          9
     6  O    0.000000
     7  O    4.306013   0.000000
     8  O    4.313817   1.555537   0.000000
     9  Ca   2.344879   2.270443   2.270963   0.000000
 Stoichiometry    Ca3O5P(1+)
 Framework group  C1[X(Ca3O5P)]
 Deg. of freedom    21
 Full point group                 C1
 Largest Abelian subgroup         C1      NOp   1
 Largest concise Abelian subgroup C1      NOp   1
                         Standard orientation:                         
 ---------------------------------------------------------------------
 Center     Atomic     Atomic              Coordinates (Angstroms)
 Number     Number      Type              X           Y           Z
 ---------------------------------------------------------------------
    1          8             0        1.613239    1.039993    0.006291
    2          8             0       -2.874902    1.416055   -0.002549
    3         20             0       -0.726112    1.519099    0.004661
    4         20             0       -3.075849   -0.693925   -0.005479
    5         15             0        3.170759    0.866975   -0.005979
    6          8             0        3.411141   -0.653194   -0.007979
    7          8             0       -0.819758   -0.879161   -0.776209
    8          8             0       -0.824098   -0.881061    0.779321
    9         20             0        1.221643   -1.492458    0.005751
 ---------------------------------------------------------------------
 Rotational constants (GHZ):      1.5594222      0.4315544      0.3469979
 Standard basis: 6-31+G(d,p) (6D, 7F)
 There are   199 symmetry adapted basis functions of A   symmetry.
 Integral buffers will be    131072 words long.
 Raffenetti 2 integral format.
 Two-electron integral symmetry is turned on.
   199 basis functions,   456 primitive gaussians,   199 cartesian basis functions
    57 alpha electrons       57 beta electrons
       nuclear repulsion energy       978.3439367165 Hartrees.
 NAtoms=    9 NActive=    9 NUniq=    9 SFac= 7.50D-01 NAtFMM=   80 NAOKFM=F Big=F
 One-electron integrals computed using PRISM.
 NBasis=   199 RedAO= T  NBF=   199
 NBsUse=   199 1.00D-06 NBFU=   199
 Harris functional with IExCor=  402 diagonalized for initial guess.
 ExpMin= 7.10D-03 ExpMax= 3.53D+04 ExpMxC= 5.30D+03 IAcc=3 IRadAn=         5 AccDes= 0.00D+00
 HarFok:  IExCor= 402 AccDes= 0.00D+00 IRadAn=         5 IDoV=1
 ScaDFX=  1.000000  1.000000  1.000000  1.000000
 Initial guess orbital symmetries:
       Occupied  (A) (A) (A) (A) (A) (A) (A) (A) (A) (A) (A) (A)
                 (A) (A) (A) (A) (A) (A) (A) (A) (A) (A) (A) (A)
                 (A) (A) (A) (A) (A) (A) (A) (A) (A) (A) (A) (A)
                 (A) (A) (A) (A) (A) (A) (A) (A) (A) (A) (A) (A)
                 (A) (A) (A) (A) (A) (A) (A) (A) (A)
       Virtual   (A) (A) (A) (A) (A) (A) (A) (A) (A) (A) (A) (A)
                 (A) (A) (A) (A) (A) (A) (A) (A) (A) (A) (A) (A)
                 (A) (A) (A) (A) (A) (A) (A) (A) (A) (A) (A) (A)
                 (A) (A) (A) (A) (A) (A) (A) (A) (A) (A) (A) (A)
                 (A) (A) (A) (A) (A) (A) (A) (A) (A) (A) (A) (A)
                 (A) (A) (A) (A) (A) (A) (A) (A) (A) (A) (A) (A)
                 (A) (A) (A) (A) (A) (A) (A) (A) (A) (A) (A) (A)
                 (A) (A) (A) (A) (A) (A) (A) (A) (A) (A) (A) (A)
                 (A) (A) (A) (A) (A) (A) (A) (A) (A) (A) (A) (A)
                 (A) (A) (A) (A) (A) (A) (A) (A) (A) (A) (A) (A)
                 (A) (A) (A) (A) (A) (A) (A) (A) (A) (A) (A) (A)
                 (A) (A) (A) (A) (A) (A) (A) (A) (A) (A)
 The electronic state of the initial guess is 1-A.
 Requested convergence on RMS density matrix=1.00D-04 within 128 cycles.
 Requested convergence on MAX density matrix=1.00D-02.
 Requested convergence on             energy=1.00D-02.
 No special actions if energy rises.
 EnCoef did     3 forward-backward iterations
 SCF Done:  E(RB+HF-LYP) =  -2750.19922675     A.U. after    8 cycles
             Convg  =    0.8780D-04             -V/T =  2.0029
             S**2   =   0.0000

 **********************************************************************

            Population analysis using the SCF density.

 **********************************************************************

 Orbital symmetries:
       Occupied  (A) (A) (A) (A) (A) (A) (A) (A) (A) (A) (A) (A)
                 (A) (A) (A) (A) (A) (A) (A) (A) (A) (A) (A) (A)
                 (A) (A) (A) (A) (A) (A) (A) (A) (A) (A) (A) (A)
                 (A) (A) (A) (A) (A) (A) (A) (A) (A) (A) (A) (A)
                 (A) (A) (A) (A) (A) (A) (A) (A) (A)
       Virtual   (A) (A) (A) (A) (A) (A) (A) (A) (A) (A) (A) (A)
                 (A) (A) (A) (A) (A) (A) (A) (A) (A) (A) (A) (A)
                 (A) (A) (A) (A) (A) (A) (A) (A) (A) (A) (A) (A)
                 (A) (A) (A) (A) (A) (A) (A) (A) (A) (A) (A) (A)
                 (A) (A) (A) (A) (A) (A) (A) (A) (A) (A) (A) (A)
                 (A) (A) (A) (A) (A) (A) (A) (A) (A) (A) (A) (A)
                 (A) (A) (A) (A) (A) (A) (A) (A) (A) (A) (A) (A)
                 (A) (A) (A) (A) (A) (A) (A) (A) (A) (A) (A) (A)
                 (A) (A) (A) (A) (A) (A) (A) (A) (A) (A) (A) (A)
                 (A) (A) (A) (A) (A) (A) (A) (A) (A) (A) (A) (A)
                 (A) (A) (A) (A) (A) (A) (A) (A) (A) (A) (A) (A)
                 (A) (A) (A) (A) (A) (A) (A) (A) (A) (A)
 The electronic state is 1-A.
 Alpha  occ. eigenvalues -- -145.53301-145.48098-145.46505 -77.31647 -19.29956
 Alpha  occ. eigenvalues --  -19.29136 -19.27656 -19.27649 -19.10311 -15.60146
 Alpha  occ. eigenvalues --  -15.54935 -15.53364 -12.73382 -12.73377 -12.73212
 Alpha  occ. eigenvalues --  -12.68154 -12.68118 -12.68039 -12.66618 -12.66582
 Alpha  occ. eigenvalues --  -12.66413  -6.77271  -4.93704  -4.93471  -4.93054
 Alpha  occ. eigenvalues --   -1.97331  -1.92133  -1.90673  -1.25313  -1.25143
 Alpha  occ. eigenvalues --   -1.25003  -1.20356  -1.19788  -1.19238  -1.18534
 Alpha  occ. eigenvalues --   -1.18455  -1.17872  -1.15551  -1.10912  -1.09761
 Alpha  occ. eigenvalues --   -0.91288  -0.84520  -0.68929  -0.57895  -0.55270
 Alpha  occ. eigenvalues --   -0.54480  -0.51223  -0.50447  -0.49463  -0.46898
 Alpha  occ. eigenvalues --   -0.45451  -0.42701  -0.38846  -0.36713  -0.30147
 Alpha  occ. eigenvalues --   -0.28563  -0.28510
 Alpha virt. eigenvalues --   -0.21598  -0.19564  -0.17909  -0.15031  -0.15008
 Alpha virt. eigenvalues --   -0.11255  -0.10530  -0.09853  -0.09286  -0.08794
 Alpha virt. eigenvalues --   -0.08675  -0.08136  -0.07318  -0.06844  -0.06403
 Alpha virt. eigenvalues --   -0.05270  -0.05160  -0.04774  -0.04393  -0.04325
 Alpha virt. eigenvalues --   -0.04067  -0.03928  -0.03833  -0.03754  -0.03164
 Alpha virt. eigenvalues --   -0.02886  -0.02820  -0.02756  -0.02036  -0.00680
 Alpha virt. eigenvalues --    0.01192   0.02369   0.03017   0.03129   0.03557
 Alpha virt. eigenvalues --    0.04613   0.04770   0.05246   0.05722   0.05974
 Alpha virt. eigenvalues --    0.06045   0.07071   0.07152   0.08137   0.08649
 Alpha virt. eigenvalues --    0.09108   0.09288   0.10066   0.10523   0.11194
 Alpha virt. eigenvalues --    0.12830   0.12887   0.14779   0.14997   0.16232
 Alpha virt. eigenvalues --    0.16454   0.16528   0.17567   0.18107   0.20915
 Alpha virt. eigenvalues --    0.21382   0.22314   0.22844   0.23440   0.24457
 Alpha virt. eigenvalues --    0.26191   0.28128   0.28794   0.29845   0.31215
 Alpha virt. eigenvalues --    0.31305   0.33452   0.35769   0.37587   0.39305
 Alpha virt. eigenvalues --    0.42548   0.43239   0.45401   0.47290   0.47384
 Alpha virt. eigenvalues --    0.51488   0.53833   0.56495   0.60325   0.61231
 Alpha virt. eigenvalues --    0.63757   0.84707   0.89743   0.94114   0.99249
 Alpha virt. eigenvalues --    1.04397   1.06950   1.08626   1.10106   1.11259
 Alpha virt. eigenvalues --    1.11294   1.14317   1.15319   1.17568   1.19314
 Alpha virt. eigenvalues --    1.19828   1.21075   1.24063   1.29919   1.34426
 Alpha virt. eigenvalues --    1.35819   1.41116   1.46716   1.47085   1.53209
 Alpha virt. eigenvalues --    1.54224   1.60408   1.65374   1.66155   1.66533
 Alpha virt. eigenvalues --    1.69484   1.73063   1.74286   1.76450   1.78986
 Alpha virt. eigenvalues --    1.82216   1.83840   1.84146   1.86192   1.87443
 Alpha virt. eigenvalues --    1.89437   1.92632   1.95942   2.01020   2.04344
 Alpha virt. eigenvalues --    2.16477   2.17790   2.17902   2.50709   2.67351
 Alpha virt. eigenvalues --    3.00528   3.38857   3.87254   3.89010   4.00826
 Alpha virt. eigenvalues --    4.08746   4.08984
          Condensed to atoms (all electrons):
              1          2          3          4          5          6
     1  O    8.921214  -0.005213   0.034080   0.005512  -0.159553  -0.074584
     2  O   -0.005213   8.679369   0.224571   0.224113  -0.001398   0.000000
     3  Ca   0.034080   0.224571  18.364586  -0.027420  -0.006701   0.003491
     4  Ca   0.005512   0.224113  -0.027420  18.361409  -0.012398   0.001050
     5  P   -0.159553  -0.001398  -0.006701  -0.012398  14.414950   0.111444
     6  O   -0.074584   0.000000   0.003491   0.001050   0.111444   8.529367
     7  O   -0.000516   0.000574   0.027703   0.050853  -0.004219  -0.001209
     8  O   -0.000329   0.000560   0.027573   0.050873  -0.004082  -0.001299
     9  Ca   0.022382   0.001292  -0.004171  -0.016949  -0.018406   0.079124
              7          8          9
     1  O   -0.000516  -0.000329   0.022382
     2  O    0.000574   0.000560   0.001292
     3  Ca   0.027703   0.027573  -0.004171
     4  Ca   0.050853   0.050873  -0.016949
     5  P   -0.004219  -0.004082  -0.018406
     6  O   -0.001209  -0.001299   0.079124
     7  O    8.577035  -0.050485   0.094554
     8  O   -0.050485   8.576786   0.094750
     9  Ca   0.094554   0.094750  18.244149
 Mulliken atomic charges:
              1
     1  O   -0.742993
     2  O   -1.123869
     3  Ca   1.356286
     4  Ca   1.362958
     5  P    0.680363
     6  O   -0.647382
     7  O   -0.694290
     8  O   -0.694347
     9  Ca   1.503275
 Sum of Mulliken charges=   1.00000
 Atomic charges with hydrogens summed into heavy atoms:
              1
     1  O   -0.742993
     2  O   -1.123869
     3  Ca   1.356286
     4  Ca   1.362958
     5  P    0.680363
     6  O   -0.647382
     7  O   -0.694290
     8  O   -0.694347
     9  Ca   1.503275
 Sum of Mulliken charges=   1.00000
 Electronic spatial extent (au):  <R**2>=  2764.7537
 Charge=     1.0000 electrons
 Dipole moment (field-independent basis, Debye):
    X=     0.3545    Y=    -7.6375    Z=     0.0319  Tot=     7.6457
 Quadrupole moment (field-independent basis, Debye-Ang):
   XX=   -63.4201   YY=   -57.0575   ZZ=   -77.2562
   XY=    23.1645   XZ=     0.1456   YZ=     0.0052
 Traceless Quadrupole moment (field-independent basis, Debye-Ang):
   XX=     2.4911   YY=     8.8538   ZZ=   -11.3449
   XY=    23.1645   XZ=     0.1456   YZ=     0.0052
 Octapole moment (field-independent basis, Debye-Ang**2):
  XXX=  -107.7384  YYY=   -37.9949  ZZZ=     0.0833  XYY=    27.7551
  XXY=  -109.5154  XXZ=    -0.0294  XZZ=     2.9057  YZZ=    -3.4957
  YYZ=     0.2272  XYZ=    -0.4134
 Hexadecapole moment (field-independent basis, Debye-Ang**3):
 XXXX= -2335.2859 YYYY=  -569.7022 ZZZZ=  -129.5891 XXXY=   483.8062
 XXXZ=     2.0345 YYYX=     2.8910 YYYZ=     0.0953 ZZZX=     0.3273
 ZZZY=     0.0723 XXYY=  -576.0516 XXZZ=  -421.9645 YYZZ=  -130.0681
 XXYZ=     0.1870 YYXZ=     0.2211 ZZXY=     6.1395
 N-N= 9.783439367165D+02 E-N=-8.456686612833D+03  KE= 2.742194600224D+03
 Merz-Kollman atomic radii used.
 Read replacement radii for each type of atom:
 Rad(20) =   1.188000000000D+00
 Atom Element Radius
    1     8    1.40
    2     8    1.40
    3    20    1.19
    4    20    1.19
    5    15    1.80
    6     8    1.40
    7     8    1.40
    8     8    1.40
    9    20    1.19

 **********************************************************************

            Electrostatic Properties Using The SCF Density

 **********************************************************************

       Atomic Center    1 is at   1.613239  1.039993  0.006291
       Atomic Center    2 is at  -2.874902  1.416055 -0.002549
       Atomic Center    3 is at  -0.726112  1.519099  0.004661
       Atomic Center    4 is at  -3.075849 -0.693925 -0.005479
       Atomic Center    5 is at   3.170759  0.866975 -0.005979
       Atomic Center    6 is at   3.411141 -0.653194 -0.007979
       Atomic Center    7 is at  -0.819758 -0.879161 -0.776209
       Atomic Center    8 is at  -0.824098 -0.881061  0.779321
       Atomic Center    9 is at   1.221643 -1.492458  0.005751
     877 points will be used for fitting atomic charges
 Fitting point charges to eletrostatic potential
 Charges from ESP fit, RMS=   0.00499 RRMS=   0.03333:
 Charge=   1.00000 Dipole=     0.0785    -7.7045     0.0284 Tot=     7.7050
              1
     1  O   -0.763620
     2  O   -1.478165
     3  Ca   1.666036
     4  Ca   1.631184
     5  P    0.597040
     6  O   -0.647963
     7  O   -0.867719
     8  O   -0.868656
     9  Ca   1.731863
 -----------------------------------------------------------------

              Electrostatic Properties (Atomic Units)

 -----------------------------------------------------------------
    Center     Electric         -------- Electric Field --------
               Potential          X             Y             Z
 -----------------------------------------------------------------
    1 Atom    -22.165632
    2 Atom    -22.360313
    3 Atom    -80.075521
    4 Atom    -80.060513
    5 Atom    -53.900346
    6 Atom    -22.175288
    7 Atom    -22.188400
    8 Atom    -22.188355
    9 Atom    -80.007446
 -----------------------------------------------------------------
 1\1\GINC-N025\SP\RB3LYP\6-31+G(d,p)\Ca3O5P1(1+)\TIMN\12-Jun-2015\0\\# 
 b3lyp/6-31+G(d,p) int=ultrafine pop=(ReadRadii,MK)\\mol_17.23.8.pdbc_p
 lusQ.z58263.zip.xyz\\1,1\O,0,1.61324,1.03999,0.00629\O,0,-2.8749,1.416
 06,-0.00255\Ca,0,-0.72611,1.5191,0.00466\Ca,0,-3.07585,-0.69392,-0.005
 48\P,0,3.17076,0.86697,-0.00598\O,0,3.41114,-0.6532,-0.00798\O,0,-0.81
 976,-0.87916,-0.77621\O,0,-0.8241,-0.88106,0.77932\Ca,0,1.22164,-1.492
 46,0.00575\\Version=EM64T-G03RevE.01\State=1-A\HF=-2750.1992267\RMSD=8
 .780e-05\Thermal=0.\Dipole=0.1394592,-3.0048081,0.0125355\PG=C01 [X(Ca
 3O5P1)]\\@


 ADVERTISING--  HE WHO HAS SOMETHING TO SELL AND GOES AND WHISPERS
                IN A WELL, IS NOT SO APT TO GET THE DOLLARS AS HE
                WHO CLIMBS A TREE AND HOLLERS.

                   -- FROM THE BACK OF A SUGAR PACKET
 Job cpu time:  0 days  0 hours  1 minutes 56.0 seconds.
 File lengths (MBytes):  RWF=     36 Int=      0 D2E=      0 Chk=     11 Scr=      1
 Normal termination of Gaussian 03 at Fri Jun 12 17:54:26 2015.
