 Entering Gaussian System, Link 0=/home/timn/tmp/g03.e01/g03
 Input=mol_16.4.35.pdbc_plusQc.out.z51585.zip.xyz.gjf
 Output=mol_16.4.35.pdbc_plusQc.out.z51585.zip.xyz.out
 Initial command:
 /home/timn/tmp/g03.e01/l1.exe /home/timn/tmp/g03.e01/Gau-12452.inp -scrdir=/home/timn/tmp/g03.e01/
 Default is to use a total of   2 processors:
                                2 via shared-memory
                                1 via Linda
 Entering Link 1 = /home/timn/tmp/g03.e01/l1.exe PID=     12455.
  
 Copyright (c) 1988,1990,1992,1993,1995,1998,2003,2004,2007, Gaussian, Inc.
                  All Rights Reserved.
  
 This is the Gaussian(R) 03 program.  It is based on the
 the Gaussian(R) 98 system (copyright 1998, Gaussian, Inc.),
 the Gaussian(R) 94 system (copyright 1995, Gaussian, Inc.),
 the Gaussian 92(TM) system (copyright 1992, Gaussian, Inc.),
 the Gaussian 90(TM) system (copyright 1990, Gaussian, Inc.),
 the Gaussian 88(TM) system (copyright 1988, Gaussian, Inc.),
 the Gaussian 86(TM) system (copyright 1986, Carnegie Mellon
 University), and the Gaussian 82(TM) system (copyright 1983,
 Carnegie Mellon University). Gaussian is a federally registered
 trademark of Gaussian, Inc.
  
 This software contains proprietary and confidential information,
 including trade secrets, belonging to Gaussian, Inc.
  
 This software is provided under written license and may be
 used, copied, transmitted, or stored only in accord with that
 written license.
  
 The following legend is applicable only to US Government
 contracts under FAR:
  
                    RESTRICTED RIGHTS LEGEND
  
 Use, reproduction and disclosure by the US Government is
 subject to restrictions as set forth in subparagraphs (a)
 and (c) of the Commercial Computer Software - Restricted
 Rights clause in FAR 52.227-19.
  
 Gaussian, Inc.
 340 Quinnipiac St., Bldg. 40, Wallingford CT 06492
  
  
 ---------------------------------------------------------------
 Warning -- This program may not be used in any manner that
 competes with the business of Gaussian, Inc. or will provide
 assistance to any competitor of Gaussian, Inc.  The licensee
 of this program is prohibited from giving any competitor of
 Gaussian, Inc. access to this program.  By using this program,
 the user acknowledges that Gaussian, Inc. is engaged in the
 business of creating and licensing software in the field of
 computational chemistry and represents and warrants to the
 licensee that it is not a competitor of Gaussian, Inc. and that
 it will not use this program in any manner prohibited above.
 ---------------------------------------------------------------
  

 Cite this work as:
 Gaussian 03, Revision E.01,
 M. J. Frisch, G. W. Trucks, H. B. Schlegel, G. E. Scuseria, 
 M. A. Robb, J. R. Cheeseman, J. A. Montgomery, Jr., T. Vreven, 
 K. N. Kudin, J. C. Burant, J. M. Millam, S. S. Iyengar, J. Tomasi, 
 V. Barone, B. Mennucci, M. Cossi, G. Scalmani, N. Rega, 
 G. A. Petersson, H. Nakatsuji, M. Hada, M. Ehara, K. Toyota, 
 R. Fukuda, J. Hasegawa, M. Ishida, T. Nakajima, Y. Honda, O. Kitao, 
 H. Nakai, M. Klene, X. Li, J. E. Knox, H. P. Hratchian, J. B. Cross, 
 V. Bakken, C. Adamo, J. Jaramillo, R. Gomperts, R. E. Stratmann, 
 O. Yazyev, A. J. Austin, R. Cammi, C. Pomelli, J. W. Ochterski, 
 P. Y. Ayala, K. Morokuma, G. A. Voth, P. Salvador, J. J. Dannenberg, 
 V. G. Zakrzewski, S. Dapprich, A. D. Daniels, M. C. Strain, 
 O. Farkas, D. K. Malick, A. D. Rabuck, K. Raghavachari, 
 J. B. Foresman, J. V. Ortiz, Q. Cui, A. G. Baboul, S. Clifford, 
 J. Cioslowski, B. B. Stefanov, G. Liu, A. Liashenko, P. Piskorz, 
 I. Komaromi, R. L. Martin, D. J. Fox, T. Keith, M. A. Al-Laham, 
 C. Y. Peng, A. Nanayakkara, M. Challacombe, P. M. W. Gill, 
 B. Johnson, W. Chen, M. W. Wong, C. Gonzalez, and J. A. Pople, 
 Gaussian, Inc., Wallingford CT, 2004.
 
 ******************************************
 Gaussian 03:  EM64T-G03RevE.01 11-Sep-2007
                12-Jun-2015 
 ******************************************
 %nproc=2
 Will use up to    2 processors via shared memory.
 Default route:  MP2=Direct MaxDisk=2000MB
 ----------------------------------------------------
 # b3lyp/6-31+G(d,p) int=ultrafine pop=(ReadRadii,MK)
 ----------------------------------------------------

 Warning!  SCF SP cutoffs with diffuse functions may be unreliable.
 Consider SCF=Tight

 1/38=1/1;
 2/17=6,18=5,40=1/2;
 3/5=1,6=6,7=111,11=2,16=1,25=1,30=1,74=-5,75=5/1,2,3;
 4//1;
 5/5=2,32=1,38=5/2;
 6/7=2,8=2,9=2,10=2,15=8,20=101,28=1/1,2;
 99/5=1,9=1/99;
 ------------------------------------------
 mol_16.4.35.pdbc_plusQc.out.z51585.zip.xyz
 ------------------------------------------
 Symbolic Z-matrix:
 Charge =  1 Multiplicity = 1
 O                     0.16779  -0.33255   1.30653 
 O                    -3.54624   1.37007  -0.1243 
 O                    -4.12578   0.17663  -0.05874 
 Ca                   -1.84669  -0.18721   0.0026 
 O                     0.16812  -0.85378  -1.13675 
 P                     1.04183  -0.80991   0.13094 
 Ca                    3.99977   0.65049  -0.09551 
 
                          Input orientation:                          
 ---------------------------------------------------------------------
 Center     Atomic     Atomic              Coordinates (Angstroms)
 Number     Number      Type              X           Y           Z
 ---------------------------------------------------------------------
    1          8             0        0.167790   -0.332550    1.306530
    2          8             0       -3.546240    1.370070   -0.124300
    3          8             0       -4.125780    0.176630   -0.058740
    4         20             0       -1.846690   -0.187210    0.002600
    5          8             0        0.168120   -0.853780   -1.136750
    6         15             0        1.041830   -0.809910    0.130940
    7         20             0        3.999770    0.650490   -0.095510
 ---------------------------------------------------------------------
                    Distance matrix (angstroms):
                    1          2          3          4          5
     1  O    0.000000
     2  O    4.328996   0.000000
     3  O    4.534090   1.328331   0.000000
     4  Ca   2.404056   2.308613   2.308764   0.000000
     5  O    2.498259   4.446013   4.545484   2.408712   0.000000
     6  P    1.540724   5.086044   5.264355   2.957664   1.540238
     7  Ca   4.197160   7.580296   8.139438   5.906984   4.246004
                    6          7
     6  P    0.000000
     7  Ca   3.306578   0.000000
 Stoichiometry    Ca2O4P(1+)
 Framework group  C1[X(Ca2O4P)]
 Deg. of freedom    15
 Full point group                 C1
 Largest Abelian subgroup         C1      NOp   1
 Largest concise Abelian subgroup C1      NOp   1
                         Standard orientation:                         
 ---------------------------------------------------------------------
 Center     Atomic     Atomic              Coordinates (Angstroms)
 Number     Number      Type              X           Y           Z
 ---------------------------------------------------------------------
    1          8             0        0.167788   -0.332549    1.306532
    2          8             0       -3.546241    1.370073   -0.124298
    3          8             0       -4.125782    0.176634   -0.058738
    4         20             0       -1.846692   -0.187208    0.002602
    5          8             0        0.168117   -0.853779   -1.136748
    6         15             0        1.041828   -0.809910    0.130942
    7         20             0        3.999768    0.650488   -0.095508
 ---------------------------------------------------------------------
 Rotational constants (GHZ):      3.8360475      0.3792106      0.3699380
 Standard basis: 6-31+G(d,p) (6D, 7F)
 There are   153 symmetry adapted basis functions of A   symmetry.
 Integral buffers will be    131072 words long.
 Raffenetti 2 integral format.
 Two-electron integral symmetry is turned on.
   153 basis functions,   344 primitive gaussians,   153 cartesian basis functions
    43 alpha electrons       43 beta electrons
       nuclear repulsion energy       519.3281259772 Hartrees.
 NAtoms=    7 NActive=    7 NUniq=    7 SFac= 7.50D-01 NAtFMM=   80 NAOKFM=F Big=F
 One-electron integrals computed using PRISM.
 NBasis=   153 RedAO= T  NBF=   153
 NBsUse=   153 1.00D-06 NBFU=   153
 Harris functional with IExCor=  402 diagonalized for initial guess.
 ExpMin= 7.10D-03 ExpMax= 3.53D+04 ExpMxC= 5.30D+03 IAcc=3 IRadAn=         5 AccDes= 0.00D+00
 HarFok:  IExCor= 402 AccDes= 0.00D+00 IRadAn=         5 IDoV=1
 ScaDFX=  1.000000  1.000000  1.000000  1.000000
 Initial guess orbital symmetries:
       Occupied  (A) (A) (A) (A) (A) (A) (A) (A) (A) (A) (A) (A)
                 (A) (A) (A) (A) (A) (A) (A) (A) (A) (A) (A) (A)
                 (A) (A) (A) (A) (A) (A) (A) (A) (A) (A) (A) (A)
                 (A) (A) (A) (A) (A) (A) (A)
       Virtual   (A) (A) (A) (A) (A) (A) (A) (A) (A) (A) (A) (A)
                 (A) (A) (A) (A) (A) (A) (A) (A) (A) (A) (A) (A)
                 (A) (A) (A) (A) (A) (A) (A) (A) (A) (A) (A) (A)
                 (A) (A) (A) (A) (A) (A) (A) (A) (A) (A) (A) (A)
                 (A) (A) (A) (A) (A) (A) (A) (A) (A) (A) (A) (A)
                 (A) (A) (A) (A) (A) (A) (A) (A) (A) (A) (A) (A)
                 (A) (A) (A) (A) (A) (A) (A) (A) (A) (A) (A) (A)
                 (A) (A) (A) (A) (A) (A) (A) (A) (A) (A) (A) (A)
                 (A) (A) (A) (A) (A) (A) (A) (A) (A) (A) (A) (A)
                 (A) (A)
 The electronic state of the initial guess is 1-A.
 Requested convergence on RMS density matrix=1.00D-04 within 128 cycles.
 Requested convergence on MAX density matrix=1.00D-02.
 Requested convergence on             energy=1.00D-02.
 No special actions if energy rises.
 EnCoef did     7 forward-backward iterations
 EnCoef did     7 forward-backward iterations
 EnCoef did     8 forward-backward iterations
 EnCoef did    22 forward-backward iterations
 EnCoef did    54 forward-backward iterations
 Rare condition: small coef for last iteration:  0.000D+00
 SCF Done:  E(RB+HF-LYP) =  -1997.15137876     A.U. after   18 cycles
             Convg  =    0.2765D-04             -V/T =  2.0030
             S**2   =   0.0000

 **********************************************************************

            Population analysis using the SCF density.

 **********************************************************************

 Orbital symmetries:
       Occupied  (A) (A) (A) (A) (A) (A) (A) (A) (A) (A) (A) (A)
                 (A) (A) (A) (A) (A) (A) (A) (A) (A) (A) (A) (A)
                 (A) (A) (A) (A) (A) (A) (A) (A) (A) (A) (A) (A)
                 (A) (A) (A) (A) (A) (A) (A)
       Virtual   (A) (A) (A) (A) (A) (A) (A) (A) (A) (A) (A) (A)
                 (A) (A) (A) (A) (A) (A) (A) (A) (A) (A) (A) (A)
                 (A) (A) (A) (A) (A) (A) (A) (A) (A) (A) (A) (A)
                 (A) (A) (A) (A) (A) (A) (A) (A) (A) (A) (A) (A)
                 (A) (A) (A) (A) (A) (A) (A) (A) (A) (A) (A) (A)
                 (A) (A) (A) (A) (A) (A) (A) (A) (A) (A) (A) (A)
                 (A) (A) (A) (A) (A) (A) (A) (A) (A) (A) (A) (A)
                 (A) (A) (A) (A) (A) (A) (A) (A) (A) (A) (A) (A)
                 (A) (A) (A) (A) (A) (A) (A) (A) (A) (A) (A) (A)
                 (A) (A)
 The electronic state is 1-A.
 Alpha  occ. eigenvalues -- -145.60856-145.53029 -77.31651 -19.33392 -19.33355
 Alpha  occ. eigenvalues --  -19.29465 -19.29405 -15.67776 -15.59894 -12.80942
 Alpha  occ. eigenvalues --  -12.80941 -12.80917 -12.73139 -12.73118 -12.72968
 Alpha  occ. eigenvalues --   -6.77505  -4.93912  -4.93689  -4.93374  -2.04531
 Alpha  occ. eigenvalues --   -1.97039  -1.31767  -1.31758  -1.31639  -1.27700
 Alpha  occ. eigenvalues --   -1.24800  -1.24633  -1.22110  -1.15773  -1.10009
 Alpha  occ. eigenvalues --   -0.88584  -0.68312  -0.57089  -0.56630  -0.55864
 Alpha  occ. eigenvalues --   -0.54642  -0.54248  -0.53966  -0.46396  -0.45096
 Alpha  occ. eigenvalues --   -0.44338  -0.35380  -0.30558
 Alpha virt. eigenvalues --   -0.29116  -0.23261  -0.18287  -0.18143  -0.16536
 Alpha virt. eigenvalues --   -0.14903  -0.11959  -0.11342  -0.10110  -0.08929
 Alpha virt. eigenvalues --   -0.08571  -0.06844  -0.05981  -0.05903  -0.05606
 Alpha virt. eigenvalues --   -0.05131  -0.04124  -0.04010  -0.03526  -0.03012
 Alpha virt. eigenvalues --   -0.01659  -0.01359  -0.01015  -0.00606  -0.00101
 Alpha virt. eigenvalues --   -0.00031   0.00663   0.00890   0.01642   0.01712
 Alpha virt. eigenvalues --    0.02540   0.02822   0.03017   0.04100   0.04552
 Alpha virt. eigenvalues --    0.05954   0.06137   0.07646   0.08442   0.10510
 Alpha virt. eigenvalues --    0.10746   0.11602   0.13277   0.13733   0.14206
 Alpha virt. eigenvalues --    0.15092   0.15564   0.15833   0.16798   0.18292
 Alpha virt. eigenvalues --    0.19991   0.21188   0.23276   0.25595   0.28590
 Alpha virt. eigenvalues --    0.30069   0.30851   0.31619   0.34705   0.38631
 Alpha virt. eigenvalues --    0.42686   0.44208   0.46608   0.52891   0.54713
 Alpha virt. eigenvalues --    0.60270   0.76562   0.85504   0.91710   1.01069
 Alpha virt. eigenvalues --    1.02490   1.03707   1.06540   1.06987   1.08708
 Alpha virt. eigenvalues --    1.11694   1.13272   1.14354   1.16631   1.17179
 Alpha virt. eigenvalues --    1.26039   1.33541   1.36818   1.41221   1.41873
 Alpha virt. eigenvalues --    1.47412   1.53254   1.59261   1.64656   1.67733
 Alpha virt. eigenvalues --    1.70258   1.76567   1.81559   1.83687   1.84782
 Alpha virt. eigenvalues --    1.86641   1.87909   1.88645   2.09125   2.14601
 Alpha virt. eigenvalues --    2.38035   2.40425   2.56897   2.68027   2.97152
 Alpha virt. eigenvalues --    3.34915   3.82235   3.86296   3.93284   4.04646
          Condensed to atoms (all electrons):
              1          2          3          4          5          6
     1  O    8.618444   0.001248  -0.000673   0.049444  -0.115965   0.042585
     2  O    0.001248   8.054342   0.101719   0.100394  -0.001342   0.000208
     3  O   -0.000673   0.101719   8.050288   0.099591   0.001150   0.004865
     4  Ca   0.049444   0.100394   0.099591  18.253330   0.048172  -0.001392
     5  O   -0.115965  -0.001342   0.001150   0.048172   8.610177   0.060173
     6  P    0.042585   0.000208   0.004865  -0.001392   0.060173  14.498794
     7  Ca  -0.011558   0.001113  -0.000569   0.007093  -0.014572  -0.008088
              7
     1  O   -0.011558
     2  O    0.001113
     3  O   -0.000569
     4  Ca   0.007093
     5  O   -0.014572
     6  P   -0.008088
     7  Ca  19.187434
 Mulliken atomic charges:
              1
     1  O   -0.583524
     2  O   -0.257683
     3  O   -0.256371
     4  Ca   1.443369
     5  O   -0.587793
     6  P    0.402857
     7  Ca   0.839146
 Sum of Mulliken charges=   1.00000
 Atomic charges with hydrogens summed into heavy atoms:
              1
     1  O   -0.583524
     2  O   -0.257683
     3  O   -0.256371
     4  Ca   1.443369
     5  O   -0.587793
     6  P    0.402857
     7  Ca   0.839146
 Sum of Mulliken charges=   1.00000
 Electronic spatial extent (au):  <R**2>=  2628.8013
 Charge=     1.0000 electrons
 Dipole moment (field-independent basis, Debye):
    X=    13.8596    Y=     0.1204    Z=    -0.1923  Tot=    13.8614
 Quadrupole moment (field-independent basis, Debye-Ang):
   XX=   -10.0963   YY=   -60.7576   ZZ=   -67.8869
   XY=    18.4331   XZ=    -2.0531   YZ=    -2.0041
 Traceless Quadrupole moment (field-independent basis, Debye-Ang):
   XX=    36.1506   YY=   -14.5106   ZZ=   -21.6400
   XY=    18.4331   XZ=    -2.0531   YZ=    -2.0041
 Octapole moment (field-independent basis, Debye-Ang**2):
  XXX=   324.0650  YYY=    -8.0812  ZZZ=    -2.1160  XYY=     1.7406
  XXY=     5.1082  XXZ=    -1.1882  XZZ=   -16.0194  YZZ=     4.0208
  YYZ=     2.9385  XYZ=    -1.8821
 Hexadecapole moment (field-independent basis, Debye-Ang**3):
 XXXX= -2311.9458 YYYY=  -269.7232 ZZZZ=  -210.9309 XXXY=   241.4556
 XXXZ=   -31.9687 YYYX=    15.4610 YYYZ=    -2.5413 ZZZX=     2.4948
 ZZZY=    -2.1077 XXYY=  -525.0918 XXZZ=  -493.0201 YYZZ=   -80.5467
 XXYZ=     0.6974 YYXZ=    -1.2872 ZZXY=    -2.1978
 N-N= 5.193281259772D+02 E-N=-5.755100318672D+03  KE= 1.991099502158D+03
 Merz-Kollman atomic radii used.
 Read replacement radii for each type of atom:
 Rad(20) =   1.188000000000D+00
 Atom Element Radius
    1     8    1.40
    2     8    1.40
    3     8    1.40
    4    20    1.19
    5     8    1.40
    6    15    1.80
    7    20    1.19

 **********************************************************************

            Electrostatic Properties Using The SCF Density

 **********************************************************************

       Atomic Center    1 is at   0.167788 -0.332549  1.306532
       Atomic Center    2 is at  -3.546241  1.370073 -0.124298
       Atomic Center    3 is at  -4.125782  0.176634 -0.058738
       Atomic Center    4 is at  -1.846692 -0.187208  0.002602
       Atomic Center    5 is at   0.168117 -0.853779 -1.136748
       Atomic Center    6 is at   1.041828 -0.809910  0.130942
       Atomic Center    7 is at   3.999768  0.650488 -0.095508
     822 points will be used for fitting atomic charges
 Fitting point charges to eletrostatic potential
 Charges from ESP fit, RMS=   0.01018 RRMS=   0.06525:
 Charge=   1.00000 Dipole=    16.4525     1.0462    -0.4283 Tot=    16.4913
              1
     1  O   -0.685174
     2  O   -0.365083
     3  O   -0.318445
     4  Ca   1.702016
     5  O   -0.681121
     6  P    0.406206
     7  Ca   0.941601
 -----------------------------------------------------------------

              Electrostatic Properties (Atomic Units)

 -----------------------------------------------------------------
    Center     Electric         -------- Electric Field --------
               Potential          X             Y             Z
 -----------------------------------------------------------------
    1 Atom    -22.171901
    2 Atom    -22.142962
    3 Atom    -22.143214
    4 Atom    -80.011039
    5 Atom    -22.172202
    6 Atom    -53.898579
    7 Atom    -79.935117
 -----------------------------------------------------------------
 1\1\GINC-N031\SP\RB3LYP\6-31+G(d,p)\Ca2O4P1(1+)\TIMN\12-Jun-2015\0\\# 
 b3lyp/6-31+G(d,p) int=ultrafine pop=(ReadRadii,MK)\\mol_16.4.35.pdbc_p
 lusQc.out.z51585.zip.xyz\\1,1\O,0,0.16779,-0.33255,1.30653\O,0,-3.5462
 4,1.37007,-0.1243\O,0,-4.12578,0.17663,-0.05874\Ca,0,-1.84669,-0.18721
 ,0.0026\O,0,0.16812,-0.85378,-1.13675\P,0,1.04183,-0.80991,0.13094\Ca,
 0,3.99977,0.65049,-0.09551\\Version=EM64T-G03RevE.01\State=1-A\HF=-199
 7.1513788\RMSD=2.765e-05\Thermal=0.\Dipole=5.452775,0.0473704,-0.07566
 37\PG=C01 [X(Ca2O4P1)]\\@


 BE NOT THE FIRST BY WHOM THE NEW ARE TRIED,
 NOR YET THE THE LAST TO LAY THE OLD ASIDE.

                          -- ALEXANDER POPE
 Job cpu time:  0 days  0 hours  1 minutes 42.4 seconds.
 File lengths (MBytes):  RWF=     28 Int=      0 D2E=      0 Chk=     10 Scr=      1
 Normal termination of Gaussian 03 at Fri Jun 12 17:48:53 2015.
