 Entering Gaussian System, Link 0=/home/timn/tmp/g03.e01/g03
 Input=mol_17.23.27.pdbccc_plusQ.z58228.zip.xyz.gjf
 Output=mol_17.23.27.pdbccc_plusQ.z58228.zip.xyz.out
 Initial command:
 /home/timn/tmp/g03.e01/l1.exe /home/timn/tmp/g03.e01/Gau-14321.inp -scrdir=/home/timn/tmp/g03.e01/
 Default is to use a total of   2 processors:
                                2 via shared-memory
                                1 via Linda
 Entering Link 1 = /home/timn/tmp/g03.e01/l1.exe PID=     14322.
  
 Copyright (c) 1988,1990,1992,1993,1995,1998,2003,2004,2007, Gaussian, Inc.
                  All Rights Reserved.
  
 This is the Gaussian(R) 03 program.  It is based on the
 the Gaussian(R) 98 system (copyright 1998, Gaussian, Inc.),
 the Gaussian(R) 94 system (copyright 1995, Gaussian, Inc.),
 the Gaussian 92(TM) system (copyright 1992, Gaussian, Inc.),
 the Gaussian 90(TM) system (copyright 1990, Gaussian, Inc.),
 the Gaussian 88(TM) system (copyright 1988, Gaussian, Inc.),
 the Gaussian 86(TM) system (copyright 1986, Carnegie Mellon
 University), and the Gaussian 82(TM) system (copyright 1983,
 Carnegie Mellon University). Gaussian is a federally registered
 trademark of Gaussian, Inc.
  
 This software contains proprietary and confidential information,
 including trade secrets, belonging to Gaussian, Inc.
  
 This software is provided under written license and may be
 used, copied, transmitted, or stored only in accord with that
 written license.
  
 The following legend is applicable only to US Government
 contracts under FAR:
  
                    RESTRICTED RIGHTS LEGEND
  
 Use, reproduction and disclosure by the US Government is
 subject to restrictions as set forth in subparagraphs (a)
 and (c) of the Commercial Computer Software - Restricted
 Rights clause in FAR 52.227-19.
  
 Gaussian, Inc.
 340 Quinnipiac St., Bldg. 40, Wallingford CT 06492
  
  
 ---------------------------------------------------------------
 Warning -- This program may not be used in any manner that
 competes with the business of Gaussian, Inc. or will provide
 assistance to any competitor of Gaussian, Inc.  The licensee
 of this program is prohibited from giving any competitor of
 Gaussian, Inc. access to this program.  By using this program,
 the user acknowledges that Gaussian, Inc. is engaged in the
 business of creating and licensing software in the field of
 computational chemistry and represents and warrants to the
 licensee that it is not a competitor of Gaussian, Inc. and that
 it will not use this program in any manner prohibited above.
 ---------------------------------------------------------------
  

 Cite this work as:
 Gaussian 03, Revision E.01,
 M. J. Frisch, G. W. Trucks, H. B. Schlegel, G. E. Scuseria, 
 M. A. Robb, J. R. Cheeseman, J. A. Montgomery, Jr., T. Vreven, 
 K. N. Kudin, J. C. Burant, J. M. Millam, S. S. Iyengar, J. Tomasi, 
 V. Barone, B. Mennucci, M. Cossi, G. Scalmani, N. Rega, 
 G. A. Petersson, H. Nakatsuji, M. Hada, M. Ehara, K. Toyota, 
 R. Fukuda, J. Hasegawa, M. Ishida, T. Nakajima, Y. Honda, O. Kitao, 
 H. Nakai, M. Klene, X. Li, J. E. Knox, H. P. Hratchian, J. B. Cross, 
 V. Bakken, C. Adamo, J. Jaramillo, R. Gomperts, R. E. Stratmann, 
 O. Yazyev, A. J. Austin, R. Cammi, C. Pomelli, J. W. Ochterski, 
 P. Y. Ayala, K. Morokuma, G. A. Voth, P. Salvador, J. J. Dannenberg, 
 V. G. Zakrzewski, S. Dapprich, A. D. Daniels, M. C. Strain, 
 O. Farkas, D. K. Malick, A. D. Rabuck, K. Raghavachari, 
 J. B. Foresman, J. V. Ortiz, Q. Cui, A. G. Baboul, S. Clifford, 
 J. Cioslowski, B. B. Stefanov, G. Liu, A. Liashenko, P. Piskorz, 
 I. Komaromi, R. L. Martin, D. J. Fox, T. Keith, M. A. Al-Laham, 
 C. Y. Peng, A. Nanayakkara, M. Challacombe, P. M. W. Gill, 
 B. Johnson, W. Chen, M. W. Wong, C. Gonzalez, and J. A. Pople, 
 Gaussian, Inc., Wallingford CT, 2004.
 
 ******************************************
 Gaussian 03:  EM64T-G03RevE.01 11-Sep-2007
                12-Jun-2015 
 ******************************************
 %nproc=2
 Will use up to    2 processors via shared memory.
 Default route:  MP2=Direct MaxDisk=2000MB
 ----------------------------------------------------
 # b3lyp/6-31+G(d,p) int=ultrafine pop=(ReadRadii,MK)
 ----------------------------------------------------

 Warning!  SCF SP cutoffs with diffuse functions may be unreliable.
 Consider SCF=Tight

 1/38=1/1;
 2/17=6,18=5,40=1/2;
 3/5=1,6=6,7=111,11=2,16=1,25=1,30=1,74=-5,75=5/1,2,3;
 4//1;
 5/5=2,32=1,38=5/2;
 6/7=2,8=2,9=2,10=2,15=8,20=101,28=1/1,2;
 99/5=1,9=1/99;
 ----------------------------------------
 mol_17.23.27.pdbccc_plusQ.z58228.zip.xyz
 ----------------------------------------
 Symbolic Z-matrix:
 Charge =  1 Multiplicity = 1
 Ca                   -3.05548  -0.48347   0. 
 O                    -2.43258   1.6796    0. 
 P                     0.        1.34032   0. 
 O                    -1.18456   2.43032   0. 
 O                     1.34078   2.08016   0. 
 Ca                    3.21838   0.71912   0. 
 O                     2.24113  -1.13964   0. 
 Ca                    0.49882  -2.44685   0. 
 O                    -1.61907  -2.03552   0. 
 
                          Input orientation:                          
 ---------------------------------------------------------------------
 Center     Atomic     Atomic              Coordinates (Angstroms)
 Number     Number      Type              X           Y           Z
 ---------------------------------------------------------------------
    1         20             0       -3.055480   -0.483470    0.000000
    2          8             0       -2.432580    1.679600    0.000000
    3         15             0        0.000000    1.340320    0.000000
    4          8             0       -1.184560    2.430320    0.000000
    5          8             0        1.340780    2.080160    0.000000
    6         20             0        3.218380    0.719120    0.000000
    7          8             0        2.241130   -1.139640    0.000000
    8         20             0        0.498820   -2.446850    0.000000
    9          8             0       -1.619070   -2.035520    0.000000
 ---------------------------------------------------------------------
                    Distance matrix (angstroms):
                    1          2          3          4          5
     1  Ca   0.000000
     2  O    2.250972   0.000000
     3  P    3.558394   2.456126   0.000000
     4  O    3.462732   1.456411   1.609746   0.000000
     5  O    5.089136   3.794561   1.531357   2.549501   0.000000
     6  Ca   6.388078   5.732004   3.277783   4.723779   2.319011
     7  O    5.337100   5.458175   3.342584   4.947723   3.343313
     8  Ca   4.060531   5.061689   3.819879   5.159511   4.604641
     9  O    2.114742   3.803145   3.744020   4.486928   5.069471
                    6          7          8          9
     6  Ca   0.000000
     7  O    2.100002   0.000000
     8  Ca   4.173652   2.178174   0.000000
     9  O    5.566773   3.962795   2.157464   0.000000
 Stoichiometry    Ca3O5P(1+)
 Framework group  CS[SG(Ca3O5P)]
 Deg. of freedom    15
 Full point group                 CS
 Largest Abelian subgroup         CS      NOp   2
 Largest concise Abelian subgroup C1      NOp   1
                         Standard orientation:                         
 ---------------------------------------------------------------------
 Center     Atomic     Atomic              Coordinates (Angstroms)
 Number     Number      Type              X           Y           Z
 ---------------------------------------------------------------------
    1         20             0       -3.055480   -0.483471    0.000000
    2          8             0       -2.432580    1.679599    0.000000
    3         15             0        0.000000    1.340319    0.000000
    4          8             0       -1.184560    2.430319    0.000000
    5          8             0        1.340780    2.080159    0.000000
    6         20             0        3.218380    0.719119    0.000000
    7          8             0        2.241130   -1.139641    0.000000
    8         20             0        0.498820   -2.446851    0.000000
    9          8             0       -1.619070   -2.035521    0.000000
 ---------------------------------------------------------------------
 Rotational constants (GHZ):      0.8208663      0.4722439      0.2997804
 Standard basis: 6-31+G(d,p) (6D, 7F)
 There are   147 symmetry adapted basis functions of A'  symmetry.
 There are    52 symmetry adapted basis functions of A"  symmetry.
 Integral buffers will be    131072 words long.
 Raffenetti 2 integral format.
 Two-electron integral symmetry is turned on.
   199 basis functions,   456 primitive gaussians,   199 cartesian basis functions
    57 alpha electrons       57 beta electrons
       nuclear repulsion energy       902.6155200417 Hartrees.
 NAtoms=    9 NActive=    9 NUniq=    9 SFac= 7.50D-01 NAtFMM=   80 NAOKFM=F Big=F
 One-electron integrals computed using PRISM.
 NBasis=   199 RedAO= T  NBF=   147    52
 NBsUse=   199 1.00D-06 NBFU=   147    52
 Harris functional with IExCor=  402 diagonalized for initial guess.
 ExpMin= 7.10D-03 ExpMax= 3.53D+04 ExpMxC= 5.30D+03 IAcc=3 IRadAn=         5 AccDes= 0.00D+00
 HarFok:  IExCor= 402 AccDes= 0.00D+00 IRadAn=         5 IDoV=1
 ScaDFX=  1.000000  1.000000  1.000000  1.000000
 Initial guess orbital symmetries:
       Occupied  (A') (A') (A') (A') (A') (A') (A') (A') (A') (A')
                 (A') (A') (A') (A') (A") (A') (A') (A') (A") (A')
                 (A") (A') (A') (A') (A") (A') (A') (A') (A') (A')
                 (A') (A') (A') (A') (A") (A') (A") (A") (A') (A')
                 (A') (A') (A') (A') (A') (A") (A') (A') (A') (A")
                 (A') (A") (A') (A") (A') (A') (A")
       Virtual   (A") (A') (A') (A') (A') (A") (A') (A") (A') (A')
                 (A') (A") (A') (A') (A') (A') (A') (A") (A') (A')
                 (A") (A") (A') (A') (A') (A') (A') (A') (A") (A')
                 (A') (A") (A') (A') (A") (A") (A') (A') (A') (A")
                 (A") (A') (A") (A') (A') (A') (A') (A") (A') (A")
                 (A') (A") (A') (A') (A') (A") (A') (A') (A") (A')
                 (A') (A') (A') (A") (A') (A') (A") (A') (A") (A')
                 (A') (A') (A") (A') (A') (A') (A') (A') (A') (A')
                 (A") (A') (A") (A') (A') (A') (A') (A') (A') (A')
                 (A") (A") (A") (A') (A') (A") (A') (A') (A') (A")
                 (A') (A') (A') (A') (A') (A') (A') (A') (A") (A')
                 (A') (A') (A') (A") (A") (A") (A") (A') (A") (A')
                 (A") (A') (A') (A') (A') (A") (A') (A") (A') (A')
                 (A') (A") (A') (A') (A') (A') (A') (A') (A') (A')
                 (A') (A')
 The electronic state of the initial guess is 1-A'.
 Requested convergence on RMS density matrix=1.00D-04 within 128 cycles.
 Requested convergence on MAX density matrix=1.00D-02.
 Requested convergence on             energy=1.00D-02.
 No special actions if energy rises.
 EnCoef did     5 forward-backward iterations
 EnCoef did   100 forward-backward iterations
 SCF Done:  E(RB+HF-LYP) =  -2750.06878445     A.U. after   10 cycles
             Convg  =    0.8426D-04             -V/T =  2.0029
             S**2   =   0.0000

 **********************************************************************

            Population analysis using the SCF density.

 **********************************************************************

 Orbital symmetries:
       Occupied  (A') (A') (A') (A') (A') (A') (A') (A') (A') (A')
                 (A') (A') (A") (A') (A') (A") (A') (A') (A") (A')
                 (A') (A') (A") (A') (A') (A') (A') (A') (A") (A')
                 (A') (A') (A") (A') (A') (A") (A') (A') (A') (A')
                 (A') (A') (A') (A') (A') (A") (A') (A") (A') (A')
                 (A") (A') (A') (A") (A') (A") (A')
       Virtual   (A") (A') (A') (A') (A") (A') (A') (A') (A") (A')
                 (A") (A') (A') (A') (A') (A") (A') (A') (A') (A")
                 (A") (A') (A') (A') (A') (A") (A') (A') (A') (A')
                 (A') (A') (A') (A") (A') (A") (A') (A') (A") (A')
                 (A") (A') (A") (A') (A") (A") (A') (A') (A") (A')
                 (A') (A") (A') (A") (A') (A') (A') (A") (A') (A')
                 (A') (A') (A") (A') (A') (A') (A") (A") (A') (A')
                 (A") (A') (A') (A') (A') (A') (A') (A') (A') (A')
                 (A") (A") (A') (A') (A') (A') (A') (A') (A') (A')
                 (A") (A') (A") (A') (A') (A") (A") (A') (A") (A')
                 (A') (A') (A') (A') (A') (A') (A') (A") (A') (A')
                 (A') (A') (A') (A") (A") (A') (A") (A') (A") (A")
                 (A') (A") (A') (A") (A") (A') (A') (A') (A') (A')
                 (A') (A") (A') (A') (A') (A') (A') (A') (A') (A')
                 (A') (A')
 The electronic state is 1-A'.
 Alpha  occ. eigenvalues -- -145.51757-145.48289-145.43753 -77.30407 -19.34874
 Alpha  occ. eigenvalues --  -19.28942 -19.25774 -19.13845 -19.12138 -15.58602
 Alpha  occ. eigenvalues --  -15.55179 -15.50776 -12.71850 -12.71778 -12.71684
 Alpha  occ. eigenvalues --  -12.68426 -12.68377 -12.68236 -12.64038 -12.64002
 Alpha  occ. eigenvalues --  -12.63757  -6.76152  -4.92477  -4.92395  -4.91954
 Alpha  occ. eigenvalues --   -1.95743  -1.92406  -1.88236  -1.23518  -1.23448
 Alpha  occ. eigenvalues --   -1.22595  -1.21574  -1.20228  -1.19776  -1.19118
 Alpha  occ. eigenvalues --   -1.16295  -1.16086  -1.15002  -1.12334  -0.94587
 Alpha  occ. eigenvalues --   -0.87986  -0.86087  -0.68942  -0.58242  -0.56733
 Alpha  occ. eigenvalues --   -0.54653  -0.49841  -0.48645  -0.42092  -0.37375
 Alpha  occ. eigenvalues --   -0.35439  -0.34746  -0.32152  -0.32096  -0.31832
 Alpha  occ. eigenvalues --   -0.30415  -0.30183
 Alpha virt. eigenvalues --   -0.21139  -0.20130  -0.17516  -0.14599  -0.11987
 Alpha virt. eigenvalues --   -0.11521  -0.10069  -0.09598  -0.09597  -0.08567
 Alpha virt. eigenvalues --   -0.08095  -0.07464  -0.06505  -0.05820  -0.05509
 Alpha virt. eigenvalues --   -0.04904  -0.04904  -0.04736  -0.04309  -0.04072
 Alpha virt. eigenvalues --   -0.03934  -0.03923  -0.03719  -0.03407  -0.02976
 Alpha virt. eigenvalues --   -0.02731  -0.02610  -0.02367  -0.02253   0.00336
 Alpha virt. eigenvalues --    0.01676   0.02039   0.03280   0.04022   0.04490
 Alpha virt. eigenvalues --    0.05071   0.05421   0.05736   0.06121   0.06845
 Alpha virt. eigenvalues --    0.06930   0.08385   0.08591   0.08838   0.09072
 Alpha virt. eigenvalues --    0.09248   0.09696   0.10885   0.12035   0.12208
 Alpha virt. eigenvalues --    0.13230   0.13319   0.14263   0.15509   0.15595
 Alpha virt. eigenvalues --    0.15932   0.16458   0.17684   0.17912   0.20424
 Alpha virt. eigenvalues --    0.21747   0.22343   0.24114   0.25320   0.27550
 Alpha virt. eigenvalues --    0.27669   0.28380   0.29564   0.29661   0.31057
 Alpha virt. eigenvalues --    0.31880   0.33444   0.33779   0.36137   0.38179
 Alpha virt. eigenvalues --    0.40505   0.41791   0.44969   0.49736   0.51556
 Alpha virt. eigenvalues --    0.52983   0.56270   0.56715   0.62294   0.65435
 Alpha virt. eigenvalues --    0.69997   0.76486   0.80766   0.87190   0.96331
 Alpha virt. eigenvalues --    1.04162   1.04747   1.07477   1.08821   1.11944
 Alpha virt. eigenvalues --    1.13201   1.14735   1.15088   1.16470   1.19524
 Alpha virt. eigenvalues --    1.22887   1.24778   1.24824   1.27928   1.29067
 Alpha virt. eigenvalues --    1.35329   1.40756   1.44485   1.45195   1.48359
 Alpha virt. eigenvalues --    1.52362   1.57666   1.59747   1.64833   1.70063
 Alpha virt. eigenvalues --    1.76991   1.80551   1.81173   1.82778   1.83218
 Alpha virt. eigenvalues --    1.85023   1.85409   1.86328   1.87199   1.87898
 Alpha virt. eigenvalues --    1.87900   1.89522   1.94268   1.98668   2.04812
 Alpha virt. eigenvalues --    2.06091   2.25149   2.34373   2.47628   2.66948
 Alpha virt. eigenvalues --    3.07895   3.39231   3.80570   3.93116   3.98590
 Alpha virt. eigenvalues --    4.02701   4.16584
          Condensed to atoms (all electrons):
              1          2          3          4          5          6
     1  Ca  18.281109   0.129950  -0.023256  -0.044356   0.010568   0.002018
     2  O    0.129950   8.462460   0.005707  -0.062907   0.006883  -0.000429
     3  P   -0.023256   0.005707  14.653257  -0.175312  -0.115312  -0.025795
     4  O   -0.044356  -0.062907  -0.175312   8.409915   0.060327   0.007815
     5  O    0.010568   0.006883  -0.115312   0.060327   8.687385   0.056548
     6  Ca   0.002018  -0.000429  -0.025795   0.007815   0.056548  18.268948
     7  O    0.003229   0.002101  -0.003551   0.006199  -0.010139   0.236742
     8  Ca  -0.011597   0.002448  -0.001296   0.007905   0.006188  -0.008290
     9  O    0.226184  -0.001261  -0.000368  -0.003311   0.002927   0.004128
              7          8          9
     1  Ca   0.003229  -0.011597   0.226184
     2  O    0.002101   0.002448  -0.001261
     3  P   -0.003551  -0.001296  -0.000368
     4  O    0.006199   0.007905  -0.003311
     5  O   -0.010139   0.006188   0.002927
     6  Ca   0.236742  -0.008290   0.004128
     7  O    8.859867   0.159223  -0.003730
     8  Ca   0.159223  18.272734   0.183971
     9  O   -0.003730   0.183971   8.844019
 Mulliken atomic charges:
              1
     1  Ca   1.426151
     2  O   -0.544952
     3  P    0.685925
     4  O   -0.206276
     5  O   -0.705375
     6  Ca   1.458315
     7  O   -1.249941
     8  Ca   1.388714
     9  O   -1.252560
 Sum of Mulliken charges=   1.00000
 Atomic charges with hydrogens summed into heavy atoms:
              1
     1  Ca   1.426151
     2  O   -0.544952
     3  P    0.685925
     4  O   -0.206276
     5  O   -0.705375
     6  Ca   1.458315
     7  O   -1.249941
     8  Ca   1.388714
     9  O   -1.252560
 Sum of Mulliken charges=   1.00000
 Electronic spatial extent (au):  <R**2>=  3120.8804
 Charge=     1.0000 electrons
 Dipole moment (field-independent basis, Debye):
    X=     4.9717    Y=    -2.4752    Z=     0.0000  Tot=     5.5538
 Quadrupole moment (field-independent basis, Debye-Ang):
   XX=     1.7367   YY=   -77.6743   ZZ=   -74.4127
   XY=    19.9070   XZ=     0.0000   YZ=     0.0000
 Traceless Quadrupole moment (field-independent basis, Debye-Ang):
   XX=    51.8534   YY=   -27.5575   ZZ=   -24.2959
   XY=    19.9070   XZ=     0.0000   YZ=     0.0000
 Octapole moment (field-independent basis, Debye-Ang**2):
  XXX=    30.1006  YYY=   -96.1031  ZZZ=     0.0000  XYY=    69.2670
  XXY=    52.9270  XXZ=     0.0000  XZZ=     3.6596  YZZ=    -0.3708
  YYZ=     0.0000  XYZ=     0.0000
 Hexadecapole moment (field-independent basis, Debye-Ang**3):
 XXXX=  -677.5781 YYYY= -1242.6655 ZZZZ=   -87.5814 XXXY=   395.0509
 XXXZ=     0.0000 YYYX=  -143.8459 YYYZ=     0.0000 ZZZX=     0.0000
 ZZZY=     0.0000 XXYY=  -685.9111 XXZZ=  -332.2988 YYZZ=  -233.0972
 XXYZ=     0.0000 YYXZ=     0.0000 ZZXY=    -2.7063
 N-N= 9.026155200417D+02 E-N=-8.307226845665D+03  KE= 2.742155548670D+03
 Symmetry A'   KE= 2.475741337601D+03
 Symmetry A"   KE= 2.664142110690D+02
 Merz-Kollman atomic radii used.
 Read replacement radii for each type of atom:
 Rad(20) =   1.188000000000D+00
 Atom Element Radius
    1    20    1.19
    2     8    1.40
    3    15    1.80
    4     8    1.40
    5     8    1.40
    6    20    1.19
    7     8    1.40
    8    20    1.19
    9     8    1.40

 **********************************************************************

            Electrostatic Properties Using The SCF Density

 **********************************************************************

       Atomic Center    1 is at  -3.055480 -0.483471  0.000000
       Atomic Center    2 is at  -2.432580  1.679599  0.000000
       Atomic Center    3 is at   0.000000  1.340319  0.000000
       Atomic Center    4 is at  -1.184560  2.430319  0.000000
       Atomic Center    5 is at   1.340780  2.080159  0.000000
       Atomic Center    6 is at   3.218380  0.719119  0.000000
       Atomic Center    7 is at   2.241130 -1.139641  0.000000
       Atomic Center    8 is at   0.498820 -2.446851  0.000000
       Atomic Center    9 is at  -1.619070 -2.035521  0.000000
     826 points will be used for fitting atomic charges
 Fitting point charges to eletrostatic potential
 Charges from ESP fit, RMS=   0.00514 RRMS=   0.03543:
 Charge=   1.00000 Dipole=     5.1626    -2.6347     0.0000 Tot=     5.7960
              1
     1  Ca   1.738485
     2  O   -0.800567
     3  P    0.439469
     4  O    0.094130
     5  O   -0.634543
     6  Ca   1.698229
     7  O   -1.642313
     8  Ca   1.789553
     9  O   -1.682444
 -----------------------------------------------------------------

              Electrostatic Properties (Atomic Units)

 -----------------------------------------------------------------
    Center     Electric         -------- Electric Field --------
               Potential          X             Y             Z
 -----------------------------------------------------------------
    1 Atom    -80.058081
    2 Atom    -22.204805
    3 Atom    -53.912122
    4 Atom    -22.130408
    5 Atom    -22.174636
    6 Atom    -80.023469
    7 Atom    -22.333576
    8 Atom    -80.106365
    9 Atom    -22.351026
 -----------------------------------------------------------------
 1\1\GINC-N029\SP\RB3LYP\6-31+G(d,p)\Ca3O5P1(1+)\TIMN\12-Jun-2015\0\\# 
 b3lyp/6-31+G(d,p) int=ultrafine pop=(ReadRadii,MK)\\mol_17.23.27.pdbcc
 c_plusQ.z58228.zip.xyz\\1,1\Ca,0,-3.05548,-0.48347,0.\O,0,-2.43258,1.6
 796,0.\P,0,0.,1.34032,0.\O,0,-1.18456,2.43032,0.\O,0,1.34078,2.08016,0
 .\Ca,0,3.21838,0.71912,0.\O,0,2.24113,-1.13964,0.\Ca,0,0.49882,-2.4468
 5,0.\O,0,-1.61907,-2.03552,0.\\Version=EM64T-G03RevE.01\State=1-A'\HF=
 -2750.0687845\RMSD=8.426e-05\Thermal=0.\Dipole=1.9560234,-0.9738257,0.
 \PG=CS [SG(Ca3O5P1)]\\@


 SUCCESS-- IF YOU HAVE TRIED TO DO SOMETHING AND FAILED
           YOU ARE BETTER OFF THAN IF YOU HAD TRIED TO DO
           NOTHING AND SUCCEEDED.

                   -- FROM THE BACK OF A SUGAR PACKET
 Job cpu time:  0 days  0 hours  1 minutes 46.5 seconds.
 File lengths (MBytes):  RWF=     36 Int=      0 D2E=      0 Chk=     11 Scr=      1
 Normal termination of Gaussian 03 at Fri Jun 12 17:52:30 2015.
