 Entering Gaussian System, Link 0=/home/timn/tmp/g03.e01/g03
 Input=mol_17.27.29.pdbc_plusQ.z58496.zip.xyz.gjf
 Output=mol_17.27.29.pdbc_plusQ.z58496.zip.xyz.out
 Initial command:
 /home/timn/tmp/g03.e01/l1.exe /home/timn/tmp/g03.e01/Gau-19627.inp -scrdir=/home/timn/tmp/g03.e01/
 Default is to use a total of   2 processors:
                                2 via shared-memory
                                1 via Linda
 Entering Link 1 = /home/timn/tmp/g03.e01/l1.exe PID=     19630.
  
 Copyright (c) 1988,1990,1992,1993,1995,1998,2003,2004,2007, Gaussian, Inc.
                  All Rights Reserved.
  
 This is the Gaussian(R) 03 program.  It is based on the
 the Gaussian(R) 98 system (copyright 1998, Gaussian, Inc.),
 the Gaussian(R) 94 system (copyright 1995, Gaussian, Inc.),
 the Gaussian 92(TM) system (copyright 1992, Gaussian, Inc.),
 the Gaussian 90(TM) system (copyright 1990, Gaussian, Inc.),
 the Gaussian 88(TM) system (copyright 1988, Gaussian, Inc.),
 the Gaussian 86(TM) system (copyright 1986, Carnegie Mellon
 University), and the Gaussian 82(TM) system (copyright 1983,
 Carnegie Mellon University). Gaussian is a federally registered
 trademark of Gaussian, Inc.
  
 This software contains proprietary and confidential information,
 including trade secrets, belonging to Gaussian, Inc.
  
 This software is provided under written license and may be
 used, copied, transmitted, or stored only in accord with that
 written license.
  
 The following legend is applicable only to US Government
 contracts under FAR:
  
                    RESTRICTED RIGHTS LEGEND
  
 Use, reproduction and disclosure by the US Government is
 subject to restrictions as set forth in subparagraphs (a)
 and (c) of the Commercial Computer Software - Restricted
 Rights clause in FAR 52.227-19.
  
 Gaussian, Inc.
 340 Quinnipiac St., Bldg. 40, Wallingford CT 06492
  
  
 ---------------------------------------------------------------
 Warning -- This program may not be used in any manner that
 competes with the business of Gaussian, Inc. or will provide
 assistance to any competitor of Gaussian, Inc.  The licensee
 of this program is prohibited from giving any competitor of
 Gaussian, Inc. access to this program.  By using this program,
 the user acknowledges that Gaussian, Inc. is engaged in the
 business of creating and licensing software in the field of
 computational chemistry and represents and warrants to the
 licensee that it is not a competitor of Gaussian, Inc. and that
 it will not use this program in any manner prohibited above.
 ---------------------------------------------------------------
  

 Cite this work as:
 Gaussian 03, Revision E.01,
 M. J. Frisch, G. W. Trucks, H. B. Schlegel, G. E. Scuseria, 
 M. A. Robb, J. R. Cheeseman, J. A. Montgomery, Jr., T. Vreven, 
 K. N. Kudin, J. C. Burant, J. M. Millam, S. S. Iyengar, J. Tomasi, 
 V. Barone, B. Mennucci, M. Cossi, G. Scalmani, N. Rega, 
 G. A. Petersson, H. Nakatsuji, M. Hada, M. Ehara, K. Toyota, 
 R. Fukuda, J. Hasegawa, M. Ishida, T. Nakajima, Y. Honda, O. Kitao, 
 H. Nakai, M. Klene, X. Li, J. E. Knox, H. P. Hratchian, J. B. Cross, 
 V. Bakken, C. Adamo, J. Jaramillo, R. Gomperts, R. E. Stratmann, 
 O. Yazyev, A. J. Austin, R. Cammi, C. Pomelli, J. W. Ochterski, 
 P. Y. Ayala, K. Morokuma, G. A. Voth, P. Salvador, J. J. Dannenberg, 
 V. G. Zakrzewski, S. Dapprich, A. D. Daniels, M. C. Strain, 
 O. Farkas, D. K. Malick, A. D. Rabuck, K. Raghavachari, 
 J. B. Foresman, J. V. Ortiz, Q. Cui, A. G. Baboul, S. Clifford, 
 J. Cioslowski, B. B. Stefanov, G. Liu, A. Liashenko, P. Piskorz, 
 I. Komaromi, R. L. Martin, D. J. Fox, T. Keith, M. A. Al-Laham, 
 C. Y. Peng, A. Nanayakkara, M. Challacombe, P. M. W. Gill, 
 B. Johnson, W. Chen, M. W. Wong, C. Gonzalez, and J. A. Pople, 
 Gaussian, Inc., Wallingford CT, 2004.
 
 ******************************************
 Gaussian 03:  EM64T-G03RevE.01 11-Sep-2007
                12-Jun-2015 
 ******************************************
 %nproc=2
 Will use up to    2 processors via shared memory.
 Default route:  MP2=Direct MaxDisk=2000MB
 ----------------------------------------------------
 # b3lyp/6-31+G(d,p) int=ultrafine pop=(ReadRadii,MK)
 ----------------------------------------------------

 Warning!  SCF SP cutoffs with diffuse functions may be unreliable.
 Consider SCF=Tight

 1/38=1/1;
 2/17=6,18=5,40=1/2;
 3/5=1,6=6,7=111,11=2,16=1,25=1,30=1,74=-5,75=5/1,2,3;
 4//1;
 5/5=2,32=1,38=5/2;
 6/7=2,8=2,9=2,10=2,15=8,20=101,28=1/1,2;
 99/5=1,9=1/99;
 --------------------------------------
 mol_17.27.29.pdbc_plusQ.z58496.zip.xyz
 --------------------------------------
 Symbolic Z-matrix:
 Charge =  1 Multiplicity = 1
 O                     1.3124    0.20212   0. 
 O                    -1.30943   0.20457   0. 
 O                     0.10925  -2.80756   0. 
 O                    -0.89082  -3.94537   0. 
 Ca                   -1.96314  -2.02478   0. 
 P                     0.        0.98318   0. 
 Ca                    2.06869  -1.975     0. 
 Ca                    0.2051    4.80168   0. 
 O                     0.00195   2.49804   0. 
 
                          Input orientation:                          
 ---------------------------------------------------------------------
 Center     Atomic     Atomic              Coordinates (Angstroms)
 Number     Number      Type              X           Y           Z
 ---------------------------------------------------------------------
    1          8             0        1.312400    0.202120    0.000000
    2          8             0       -1.309430    0.204570    0.000000
    3          8             0        0.109250   -2.807560    0.000000
    4          8             0       -0.890820   -3.945370    0.000000
    5         20             0       -1.963140   -2.024780    0.000000
    6         15             0        0.000000    0.983180    0.000000
    7         20             0        2.068690   -1.975000    0.000000
    8         20             0        0.205100    4.801680    0.000000
    9          8             0        0.001950    2.498040    0.000000
 ---------------------------------------------------------------------
                    Distance matrix (angstroms):
                    1          2          3          4          5
     1  O    0.000000
     2  O    2.621831   0.000000
     3  O    3.241256   3.329501   0.000000
     4  O    4.696366   4.170999   1.514844   0.000000
     5  Ca   3.960839   2.323217   2.215298   2.199667   0.000000
     6  P    1.527236   1.523430   3.792314   5.008409   3.591900
     7  Ca   2.304740   4.020226   2.128981   3.555426   4.032137
     8  Ca   4.730969   4.840168   7.609844   8.815437   7.162529
     9  O    2.643582   2.641916   5.306685   6.504965   4.931276
                    6          7          8          9
     6  P    0.000000
     7  Ca   3.609752   0.000000
     8  Ca   3.824004   7.028254   0.000000
     9  O    1.514861   4.927423   2.312580   0.000000
 Stoichiometry    Ca3O5P(1+)
 Framework group  CS[SG(Ca3O5P)]
 Deg. of freedom    15
 Full point group                 CS
 Largest Abelian subgroup         CS      NOp   2
 Largest concise Abelian subgroup C1      NOp   1
                         Standard orientation:                         
 ---------------------------------------------------------------------
 Center     Atomic     Atomic              Coordinates (Angstroms)
 Number     Number      Type              X           Y           Z
 ---------------------------------------------------------------------
    1          8             0        1.312401    0.202121    0.000000
    2          8             0       -1.309429    0.204567    0.000000
    3          8             0        0.109257   -2.807561    0.000000
    4          8             0       -0.890811   -3.945372    0.000000
    5         20             0       -1.963135   -2.024784    0.000000
    6         15             0        0.000000    0.983179    0.000000
    7         20             0        2.068695   -1.974997    0.000000
    8         20             0        0.205093    4.801679    0.000000
    9          8             0        0.001947    2.498039    0.000000
 ---------------------------------------------------------------------
 Rotational constants (GHZ):      1.2988734      0.2883425      0.2359606
 Standard basis: 6-31+G(d,p) (6D, 7F)
 There are   147 symmetry adapted basis functions of A'  symmetry.
 There are    52 symmetry adapted basis functions of A"  symmetry.
 Integral buffers will be    131072 words long.
 Raffenetti 2 integral format.
 Two-electron integral symmetry is turned on.
   199 basis functions,   456 primitive gaussians,   199 cartesian basis functions
    57 alpha electrons       57 beta electrons
       nuclear repulsion energy       887.9044985121 Hartrees.
 NAtoms=    9 NActive=    9 NUniq=    9 SFac= 7.50D-01 NAtFMM=   80 NAOKFM=F Big=F
 One-electron integrals computed using PRISM.
 NBasis=   199 RedAO= T  NBF=   147    52
 NBsUse=   199 1.00D-06 NBFU=   147    52
 Harris functional with IExCor=  402 diagonalized for initial guess.
 ExpMin= 7.10D-03 ExpMax= 3.53D+04 ExpMxC= 5.30D+03 IAcc=3 IRadAn=         5 AccDes= 0.00D+00
 HarFok:  IExCor= 402 AccDes= 0.00D+00 IRadAn=         5 IDoV=1
 ScaDFX=  1.000000  1.000000  1.000000  1.000000
 Initial guess orbital symmetries:
       Occupied  (A') (A') (A') (A') (A') (A') (A') (A') (A') (A')
                 (A') (A') (A') (A') (A') (A') (A") (A") (A') (A')
                 (A") (A') (A') (A') (A") (A') (A') (A') (A') (A')
                 (A') (A') (A') (A") (A") (A") (A') (A') (A') (A')
                 (A') (A') (A') (A') (A') (A') (A") (A') (A") (A')
                 (A') (A") (A") (A') (A') (A") (A')
       Virtual   (A') (A') (A") (A') (A') (A") (A') (A") (A') (A")
                 (A') (A') (A') (A') (A') (A') (A") (A') (A") (A')
                 (A') (A") (A') (A') (A') (A') (A") (A') (A') (A')
                 (A") (A') (A') (A") (A') (A') (A") (A') (A') (A")
                 (A') (A") (A') (A") (A') (A') (A') (A') (A") (A')
                 (A") (A') (A") (A') (A') (A') (A") (A') (A") (A')
                 (A') (A') (A') (A') (A") (A") (A') (A') (A') (A")
                 (A') (A') (A') (A') (A') (A') (A") (A') (A') (A')
                 (A") (A") (A') (A') (A') (A') (A') (A') (A') (A")
                 (A') (A") (A") (A') (A') (A") (A') (A") (A') (A')
                 (A') (A') (A') (A') (A') (A') (A') (A") (A') (A')
                 (A') (A') (A') (A") (A") (A") (A") (A') (A') (A')
                 (A') (A") (A') (A") (A') (A') (A") (A") (A') (A')
                 (A") (A') (A') (A') (A') (A') (A') (A') (A') (A')
                 (A') (A')
 The electronic state of the initial guess is 1-A'.
 Requested convergence on RMS density matrix=1.00D-04 within 128 cycles.
 Requested convergence on MAX density matrix=1.00D-02.
 Requested convergence on             energy=1.00D-02.
 No special actions if energy rises.
 Rare condition: small coef for last iteration:  0.000D+00
 EnCoef did   100 forward-backward iterations
 EnCoef did   100 forward-backward iterations
 EnCoef did   100 forward-backward iterations
 EnCoef did     3 forward-backward iterations
 SCF Done:  E(RB+HF-LYP) =  -2750.08814381     A.U. after   15 cycles
             Convg  =    0.6806D-04             -V/T =  2.0029
             S**2   =   0.0000

 **********************************************************************

            Population analysis using the SCF density.

 **********************************************************************

 Orbital symmetries:
       Occupied  (A') (A') (A') (A') (A') (A') (A') (A') (A') (A')
                 (A') (A') (A") (A') (A') (A") (A') (A') (A") (A')
                 (A') (A') (A") (A') (A') (A') (A') (A') (A') (A")
                 (A') (A') (A") (A') (A') (A") (A') (A') (A') (A')
                 (A') (A') (A') (A') (A') (A") (A') (A') (A") (A")
                 (A') (A') (A') (A") (A') (A") (A')
       Virtual   (A') (A') (A') (A") (A") (A') (A") (A") (A') (A')
                 (A') (A') (A') (A') (A') (A') (A") (A") (A') (A")
                 (A') (A") (A') (A') (A') (A') (A') (A') (A') (A')
                 (A') (A') (A") (A') (A') (A") (A') (A") (A") (A")
                 (A') (A') (A") (A') (A') (A') (A") (A') (A') (A")
                 (A') (A") (A') (A') (A') (A') (A") (A") (A') (A')
                 (A') (A") (A') (A') (A") (A') (A') (A') (A") (A')
                 (A') (A') (A') (A') (A') (A") (A') (A') (A') (A")
                 (A") (A') (A') (A') (A') (A') (A') (A') (A') (A')
                 (A') (A") (A") (A") (A') (A") (A') (A') (A") (A')
                 (A') (A') (A') (A') (A') (A') (A') (A') (A') (A')
                 (A") (A') (A') (A") (A") (A") (A') (A') (A") (A')
                 (A') (A") (A") (A') (A') (A") (A") (A') (A') (A')
                 (A") (A') (A') (A') (A') (A') (A') (A') (A') (A')
                 (A') (A')
 The electronic state is 1-A'.
 Alpha  occ. eigenvalues -- -145.53008-145.50991-145.50029 -77.36122 -19.29142
 Alpha  occ. eigenvalues --  -19.29003 -19.28909 -19.22061 -19.19489 -15.59815
 Alpha  occ. eigenvalues --  -15.57957 -15.56910 -12.73058 -12.72994 -12.72923
 Alpha  occ. eigenvalues --  -12.71130 -12.71129 -12.71055 -12.70177 -12.70091
 Alpha  occ. eigenvalues --  -12.69975  -6.80876  -4.97406  -4.97062  -4.97052
 Alpha  occ. eigenvalues --   -1.96839  -1.94982  -1.94131  -1.24499  -1.24496
 Alpha  occ. eigenvalues --   -1.24097  -1.22379  -1.22334  -1.22328  -1.21986
 Alpha  occ. eigenvalues --   -1.21983  -1.21548  -1.17269  -1.10619  -1.10442
 Alpha  occ. eigenvalues --   -1.04922  -0.83748  -0.68443  -0.59162  -0.58684
 Alpha  occ. eigenvalues --   -0.55799  -0.50374  -0.48612  -0.46936  -0.46865
 Alpha  occ. eigenvalues --   -0.46217  -0.43420  -0.42923  -0.42040  -0.30021
 Alpha  occ. eigenvalues --   -0.27982  -0.24094
 Alpha virt. eigenvalues --   -0.21214  -0.18821  -0.16481  -0.15685  -0.12770
 Alpha virt. eigenvalues --   -0.12263  -0.12148  -0.10654  -0.10409  -0.09954
 Alpha virt. eigenvalues --   -0.09467  -0.08170  -0.07412  -0.06790  -0.05654
 Alpha virt. eigenvalues --   -0.05535  -0.05291  -0.04582  -0.04488  -0.04291
 Alpha virt. eigenvalues --   -0.04252  -0.03935  -0.03765  -0.03558  -0.03330
 Alpha virt. eigenvalues --   -0.03020  -0.02792  -0.01693  -0.00806   0.00881
 Alpha virt. eigenvalues --    0.01961   0.02719   0.02936   0.03338   0.03463
 Alpha virt. eigenvalues --    0.03688   0.04195   0.04309   0.05327   0.05608
 Alpha virt. eigenvalues --    0.05809   0.06543   0.07048   0.07083   0.07424
 Alpha virt. eigenvalues --    0.07756   0.07862   0.08154   0.08769   0.09040
 Alpha virt. eigenvalues --    0.09213   0.10529   0.11877   0.12601   0.14061
 Alpha virt. eigenvalues --    0.14770   0.15069   0.17408   0.18546   0.19002
 Alpha virt. eigenvalues --    0.19201   0.20948   0.21161   0.21485   0.22151
 Alpha virt. eigenvalues --    0.23123   0.24307   0.27116   0.28492   0.28983
 Alpha virt. eigenvalues --    0.30799   0.31276   0.35073   0.36903   0.37740
 Alpha virt. eigenvalues --    0.37912   0.39589   0.42428   0.48449   0.54316
 Alpha virt. eigenvalues --    0.55008   0.55419   0.58729   0.62305   0.69935
 Alpha virt. eigenvalues --    0.74538   0.80018   0.91317   0.92930   0.96728
 Alpha virt. eigenvalues --    1.01869   1.04910   1.06601   1.07565   1.10208
 Alpha virt. eigenvalues --    1.10575   1.12628   1.15417   1.16196   1.16227
 Alpha virt. eigenvalues --    1.16620   1.22114   1.23431   1.26651   1.27802
 Alpha virt. eigenvalues --    1.34548   1.40858   1.45441   1.50312   1.52292
 Alpha virt. eigenvalues --    1.53142   1.59534   1.63228   1.64267   1.64831
 Alpha virt. eigenvalues --    1.65456   1.67475   1.68596   1.73156   1.74469
 Alpha virt. eigenvalues --    1.76502   1.79220   1.85789   1.86941   1.88391
 Alpha virt. eigenvalues --    1.91599   1.93216   1.94620   2.13913   2.16651
 Alpha virt. eigenvalues --    2.26920   2.28272   2.55480   2.69634   2.70614
 Alpha virt. eigenvalues --    3.11184   3.38863   3.83339   3.88169   3.95747
 Alpha virt. eigenvalues --    3.99524   4.16394
          Condensed to atoms (all electrons):
              1          2          3          4          5          6
     1  O    9.380473  -0.158937   0.039132   0.005525  -0.033431  -0.428126
     2  O   -0.158937   9.367372   0.027810  -0.001154   0.047226  -0.501088
     3  O    0.039132   0.027810   8.524447  -0.050501   0.070412  -0.065055
     4  O    0.005525  -0.001154  -0.050501   8.512572   0.173309  -0.013282
     5  Ca  -0.033431   0.047226   0.070412   0.173309  18.276731   0.060653
     6  P   -0.428126  -0.501088  -0.065055  -0.013282   0.060653  15.084848
     7  Ca  -0.000517  -0.034745   0.132210  -0.022946  -0.002778   0.138065
     8  Ca  -0.068586  -0.065930   0.000119   0.001272   0.021213   0.345003
     9  O   -0.058328   0.009580   0.001731  -0.000147  -0.010488  -0.642362
              7          8          9
     1  O   -0.000517  -0.068586  -0.058328
     2  O   -0.034745  -0.065930   0.009580
     3  O    0.132210   0.000119   0.001731
     4  O   -0.022946   0.001272  -0.000147
     5  Ca  -0.002778   0.021213  -0.010488
     6  P    0.138065   0.345003  -0.642362
     7  Ca  18.440304  -0.001737  -0.013067
     8  Ca  -0.001737  19.431941  -0.215906
     9  O   -0.013067  -0.215906   9.613017
 Mulliken atomic charges:
              1
     1  O   -0.677205
     2  O   -0.690134
     3  O   -0.680306
     4  O   -0.604646
     5  Ca   1.397152
     6  P    1.021346
     7  Ca   1.365211
     8  Ca   0.552611
     9  O   -0.684029
 Sum of Mulliken charges=   1.00000
 Atomic charges with hydrogens summed into heavy atoms:
              1
     1  O   -0.677205
     2  O   -0.690134
     3  O   -0.680306
     4  O   -0.604646
     5  Ca   1.397152
     6  P    1.021346
     7  Ca   1.365211
     8  Ca   0.552611
     9  O   -0.684029
 Sum of Mulliken charges=   1.00000
 Electronic spatial extent (au):  <R**2>=  3962.4036
 Charge=     1.0000 electrons
 Dipole moment (field-independent basis, Debye):
    X=     1.2167    Y=     2.9768    Z=     0.0000  Tot=     3.2158
 Quadrupole moment (field-independent basis, Debye-Ang):
   XX=   -40.4411   YY=   -60.6754   ZZ=   -83.0258
   XY=    -5.4470   XZ=     0.0000   YZ=     0.0000
 Traceless Quadrupole moment (field-independent basis, Debye-Ang):
   XX=    20.9397   YY=     0.7053   ZZ=   -21.6450
   XY=    -5.4470   XZ=     0.0000   YZ=     0.0000
 Octapole moment (field-independent basis, Debye-Ang**2):
  XXX=   -19.0255  YYY=   257.6977  ZZZ=     0.0000  XYY=    38.6867
  XXY=  -141.2007  XXZ=     0.0000  XZZ=    -4.6371  YZZ=   -31.5058
  YYZ=     0.0000  XYZ=     0.0000
 Hexadecapole moment (field-independent basis, Debye-Ang**3):
 XXXX=  -623.2036 YYYY= -4228.1117 ZZZZ=  -152.3971 XXXY=   -93.1249
 XXXZ=     0.0000 YYYX=  -220.9085 YYYZ=     0.0000 ZZZX=     0.0000
 ZZZY=     0.0000 XXYY=  -692.1694 XXZZ=  -161.3399 YYZZ=  -782.7394
 XXYZ=     0.0000 YYXZ=     0.0000 ZZXY=   -34.3987
 N-N= 8.879044985121D+02 E-N=-8.273642130343D+03  KE= 2.742071265551D+03
 Symmetry A'   KE= 2.474974959346D+03
 Symmetry A"   KE= 2.670963062047D+02
 Merz-Kollman atomic radii used.
 Read replacement radii for each type of atom:
 Rad(20) =   1.188000000000D+00
 Atom Element Radius
    1     8    1.40
    2     8    1.40
    3     8    1.40
    4     8    1.40
    5    20    1.19
    6    15    1.80
    7    20    1.19
    8    20    1.19
    9     8    1.40

 **********************************************************************

            Electrostatic Properties Using The SCF Density

 **********************************************************************

       Atomic Center    1 is at   1.312401  0.202121  0.000000
       Atomic Center    2 is at  -1.309429  0.204567  0.000000
       Atomic Center    3 is at   0.109257 -2.807561  0.000000
       Atomic Center    4 is at  -0.890811 -3.945372  0.000000
       Atomic Center    5 is at  -1.963135 -2.024784  0.000000
       Atomic Center    6 is at   0.000000  0.983179  0.000000
       Atomic Center    7 is at   2.068695 -1.974997  0.000000
       Atomic Center    8 is at   0.205093  4.801679  0.000000
       Atomic Center    9 is at   0.001947  2.498039  0.000000
     819 points will be used for fitting atomic charges
 Fitting point charges to eletrostatic potential
 Charges from ESP fit, RMS=   0.01767 RRMS=   0.11671:
 Charge=   1.00000 Dipole=     2.2002     7.4723     0.0000 Tot=     7.7895
              1
     1  O   -0.768247
     2  O   -0.734012
     3  O   -0.646887
     4  O   -0.831423
     5  Ca   1.640550
     6  P    0.621888
     7  Ca   1.412836
     8  Ca   0.652322
     9  O   -0.347027
 -----------------------------------------------------------------

              Electrostatic Properties (Atomic Units)

 -----------------------------------------------------------------
    Center     Electric         -------- Electric Field --------
               Potential          X             Y             Z
 -----------------------------------------------------------------
    1 Atom    -22.174777
    2 Atom    -22.174680
    3 Atom    -22.245105
    4 Atom    -22.278035
    5 Atom    -80.040522
    6 Atom    -53.846689
    7 Atom    -80.011098
    8 Atom    -80.034121
    9 Atom    -22.179643
 -----------------------------------------------------------------
 1\1\GINC-N027\SP\RB3LYP\6-31+G(d,p)\Ca3O5P1(1+)\TIMN\12-Jun-2015\0\\# 
 b3lyp/6-31+G(d,p) int=ultrafine pop=(ReadRadii,MK)\\mol_17.27.29.pdbc_
 plusQ.z58496.zip.xyz\\1,1\O,0,1.3124,0.20212,0.\O,0,-1.30943,0.20457,0
 .\O,0,0.10925,-2.80756,0.\O,0,-0.89082,-3.94537,0.\Ca,0,-1.96314,-2.02
 478,0.\P,0,0.,0.98318,0.\Ca,0,2.06869,-1.975,0.\Ca,0,0.2051,4.80168,0.
 \O,0,0.00195,2.49804,0.\\Version=EM64T-G03RevE.01\State=1-A'\HF=-2750.
 0881438\RMSD=6.806e-05\Thermal=0.\Dipole=0.4787021,1.1711493,0.\PG=CS 
 [SG(Ca3O5P1)]\\@


 OLD AGE AND TREACHERY WILL ALWAYS PREVAIL OVER YOUTH AND SKILL.
 Job cpu time:  0 days  0 hours  2 minutes 33.9 seconds.
 File lengths (MBytes):  RWF=     36 Int=      0 D2E=      0 Chk=     11 Scr=      1
 Normal termination of Gaussian 03 at Fri Jun 12 18:07:02 2015.
