 Entering Gaussian System, Link 0=/home/timn/tmp/g03.e01/g03
 Input=mol_16.4.47.pdbc_plusQ.out.z51597.zip.xyz.gjf
 Output=mol_16.4.47.pdbc_plusQ.out.z51597.zip.xyz.out
 Initial command:
 /home/timn/tmp/g03.e01/l1.exe /home/timn/tmp/g03.e01/Gau-17695.inp -scrdir=/home/timn/tmp/g03.e01/
 Default is to use a total of   2 processors:
                                2 via shared-memory
                                1 via Linda
 Entering Link 1 = /home/timn/tmp/g03.e01/l1.exe PID=     17696.
  
 Copyright (c) 1988,1990,1992,1993,1995,1998,2003,2004,2007, Gaussian, Inc.
                  All Rights Reserved.
  
 This is the Gaussian(R) 03 program.  It is based on the
 the Gaussian(R) 98 system (copyright 1998, Gaussian, Inc.),
 the Gaussian(R) 94 system (copyright 1995, Gaussian, Inc.),
 the Gaussian 92(TM) system (copyright 1992, Gaussian, Inc.),
 the Gaussian 90(TM) system (copyright 1990, Gaussian, Inc.),
 the Gaussian 88(TM) system (copyright 1988, Gaussian, Inc.),
 the Gaussian 86(TM) system (copyright 1986, Carnegie Mellon
 University), and the Gaussian 82(TM) system (copyright 1983,
 Carnegie Mellon University). Gaussian is a federally registered
 trademark of Gaussian, Inc.
  
 This software contains proprietary and confidential information,
 including trade secrets, belonging to Gaussian, Inc.
  
 This software is provided under written license and may be
 used, copied, transmitted, or stored only in accord with that
 written license.
  
 The following legend is applicable only to US Government
 contracts under FAR:
  
                    RESTRICTED RIGHTS LEGEND
  
 Use, reproduction and disclosure by the US Government is
 subject to restrictions as set forth in subparagraphs (a)
 and (c) of the Commercial Computer Software - Restricted
 Rights clause in FAR 52.227-19.
  
 Gaussian, Inc.
 340 Quinnipiac St., Bldg. 40, Wallingford CT 06492
  
  
 ---------------------------------------------------------------
 Warning -- This program may not be used in any manner that
 competes with the business of Gaussian, Inc. or will provide
 assistance to any competitor of Gaussian, Inc.  The licensee
 of this program is prohibited from giving any competitor of
 Gaussian, Inc. access to this program.  By using this program,
 the user acknowledges that Gaussian, Inc. is engaged in the
 business of creating and licensing software in the field of
 computational chemistry and represents and warrants to the
 licensee that it is not a competitor of Gaussian, Inc. and that
 it will not use this program in any manner prohibited above.
 ---------------------------------------------------------------
  

 Cite this work as:
 Gaussian 03, Revision E.01,
 M. J. Frisch, G. W. Trucks, H. B. Schlegel, G. E. Scuseria, 
 M. A. Robb, J. R. Cheeseman, J. A. Montgomery, Jr., T. Vreven, 
 K. N. Kudin, J. C. Burant, J. M. Millam, S. S. Iyengar, J. Tomasi, 
 V. Barone, B. Mennucci, M. Cossi, G. Scalmani, N. Rega, 
 G. A. Petersson, H. Nakatsuji, M. Hada, M. Ehara, K. Toyota, 
 R. Fukuda, J. Hasegawa, M. Ishida, T. Nakajima, Y. Honda, O. Kitao, 
 H. Nakai, M. Klene, X. Li, J. E. Knox, H. P. Hratchian, J. B. Cross, 
 V. Bakken, C. Adamo, J. Jaramillo, R. Gomperts, R. E. Stratmann, 
 O. Yazyev, A. J. Austin, R. Cammi, C. Pomelli, J. W. Ochterski, 
 P. Y. Ayala, K. Morokuma, G. A. Voth, P. Salvador, J. J. Dannenberg, 
 V. G. Zakrzewski, S. Dapprich, A. D. Daniels, M. C. Strain, 
 O. Farkas, D. K. Malick, A. D. Rabuck, K. Raghavachari, 
 J. B. Foresman, J. V. Ortiz, Q. Cui, A. G. Baboul, S. Clifford, 
 J. Cioslowski, B. B. Stefanov, G. Liu, A. Liashenko, P. Piskorz, 
 I. Komaromi, R. L. Martin, D. J. Fox, T. Keith, M. A. Al-Laham, 
 C. Y. Peng, A. Nanayakkara, M. Challacombe, P. M. W. Gill, 
 B. Johnson, W. Chen, M. W. Wong, C. Gonzalez, and J. A. Pople, 
 Gaussian, Inc., Wallingford CT, 2004.
 
 ******************************************
 Gaussian 03:  EM64T-G03RevE.01 11-Sep-2007
                12-Jun-2015 
 ******************************************
 %nproc=2
 Will use up to    2 processors via shared memory.
 Default route:  MP2=Direct MaxDisk=2000MB
 ----------------------------------------------------
 # b3lyp/6-31+G(d,p) int=ultrafine pop=(ReadRadii,MK)
 ----------------------------------------------------

 Warning!  SCF SP cutoffs with diffuse functions may be unreliable.
 Consider SCF=Tight

 1/38=1/1;
 2/17=6,18=5,40=1/2;
 3/5=1,6=6,7=111,11=2,16=1,25=1,30=1,74=-5,75=5/1,2,3;
 4//1;
 5/5=2,32=1,38=5/2;
 6/7=2,8=2,9=2,10=2,15=8,20=101,28=1/1,2;
 99/5=1,9=1/99;
 -----------------------------------------
 mol_16.4.47.pdbc_plusQ.out.z51597.zip.xyz
 -----------------------------------------
 Symbolic Z-matrix:
 Charge =  1 Multiplicity = 1
 O                     1.71323   0.00516  -0.78562 
 O                     1.71254   0.00501   0.78675 
 Ca                    0.76734  -1.85612  -0.00031 
 P                    -2.31955  -0.0068    0.00047 
 O                    -1.43761  -1.27719  -0.00016 
 Ca                    0.75564   1.86017  -0.0001 
 O                    -1.44643   1.26965  -0.00083 
 
                          Input orientation:                          
 ---------------------------------------------------------------------
 Center     Atomic     Atomic              Coordinates (Angstroms)
 Number     Number      Type              X           Y           Z
 ---------------------------------------------------------------------
    1          8             0        1.713230    0.005160   -0.785620
    2          8             0        1.712540    0.005010    0.786750
    3         20             0        0.767340   -1.856120   -0.000310
    4         15             0       -2.319550   -0.006800    0.000470
    5          8             0       -1.437610   -1.277190   -0.000160
    6         20             0        0.755640    1.860170   -0.000100
    7          8             0       -1.446430    1.269650   -0.000830
 ---------------------------------------------------------------------
                    Distance matrix (angstroms):
                    1          2          3          4          5
     1  O    0.000000
     2  O    1.572370   0.000000
     3  Ca   2.230646   2.230845   0.000000
     4  P    4.108697   4.108056   3.598455   0.000000
     5  O    3.491298   3.490947   2.279685   1.546515   0.000000
     6  Ca   2.230489   2.230787   3.716308   3.597551   3.827972
     7  O    3.492604   3.492662   3.830302   1.546501   2.546855
                    6          7
     6  Ca   0.000000
     7  O    2.279874   0.000000
 Stoichiometry    Ca2O4P(1+)
 Framework group  C1[X(Ca2O4P)]
 Deg. of freedom    15
 Full point group                 C1
 Largest Abelian subgroup         C1      NOp   1
 Largest concise Abelian subgroup C1      NOp   1
                         Standard orientation:                         
 ---------------------------------------------------------------------
 Center     Atomic     Atomic              Coordinates (Angstroms)
 Number     Number      Type              X           Y           Z
 ---------------------------------------------------------------------
    1          8             0        1.713228    0.005163   -0.785620
    2          8             0        1.712538    0.005013    0.786750
    3         20             0        0.767342   -1.856119   -0.000310
    4         15             0       -2.319552   -0.006805    0.000470
    5          8             0       -1.437610   -1.277193   -0.000160
    6         20             0        0.755634    1.860171   -0.000100
    7          8             0       -1.446435    1.269647   -0.000830
 ---------------------------------------------------------------------
 Rotational constants (GHZ):      1.4538757      1.2855677      0.7207546
 Standard basis: 6-31+G(d,p) (6D, 7F)
 There are   153 symmetry adapted basis functions of A   symmetry.
 Integral buffers will be    131072 words long.
 Raffenetti 2 integral format.
 Two-electron integral symmetry is turned on.
   153 basis functions,   344 primitive gaussians,   153 cartesian basis functions
    43 alpha electrons       43 beta electrons
       nuclear repulsion energy       602.1952148381 Hartrees.
 NAtoms=    7 NActive=    7 NUniq=    7 SFac= 7.50D-01 NAtFMM=   80 NAOKFM=F Big=F
 One-electron integrals computed using PRISM.
 NBasis=   153 RedAO= T  NBF=   153
 NBsUse=   153 1.00D-06 NBFU=   153
 Harris functional with IExCor=  402 diagonalized for initial guess.
 ExpMin= 7.10D-03 ExpMax= 3.53D+04 ExpMxC= 5.30D+03 IAcc=3 IRadAn=         5 AccDes= 0.00D+00
 HarFok:  IExCor= 402 AccDes= 0.00D+00 IRadAn=         5 IDoV=1
 ScaDFX=  1.000000  1.000000  1.000000  1.000000
 Initial guess orbital symmetries:
       Occupied  (A) (A) (A) (A) (A) (A) (A) (A) (A) (A) (A) (A)
                 (A) (A) (A) (A) (A) (A) (A) (A) (A) (A) (A) (A)
                 (A) (A) (A) (A) (A) (A) (A) (A) (A) (A) (A) (A)
                 (A) (A) (A) (A) (A) (A) (A)
       Virtual   (A) (A) (A) (A) (A) (A) (A) (A) (A) (A) (A) (A)
                 (A) (A) (A) (A) (A) (A) (A) (A) (A) (A) (A) (A)
                 (A) (A) (A) (A) (A) (A) (A) (A) (A) (A) (A) (A)
                 (A) (A) (A) (A) (A) (A) (A) (A) (A) (A) (A) (A)
                 (A) (A) (A) (A) (A) (A) (A) (A) (A) (A) (A) (A)
                 (A) (A) (A) (A) (A) (A) (A) (A) (A) (A) (A) (A)
                 (A) (A) (A) (A) (A) (A) (A) (A) (A) (A) (A) (A)
                 (A) (A) (A) (A) (A) (A) (A) (A) (A) (A) (A) (A)
                 (A) (A) (A) (A) (A) (A) (A) (A) (A) (A) (A) (A)
                 (A) (A)
 The electronic state of the initial guess is 1-A.
 Requested convergence on RMS density matrix=1.00D-04 within 128 cycles.
 Requested convergence on MAX density matrix=1.00D-02.
 Requested convergence on             energy=1.00D-02.
 No special actions if energy rises.
 SCF Done:  E(RB+HF-LYP) =  -1997.33372451     A.U. after    6 cycles
             Convg  =    0.4411D-04             -V/T =  2.0031
             S**2   =   0.0000

 **********************************************************************

            Population analysis using the SCF density.

 **********************************************************************

 Orbital symmetries:
       Occupied  (A) (A) (A) (A) (A) (A) (A) (A) (A) (A) (A) (A)
                 (A) (A) (A) (A) (A) (A) (A) (A) (A) (A) (A) (A)
                 (A) (A) (A) (A) (A) (A) (A) (A) (A) (A) (A) (A)
                 (A) (A) (A) (A) (A) (A) (A)
       Virtual   (A) (A) (A) (A) (A) (A) (A) (A) (A) (A) (A) (A)
                 (A) (A) (A) (A) (A) (A) (A) (A) (A) (A) (A) (A)
                 (A) (A) (A) (A) (A) (A) (A) (A) (A) (A) (A) (A)
                 (A) (A) (A) (A) (A) (A) (A) (A) (A) (A) (A) (A)
                 (A) (A) (A) (A) (A) (A) (A) (A) (A) (A) (A) (A)
                 (A) (A) (A) (A) (A) (A) (A) (A) (A) (A) (A) (A)
                 (A) (A) (A) (A) (A) (A) (A) (A) (A) (A) (A) (A)
                 (A) (A) (A) (A) (A) (A) (A) (A) (A) (A) (A) (A)
                 (A) (A) (A) (A) (A) (A) (A) (A) (A) (A) (A) (A)
                 (A) (A)
 The electronic state is 1-A.
 Alpha  occ. eigenvalues -- -145.53242-145.53239 -77.30161 -19.27964 -19.27939
 Alpha  occ. eigenvalues --  -19.25601 -19.25573 -15.60089 -15.60086 -12.73304
 Alpha  occ. eigenvalues --  -12.73301 -12.73286 -12.73283 -12.73204 -12.73200
 Alpha  occ. eigenvalues --   -6.75643  -4.92083  -4.91867  -4.91423  -1.97232
 Alpha  occ. eigenvalues --   -1.97205  -1.25762  -1.24802  -1.24789  -1.24722
 Alpha  occ. eigenvalues --   -1.24721  -1.24299  -1.13927  -1.08557  -1.08250
 Alpha  occ. eigenvalues --   -0.89520  -0.67706  -0.57284  -0.52825  -0.52603
 Alpha  occ. eigenvalues --   -0.48994  -0.47945  -0.46120  -0.45765  -0.43903
 Alpha  occ. eigenvalues --   -0.40700  -0.37191  -0.34166
 Alpha virt. eigenvalues --   -0.20455  -0.19852  -0.19630  -0.14480  -0.11366
 Alpha virt. eigenvalues --   -0.11279  -0.10319  -0.09665  -0.09042  -0.07374
 Alpha virt. eigenvalues --   -0.07215  -0.06431  -0.05961  -0.05215  -0.04857
 Alpha virt. eigenvalues --   -0.04431  -0.04389  -0.04082  -0.03998  -0.03872
 Alpha virt. eigenvalues --   -0.03337  -0.02377   0.00223   0.01113   0.02012
 Alpha virt. eigenvalues --    0.02951   0.03328   0.03646   0.04213   0.05049
 Alpha virt. eigenvalues --    0.05150   0.05192   0.06784   0.07029   0.07279
 Alpha virt. eigenvalues --    0.07478   0.08124   0.08220   0.12233   0.13582
 Alpha virt. eigenvalues --    0.14153   0.14770   0.16277   0.16816   0.16924
 Alpha virt. eigenvalues --    0.18693   0.20337   0.21718   0.24410   0.26751
 Alpha virt. eigenvalues --    0.28313   0.29473   0.31798   0.32155   0.32492
 Alpha virt. eigenvalues --    0.36026   0.36757   0.40434   0.43976   0.45550
 Alpha virt. eigenvalues --    0.48020   0.56602   0.57824   0.60223   0.65644
 Alpha virt. eigenvalues --    0.71392   0.87026   0.90201   0.94380   1.03572
 Alpha virt. eigenvalues --    1.05863   1.07985   1.08396   1.12009   1.12333
 Alpha virt. eigenvalues --    1.14816   1.15162   1.17894   1.20707   1.23940
 Alpha virt. eigenvalues --    1.28608   1.38349   1.43008   1.46782   1.50566
 Alpha virt. eigenvalues --    1.50927   1.58063   1.66231   1.68020   1.70617
 Alpha virt. eigenvalues --    1.71272   1.75769   1.80035   1.81224   1.82387
 Alpha virt. eigenvalues --    1.84418   1.85985   1.86060   1.92957   2.09478
 Alpha virt. eigenvalues --    2.16199   2.16965   2.53552   2.67526   3.00301
 Alpha virt. eigenvalues --    3.38472   3.83796   3.90580   3.97514   4.05867
          Condensed to atoms (all electrons):
              1          2          3          4          5          6
     1  O    8.515928  -0.059683   0.105948  -0.004437   0.002549   0.105937
     2  O   -0.059683   8.515292   0.105933  -0.004348   0.002557   0.105985
     3  Ca   0.105948   0.105933  18.210110  -0.019124   0.067453  -0.016664
     4  P   -0.004437  -0.004348  -0.019124  14.567486  -0.094649  -0.019131
     5  O    0.002549   0.002557   0.067453  -0.094649   8.815280   0.002335
     6  Ca   0.105937   0.105985  -0.016664  -0.019131   0.002335  18.210154
     7  O    0.002566   0.002551   0.002356  -0.094391  -0.085974   0.067457
              7
     1  O    0.002566
     2  O    0.002551
     3  Ca   0.002356
     4  P   -0.094391
     5  O   -0.085974
     6  Ca   0.067457
     7  O    8.815298
 Mulliken atomic charges:
              1
     1  O   -0.668807
     2  O   -0.668287
     3  Ca   1.543989
     4  P    0.668593
     5  O   -0.709551
     6  Ca   1.543927
     7  O   -0.709863
 Sum of Mulliken charges=   1.00000
 Atomic charges with hydrogens summed into heavy atoms:
              1
     1  O   -0.668807
     2  O   -0.668287
     3  Ca   1.543989
     4  P    0.668593
     5  O   -0.709551
     6  Ca   1.543927
     7  O   -0.709863
 Sum of Mulliken charges=   1.00000
 Electronic spatial extent (au):  <R**2>=  1378.0075
 Charge=     1.0000 electrons
 Dipole moment (field-independent basis, Debye):
    X=     3.1414    Y=     0.0012    Z=    -0.0010  Tot=     3.1414
 Quadrupole moment (field-independent basis, Debye-Ang):
   XX=   -66.4974   YY=    -8.8825   ZZ=   -58.2521
   XY=    -0.1736   XZ=    -0.0052   YZ=     0.0068
 Traceless Quadrupole moment (field-independent basis, Debye-Ang):
   XX=   -21.9534   YY=    35.6615   ZZ=   -13.7081
   XY=    -0.1736   XZ=    -0.0052   YZ=     0.0068
 Octapole moment (field-independent basis, Debye-Ang**2):
  XXX=    -6.8983  YYY=     0.5613  ZZZ=    -0.0155  XYY=    70.8499
  XXY=    -0.4809  XXZ=    -0.0069  XZZ=    -1.4152  YZZ=    -0.0065
  YYZ=    -0.0106  XYZ=    -0.0013
 Hexadecapole moment (field-independent basis, Debye-Ang**3):
 XXXX=  -942.5467 YYYY=  -329.5273 ZZZZ=  -103.9523 XXXY=    -0.7278
 XXXZ=     0.0297 YYYX=    -0.9157 YYYZ=     0.0264 ZZZX=    -0.0169
 ZZZY=     0.0098 XXYY=  -220.6655 XXZZ=  -174.4207 YYZZ=  -103.3786
 XXYZ=     0.0121 YYXZ=    -0.0239 ZZXY=    -0.1786
 N-N= 6.021952148381D+02 E-N=-5.923827152156D+03  KE= 1.991111892648D+03
 Merz-Kollman atomic radii used.
 Read replacement radii for each type of atom:
 Rad(20) =   1.188000000000D+00
 Atom Element Radius
    1     8    1.40
    2     8    1.40
    3    20    1.19
    4    15    1.80
    5     8    1.40
    6    20    1.19
    7     8    1.40

 **********************************************************************

            Electrostatic Properties Using The SCF Density

 **********************************************************************

       Atomic Center    1 is at   1.713228  0.005163 -0.785620
       Atomic Center    2 is at   1.712538  0.005013  0.786750
       Atomic Center    3 is at   0.767342 -1.856119 -0.000310
       Atomic Center    4 is at  -2.319552 -0.006805  0.000470
       Atomic Center    5 is at  -1.437610 -1.277193 -0.000160
       Atomic Center    6 is at   0.755634  1.860171 -0.000100
       Atomic Center    7 is at  -1.446435  1.269647 -0.000830
     710 points will be used for fitting atomic charges
 Fitting point charges to eletrostatic potential
 Charges from ESP fit, RMS=   0.00426 RRMS=   0.02788:
 Charge=   1.00000 Dipole=     3.0029     0.0091     0.0002 Tot=     3.0029
              1
     1  O   -0.787857
     2  O   -0.787096
     3  Ca   1.723907
     4  P    0.635434
     5  O   -0.755141
     6  Ca   1.722255
     7  O   -0.751502
 -----------------------------------------------------------------

              Electrostatic Properties (Atomic Units)

 -----------------------------------------------------------------
    Center     Electric         -------- Electric Field --------
               Potential          X             Y             Z
 -----------------------------------------------------------------
    1 Atom    -22.214475
    2 Atom    -22.213642
    3 Atom    -80.007969
    4 Atom    -53.916362
    5 Atom    -22.183789
    6 Atom    -80.008042
    7 Atom    -22.184472
 -----------------------------------------------------------------
 1\1\GINC-N025\SP\RB3LYP\6-31+G(d,p)\Ca2O4P1(1+)\TIMN\12-Jun-2015\0\\# 
 b3lyp/6-31+G(d,p) int=ultrafine pop=(ReadRadii,MK)\\mol_16.4.47.pdbc_p
 lusQ.out.z51597.zip.xyz\\1,1\O,0,1.71323,0.00516,-0.78562\O,0,1.71254,
 0.00501,0.78675\Ca,0,0.76734,-1.85612,-0.00031\P,0,-2.31955,-0.0068,0.
 00047\O,0,-1.43761,-1.27719,-0.00016\Ca,0,0.75564,1.86017,-0.0001\O,0,
 -1.44643,1.26965,-0.00083\\Version=EM64T-G03RevE.01\State=1-A\HF=-1997
 .3337245\RMSD=4.411e-05\Thermal=0.\Dipole=1.2359244,0.0004716,-0.00038
 5\PG=C01 [X(Ca2O4P1)]\\@


 CHARLIE BROWN -- WHICH DO YOU THINK LASTS LONGER IN LIFE, THE GOOD THINGS 
                  OR THE BAD THINGS?
 LINUS --         GOOD THINGS LAST EIGHT SECONDS ..
                  BAD THINGS LAST THREE WEEKS
 CHARLIE BROWN -- WHAT ABOUT IN BETWEEN?
 SNOOPY --        IN BETWEEN YOU SHOULD TAKE A NAP ...
 Job cpu time:  0 days  0 hours  0 minutes 43.1 seconds.
 File lengths (MBytes):  RWF=     28 Int=      0 D2E=      0 Chk=     10 Scr=      1
 Normal termination of Gaussian 03 at Fri Jun 12 17:48:44 2015.
