 Entering Gaussian System, Link 0=/home/timn/tmp/g03.e01/g03
 Input=mol_17.29.13.pdbcc_plusQ.z58593.zip.xyz.gjf
 Output=mol_17.29.13.pdbcc_plusQ.z58593.zip.xyz.out
 Initial command:
 /home/timn/tmp/g03.e01/l1.exe /home/timn/tmp/g03.e01/Gau-15696.inp -scrdir=/home/timn/tmp/g03.e01/
 Default is to use a total of   2 processors:
                                2 via shared-memory
                                1 via Linda
 Entering Link 1 = /home/timn/tmp/g03.e01/l1.exe PID=     15697.
  
 Copyright (c) 1988,1990,1992,1993,1995,1998,2003,2004,2007, Gaussian, Inc.
                  All Rights Reserved.
  
 This is the Gaussian(R) 03 program.  It is based on the
 the Gaussian(R) 98 system (copyright 1998, Gaussian, Inc.),
 the Gaussian(R) 94 system (copyright 1995, Gaussian, Inc.),
 the Gaussian 92(TM) system (copyright 1992, Gaussian, Inc.),
 the Gaussian 90(TM) system (copyright 1990, Gaussian, Inc.),
 the Gaussian 88(TM) system (copyright 1988, Gaussian, Inc.),
 the Gaussian 86(TM) system (copyright 1986, Carnegie Mellon
 University), and the Gaussian 82(TM) system (copyright 1983,
 Carnegie Mellon University). Gaussian is a federally registered
 trademark of Gaussian, Inc.
  
 This software contains proprietary and confidential information,
 including trade secrets, belonging to Gaussian, Inc.
  
 This software is provided under written license and may be
 used, copied, transmitted, or stored only in accord with that
 written license.
  
 The following legend is applicable only to US Government
 contracts under FAR:
  
                    RESTRICTED RIGHTS LEGEND
  
 Use, reproduction and disclosure by the US Government is
 subject to restrictions as set forth in subparagraphs (a)
 and (c) of the Commercial Computer Software - Restricted
 Rights clause in FAR 52.227-19.
  
 Gaussian, Inc.
 340 Quinnipiac St., Bldg. 40, Wallingford CT 06492
  
  
 ---------------------------------------------------------------
 Warning -- This program may not be used in any manner that
 competes with the business of Gaussian, Inc. or will provide
 assistance to any competitor of Gaussian, Inc.  The licensee
 of this program is prohibited from giving any competitor of
 Gaussian, Inc. access to this program.  By using this program,
 the user acknowledges that Gaussian, Inc. is engaged in the
 business of creating and licensing software in the field of
 computational chemistry and represents and warrants to the
 licensee that it is not a competitor of Gaussian, Inc. and that
 it will not use this program in any manner prohibited above.
 ---------------------------------------------------------------
  

 Cite this work as:
 Gaussian 03, Revision E.01,
 M. J. Frisch, G. W. Trucks, H. B. Schlegel, G. E. Scuseria, 
 M. A. Robb, J. R. Cheeseman, J. A. Montgomery, Jr., T. Vreven, 
 K. N. Kudin, J. C. Burant, J. M. Millam, S. S. Iyengar, J. Tomasi, 
 V. Barone, B. Mennucci, M. Cossi, G. Scalmani, N. Rega, 
 G. A. Petersson, H. Nakatsuji, M. Hada, M. Ehara, K. Toyota, 
 R. Fukuda, J. Hasegawa, M. Ishida, T. Nakajima, Y. Honda, O. Kitao, 
 H. Nakai, M. Klene, X. Li, J. E. Knox, H. P. Hratchian, J. B. Cross, 
 V. Bakken, C. Adamo, J. Jaramillo, R. Gomperts, R. E. Stratmann, 
 O. Yazyev, A. J. Austin, R. Cammi, C. Pomelli, J. W. Ochterski, 
 P. Y. Ayala, K. Morokuma, G. A. Voth, P. Salvador, J. J. Dannenberg, 
 V. G. Zakrzewski, S. Dapprich, A. D. Daniels, M. C. Strain, 
 O. Farkas, D. K. Malick, A. D. Rabuck, K. Raghavachari, 
 J. B. Foresman, J. V. Ortiz, Q. Cui, A. G. Baboul, S. Clifford, 
 J. Cioslowski, B. B. Stefanov, G. Liu, A. Liashenko, P. Piskorz, 
 I. Komaromi, R. L. Martin, D. J. Fox, T. Keith, M. A. Al-Laham, 
 C. Y. Peng, A. Nanayakkara, M. Challacombe, P. M. W. Gill, 
 B. Johnson, W. Chen, M. W. Wong, C. Gonzalez, and J. A. Pople, 
 Gaussian, Inc., Wallingford CT, 2004.
 
 ******************************************
 Gaussian 03:  EM64T-G03RevE.01 11-Sep-2007
                12-Jun-2015 
 ******************************************
 %nproc=2
 Will use up to    2 processors via shared memory.
 Default route:  MP2=Direct MaxDisk=2000MB
 ----------------------------------------------------
 # b3lyp/6-31+G(d,p) int=ultrafine pop=(ReadRadii,MK)
 ----------------------------------------------------

 Warning!  SCF SP cutoffs with diffuse functions may be unreliable.
 Consider SCF=Tight

 1/38=1/1;
 2/17=6,18=5,40=1/2;
 3/5=1,6=6,7=111,11=2,16=1,25=1,30=1,74=-5,75=5/1,2,3;
 4//1;
 5/5=2,32=1,38=5/2;
 6/7=2,8=2,9=2,10=2,15=8,20=101,28=1/1,2;
 99/5=1,9=1/99;
 ---------------------------------------
 mol_17.29.13.pdbcc_plusQ.z58593.zip.xyz
 ---------------------------------------
 Symbolic Z-matrix:
 Charge =  1 Multiplicity = 1
 O                     3.4109   -0.65319  -0.00198 
 O                    -0.82217  -0.88011   0.77802 
 Ca                    1.22182  -1.49246   0.00122 
 P                     3.17052   0.86703  -0.0012 
 O                     1.61309   1.04021   0.00193 
 O                    -0.82129  -0.8798   -0.77751 
 Ca                   -3.07593  -0.69393  -0.00103 
 O                    -2.87484   1.41603  -0.00056 
 Ca                   -0.72606   1.51885   0.00076 
 
                          Input orientation:                          
 ---------------------------------------------------------------------
 Center     Atomic     Atomic              Coordinates (Angstroms)
 Number     Number      Type              X           Y           Z
 ---------------------------------------------------------------------
    1          8             0        3.410900   -0.653190   -0.001980
    2          8             0       -0.822170   -0.880110    0.778020
    3         20             0        1.221820   -1.492460    0.001220
    4         15             0        3.170520    0.867030   -0.001200
    5          8             0        1.613090    1.040210    0.001930
    6          8             0       -0.821290   -0.879800   -0.777510
    7         20             0       -3.075930   -0.693930   -0.001030
    8          8             0       -2.874840    1.416030   -0.000560
    9         20             0       -0.726060    1.518850    0.000760
 ---------------------------------------------------------------------
                    Distance matrix (angstroms):
                    1          2          3          4          5
     1  O    0.000000
     2  O    4.310310   0.000000
     3  Ca   2.344452   2.270746   0.000000
     4  P    1.539108   4.427331   3.060168   0.000000
     5  O    2.469765   3.196942   2.562715   1.567032   0.000000
     6  O    4.308623   1.555530   2.270698   4.425903   3.196900
     7  Ca   6.486958   2.391865   4.371305   6.438535   4.999416
     8  O    6.617568   3.176775   5.024136   6.070237   4.503639
     9  Ca   4.672494   2.523565   3.586394   3.950723   2.387618
                    6          7          8          9
     6  O    0.000000
     7  Ca   2.391834   0.000000
     8  O    3.176721   2.119521   0.000000
     9  Ca   2.523548   3.227737   2.151239   0.000000
 Stoichiometry    Ca3O5P(1+)
 Framework group  C1[X(Ca3O5P)]
 Deg. of freedom    21
 Full point group                 C1
 Largest Abelian subgroup         C1      NOp   1
 Largest concise Abelian subgroup C1      NOp   1
                         Standard orientation:                         
 ---------------------------------------------------------------------
 Center     Atomic     Atomic              Coordinates (Angstroms)
 Number     Number      Type              X           Y           Z
 ---------------------------------------------------------------------
    1          8             0        3.410900   -0.653189   -0.001982
    2          8             0       -0.822170   -0.880108    0.778018
    3         20             0        1.221820   -1.492458    0.001218
    4         15             0        3.170521    0.867031   -0.001202
    5          8             0        1.613091    1.040211    0.001928
    6          8             0       -0.821290   -0.879798   -0.777512
    7         20             0       -3.075930   -0.693927   -0.001032
    8          8             0       -2.874839    1.416033   -0.000562
    9         20             0       -0.726059    1.518852    0.000758
 ---------------------------------------------------------------------
 Rotational constants (GHZ):      1.5595936      0.4315798      0.3470199
 Standard basis: 6-31+G(d,p) (6D, 7F)
 There are   199 symmetry adapted basis functions of A   symmetry.
 Integral buffers will be    131072 words long.
 Raffenetti 2 integral format.
 Two-electron integral symmetry is turned on.
   199 basis functions,   456 primitive gaussians,   199 cartesian basis functions
    57 alpha electrons       57 beta electrons
       nuclear repulsion energy       978.3763902372 Hartrees.
 NAtoms=    9 NActive=    9 NUniq=    9 SFac= 7.50D-01 NAtFMM=   80 NAOKFM=F Big=F
 One-electron integrals computed using PRISM.
 NBasis=   199 RedAO= T  NBF=   199
 NBsUse=   199 1.00D-06 NBFU=   199
 Harris functional with IExCor=  402 diagonalized for initial guess.
 ExpMin= 7.10D-03 ExpMax= 3.53D+04 ExpMxC= 5.30D+03 IAcc=3 IRadAn=         5 AccDes= 0.00D+00
 HarFok:  IExCor= 402 AccDes= 0.00D+00 IRadAn=         5 IDoV=1
 ScaDFX=  1.000000  1.000000  1.000000  1.000000
 Initial guess orbital symmetries:
       Occupied  (A) (A) (A) (A) (A) (A) (A) (A) (A) (A) (A) (A)
                 (A) (A) (A) (A) (A) (A) (A) (A) (A) (A) (A) (A)
                 (A) (A) (A) (A) (A) (A) (A) (A) (A) (A) (A) (A)
                 (A) (A) (A) (A) (A) (A) (A) (A) (A) (A) (A) (A)
                 (A) (A) (A) (A) (A) (A) (A) (A) (A)
       Virtual   (A) (A) (A) (A) (A) (A) (A) (A) (A) (A) (A) (A)
                 (A) (A) (A) (A) (A) (A) (A) (A) (A) (A) (A) (A)
                 (A) (A) (A) (A) (A) (A) (A) (A) (A) (A) (A) (A)
                 (A) (A) (A) (A) (A) (A) (A) (A) (A) (A) (A) (A)
                 (A) (A) (A) (A) (A) (A) (A) (A) (A) (A) (A) (A)
                 (A) (A) (A) (A) (A) (A) (A) (A) (A) (A) (A) (A)
                 (A) (A) (A) (A) (A) (A) (A) (A) (A) (A) (A) (A)
                 (A) (A) (A) (A) (A) (A) (A) (A) (A) (A) (A) (A)
                 (A) (A) (A) (A) (A) (A) (A) (A) (A) (A) (A) (A)
                 (A) (A) (A) (A) (A) (A) (A) (A) (A) (A) (A) (A)
                 (A) (A) (A) (A) (A) (A) (A) (A) (A) (A) (A) (A)
                 (A) (A) (A) (A) (A) (A) (A) (A) (A) (A)
 The electronic state of the initial guess is 1-A.
 Requested convergence on RMS density matrix=1.00D-04 within 128 cycles.
 Requested convergence on MAX density matrix=1.00D-02.
 Requested convergence on             energy=1.00D-02.
 No special actions if energy rises.
 EnCoef did     3 forward-backward iterations
 SCF Done:  E(RB+HF-LYP) =  -2750.19922761     A.U. after    8 cycles
             Convg  =    0.8779D-04             -V/T =  2.0029
             S**2   =   0.0000

 **********************************************************************

            Population analysis using the SCF density.

 **********************************************************************

 Orbital symmetries:
       Occupied  (A) (A) (A) (A) (A) (A) (A) (A) (A) (A) (A) (A)
                 (A) (A) (A) (A) (A) (A) (A) (A) (A) (A) (A) (A)
                 (A) (A) (A) (A) (A) (A) (A) (A) (A) (A) (A) (A)
                 (A) (A) (A) (A) (A) (A) (A) (A) (A) (A) (A) (A)
                 (A) (A) (A) (A) (A) (A) (A) (A) (A)
       Virtual   (A) (A) (A) (A) (A) (A) (A) (A) (A) (A) (A) (A)
                 (A) (A) (A) (A) (A) (A) (A) (A) (A) (A) (A) (A)
                 (A) (A) (A) (A) (A) (A) (A) (A) (A) (A) (A) (A)
                 (A) (A) (A) (A) (A) (A) (A) (A) (A) (A) (A) (A)
                 (A) (A) (A) (A) (A) (A) (A) (A) (A) (A) (A) (A)
                 (A) (A) (A) (A) (A) (A) (A) (A) (A) (A) (A) (A)
                 (A) (A) (A) (A) (A) (A) (A) (A) (A) (A) (A) (A)
                 (A) (A) (A) (A) (A) (A) (A) (A) (A) (A) (A) (A)
                 (A) (A) (A) (A) (A) (A) (A) (A) (A) (A) (A) (A)
                 (A) (A) (A) (A) (A) (A) (A) (A) (A) (A) (A) (A)
                 (A) (A) (A) (A) (A) (A) (A) (A) (A) (A) (A) (A)
                 (A) (A) (A) (A) (A) (A) (A) (A) (A) (A)
 The electronic state is 1-A.
 Alpha  occ. eigenvalues -- -145.53300-145.48101-145.46500 -77.31648 -19.29958
 Alpha  occ. eigenvalues --  -19.29137 -19.27655 -19.27650 -19.10311 -15.60145
 Alpha  occ. eigenvalues --  -15.54938 -15.53359 -12.73381 -12.73376 -12.73211
 Alpha  occ. eigenvalues --  -12.68157 -12.68121 -12.68042 -12.66613 -12.66577
 Alpha  occ. eigenvalues --  -12.66408  -6.77272  -4.93704  -4.93472  -4.93054
 Alpha  occ. eigenvalues --   -1.97330  -1.92136  -1.90669  -1.25313  -1.25143
 Alpha  occ. eigenvalues --   -1.25003  -1.20357  -1.19790  -1.19239  -1.18530
 Alpha  occ. eigenvalues --   -1.18452  -1.17871  -1.15552  -1.10913  -1.09763
 Alpha  occ. eigenvalues --   -0.91288  -0.84520  -0.68931  -0.57897  -0.55272
 Alpha  occ. eigenvalues --   -0.54483  -0.51223  -0.50447  -0.49464  -0.46901
 Alpha  occ. eigenvalues --   -0.45453  -0.42701  -0.38845  -0.36713  -0.30147
 Alpha  occ. eigenvalues --   -0.28563  -0.28510
 Alpha virt. eigenvalues --   -0.21598  -0.19564  -0.17910  -0.15029  -0.15008
 Alpha virt. eigenvalues --   -0.11255  -0.10530  -0.09853  -0.09287  -0.08793
 Alpha virt. eigenvalues --   -0.08675  -0.08136  -0.07318  -0.06844  -0.06403
 Alpha virt. eigenvalues --   -0.05270  -0.05161  -0.04773  -0.04392  -0.04325
 Alpha virt. eigenvalues --   -0.04067  -0.03928  -0.03832  -0.03754  -0.03164
 Alpha virt. eigenvalues --   -0.02886  -0.02820  -0.02756  -0.02036  -0.00679
 Alpha virt. eigenvalues --    0.01192   0.02370   0.03019   0.03129   0.03557
 Alpha virt. eigenvalues --    0.04613   0.04770   0.05246   0.05722   0.05974
 Alpha virt. eigenvalues --    0.06044   0.07070   0.07152   0.08138   0.08651
 Alpha virt. eigenvalues --    0.09108   0.09287   0.10066   0.10525   0.11195
 Alpha virt. eigenvalues --    0.12842   0.12877   0.14783   0.14995   0.16232
 Alpha virt. eigenvalues --    0.16460   0.16525   0.17569   0.18107   0.20918
 Alpha virt. eigenvalues --    0.21384   0.22315   0.22848   0.23438   0.24457
 Alpha virt. eigenvalues --    0.26191   0.28128   0.28795   0.29849   0.31217
 Alpha virt. eigenvalues --    0.31306   0.33453   0.35770   0.37587   0.39305
 Alpha virt. eigenvalues --    0.42546   0.43238   0.45403   0.47296   0.47387
 Alpha virt. eigenvalues --    0.51488   0.53831   0.56496   0.60331   0.61236
 Alpha virt. eigenvalues --    0.63767   0.84708   0.89747   0.94115   0.99242
 Alpha virt. eigenvalues --    1.04396   1.06949   1.08630   1.10107   1.11268
 Alpha virt. eigenvalues --    1.11288   1.14317   1.15319   1.17572   1.19319
 Alpha virt. eigenvalues --    1.19827   1.21091   1.24062   1.29926   1.34428
 Alpha virt. eigenvalues --    1.35822   1.41127   1.46721   1.47082   1.53216
 Alpha virt. eigenvalues --    1.54258   1.60402   1.65371   1.66158   1.66534
 Alpha virt. eigenvalues --    1.69485   1.73059   1.74293   1.76451   1.78989
 Alpha virt. eigenvalues --    1.82213   1.83845   1.84150   1.86188   1.87442
 Alpha virt. eigenvalues --    1.89438   1.92634   1.95943   2.01021   2.04349
 Alpha virt. eigenvalues --    2.16478   2.17808   2.17902   2.50719   2.67349
 Alpha virt. eigenvalues --    3.00529   3.38858   3.87255   3.89013   4.00832
 Alpha virt. eigenvalues --    4.08745   4.08990
          Condensed to atoms (all electrons):
              1          2          3          4          5          6
     1  O    8.529449  -0.001266   0.079160   0.111335  -0.074567  -0.001243
     2  O   -0.001266   8.576897   0.094660  -0.004140  -0.000414  -0.050490
     3  Ca   0.079160   0.094660  18.244204  -0.018408   0.022364   0.094629
     4  P    0.111335  -0.004140  -0.018408  14.415349  -0.159697  -0.004163
     5  O   -0.074567  -0.000414   0.022364  -0.159697   8.921076  -0.000426
     6  O   -0.001243  -0.050490   0.094629  -0.004163  -0.000426   8.577003
     7  Ca   0.001055   0.050865  -0.016940  -0.012404   0.005512   0.050842
     8  O    0.000000   0.000574   0.001292  -0.001398  -0.005215   0.000566
     9  Ca   0.003482   0.027604  -0.004184  -0.006705   0.034090   0.027655
              7          8          9
     1  O    0.001055   0.000000   0.003482
     2  O    0.050865   0.000574   0.027604
     3  Ca  -0.016940   0.001292  -0.004184
     4  P   -0.012404  -0.001398  -0.006705
     5  O    0.005512  -0.005215   0.034090
     6  O    0.050842   0.000566   0.027655
     7  Ca  18.361406   0.224137  -0.027443
     8  O    0.224137   8.679332   0.224549
     9  Ca  -0.027443   0.224549  18.364747
 Mulliken atomic charges:
              1
     1  O   -0.647404
     2  O   -0.694290
     3  Ca   1.503224
     4  P    0.680231
     5  O   -0.742723
     6  O   -0.694374
     7  Ca   1.362970
     8  O   -1.123837
     9  Ca   1.356204
 Sum of Mulliken charges=   1.00000
 Atomic charges with hydrogens summed into heavy atoms:
              1
     1  O   -0.647404
     2  O   -0.694290
     3  Ca   1.503224
     4  P    0.680231
     5  O   -0.742723
     6  O   -0.694374
     7  Ca   1.362970
     8  O   -1.123837
     9  Ca   1.356204
 Sum of Mulliken charges=   1.00000
 Electronic spatial extent (au):  <R**2>=  2764.5777
 Charge=     1.0000 electrons
 Dipole moment (field-independent basis, Debye):
    X=     0.3539    Y=    -7.6398    Z=     0.0063  Tot=     7.6480
 Quadrupole moment (field-independent basis, Debye-Ang):
   XX=   -63.4133   YY=   -57.0610   ZZ=   -77.2560
   XY=    23.1650   XZ=     0.0297   YZ=    -0.0053
 Traceless Quadrupole moment (field-independent basis, Debye-Ang):
   XX=     2.4968   YY=     8.8491   ZZ=   -11.3459
   XY=    23.1650   XZ=     0.0297   YZ=    -0.0053
 Octapole moment (field-independent basis, Debye-Ang**2):
  XXX=  -107.7632  YYY=   -38.0132  ZZZ=     0.0182  XYY=    27.7590
  XXY=  -109.5249  XXZ=     0.0165  XZZ=     2.9070  YZZ=    -3.4964
  YYZ=     0.0435  XYZ=    -0.0886
 Hexadecapole moment (field-independent basis, Debye-Ang**3):
 XXXX= -2335.0731 YYYY=  -569.6750 ZZZZ=  -129.5770 XXXY=   483.7614
 XXXZ=     0.4395 YYYX=     2.8906 YYYZ=     0.0011 ZZZX=     0.0651
 ZZZY=     0.0049 XXYY=  -575.9994 XXZZ=  -421.9359 YYZZ=  -130.0570
 XXYZ=     0.0210 YYXZ=     0.0451 ZZXY=     6.1407
 N-N= 9.783763902372D+02 E-N=-8.456752022257D+03  KE= 2.742195160193D+03
 Merz-Kollman atomic radii used.
 Read replacement radii for each type of atom:
 Rad(20) =   1.188000000000D+00
 Atom Element Radius
    1     8    1.40
    2     8    1.40
    3    20    1.19
    4    15    1.80
    5     8    1.40
    6     8    1.40
    7    20    1.19
    8     8    1.40
    9    20    1.19

 **********************************************************************

            Electrostatic Properties Using The SCF Density

 **********************************************************************

       Atomic Center    1 is at   3.410900 -0.653189 -0.001982
       Atomic Center    2 is at  -0.822170 -0.880108  0.778018
       Atomic Center    3 is at   1.221820 -1.492458  0.001218
       Atomic Center    4 is at   3.170521  0.867031 -0.001202
       Atomic Center    5 is at   1.613091  1.040211  0.001928
       Atomic Center    6 is at  -0.821290 -0.879798 -0.777512
       Atomic Center    7 is at  -3.075930 -0.693927 -0.001032
       Atomic Center    8 is at  -2.874839  1.416033 -0.000562
       Atomic Center    9 is at  -0.726059  1.518852  0.000758
     878 points will be used for fitting atomic charges
 Fitting point charges to eletrostatic potential
 Charges from ESP fit, RMS=   0.00499 RRMS=   0.03332:
 Charge=   1.00000 Dipole=     0.0777    -7.7063     0.0053 Tot=     7.7067
              1
     1  O   -0.647961
     2  O   -0.868226
     3  Ca   1.731742
     4  P    0.596575
     5  O   -0.762809
     6  O   -0.868145
     7  Ca   1.631109
     8  O   -1.478092
     9  Ca   1.665807
 -----------------------------------------------------------------

              Electrostatic Properties (Atomic Units)

 -----------------------------------------------------------------
    Center     Electric         -------- Electric Field --------
               Potential          X             Y             Z
 -----------------------------------------------------------------
    1 Atom    -22.175284
    2 Atom    -22.188375
    3 Atom    -80.007458
    4 Atom    -53.900340
    5 Atom    -22.165614
    6 Atom    -22.188379
    7 Atom    -80.060485
    8 Atom    -22.360317
    9 Atom    -80.075574
 -----------------------------------------------------------------
 1\1\GINC-N035\SP\RB3LYP\6-31+G(d,p)\Ca3O5P1(1+)\TIMN\12-Jun-2015\0\\# 
 b3lyp/6-31+G(d,p) int=ultrafine pop=(ReadRadii,MK)\\mol_17.29.13.pdbcc
 _plusQ.z58593.zip.xyz\\1,1\O,0,3.4109,-0.65319,-0.00198\O,0,-0.82217,-
 0.88011,0.77802\Ca,0,1.22182,-1.49246,0.00122\P,0,3.17052,0.86703,-0.0
 012\O,0,1.61309,1.04021,0.00193\O,0,-0.82129,-0.8798,-0.77751\Ca,0,-3.
 07593,-0.69393,-0.00103\O,0,-2.87484,1.41603,-0.00056\Ca,0,-0.72606,1.
 51885,0.00076\\Version=EM64T-G03RevE.01\State=1-A\HF=-2750.1992276\RMS
 D=8.779e-05\Thermal=0.\Dipole=0.1392367,-3.005732,0.0024714\PG=C01 [X(
 Ca3O5P1)]\\@


 Sometimes the fool who rushes in gets the job done.
                                    -- Al Bernstein
 Job cpu time:  0 days  0 hours  1 minutes 56.9 seconds.
 File lengths (MBytes):  RWF=     36 Int=      0 D2E=      0 Chk=     11 Scr=      1
 Normal termination of Gaussian 03 at Fri Jun 12 18:11:30 2015.
