 Entering Gaussian System, Link 0=/home/timn/tmp/g03.e01/g03
 Input=mol_17.27.35.pdbc_plusQ.z58501.zip.xyz.gjf
 Output=mol_17.27.35.pdbc_plusQ.z58501.zip.xyz.out
 Initial command:
 /home/timn/tmp/g03.e01/l1.exe /home/timn/tmp/g03.e01/Gau-17639.inp -scrdir=/home/timn/tmp/g03.e01/
 Default is to use a total of   2 processors:
                                2 via shared-memory
                                1 via Linda
 Entering Link 1 = /home/timn/tmp/g03.e01/l1.exe PID=     17642.
  
 Copyright (c) 1988,1990,1992,1993,1995,1998,2003,2004,2007, Gaussian, Inc.
                  All Rights Reserved.
  
 This is the Gaussian(R) 03 program.  It is based on the
 the Gaussian(R) 98 system (copyright 1998, Gaussian, Inc.),
 the Gaussian(R) 94 system (copyright 1995, Gaussian, Inc.),
 the Gaussian 92(TM) system (copyright 1992, Gaussian, Inc.),
 the Gaussian 90(TM) system (copyright 1990, Gaussian, Inc.),
 the Gaussian 88(TM) system (copyright 1988, Gaussian, Inc.),
 the Gaussian 86(TM) system (copyright 1986, Carnegie Mellon
 University), and the Gaussian 82(TM) system (copyright 1983,
 Carnegie Mellon University). Gaussian is a federally registered
 trademark of Gaussian, Inc.
  
 This software contains proprietary and confidential information,
 including trade secrets, belonging to Gaussian, Inc.
  
 This software is provided under written license and may be
 used, copied, transmitted, or stored only in accord with that
 written license.
  
 The following legend is applicable only to US Government
 contracts under FAR:
  
                    RESTRICTED RIGHTS LEGEND
  
 Use, reproduction and disclosure by the US Government is
 subject to restrictions as set forth in subparagraphs (a)
 and (c) of the Commercial Computer Software - Restricted
 Rights clause in FAR 52.227-19.
  
 Gaussian, Inc.
 340 Quinnipiac St., Bldg. 40, Wallingford CT 06492
  
  
 ---------------------------------------------------------------
 Warning -- This program may not be used in any manner that
 competes with the business of Gaussian, Inc. or will provide
 assistance to any competitor of Gaussian, Inc.  The licensee
 of this program is prohibited from giving any competitor of
 Gaussian, Inc. access to this program.  By using this program,
 the user acknowledges that Gaussian, Inc. is engaged in the
 business of creating and licensing software in the field of
 computational chemistry and represents and warrants to the
 licensee that it is not a competitor of Gaussian, Inc. and that
 it will not use this program in any manner prohibited above.
 ---------------------------------------------------------------
  

 Cite this work as:
 Gaussian 03, Revision E.01,
 M. J. Frisch, G. W. Trucks, H. B. Schlegel, G. E. Scuseria, 
 M. A. Robb, J. R. Cheeseman, J. A. Montgomery, Jr., T. Vreven, 
 K. N. Kudin, J. C. Burant, J. M. Millam, S. S. Iyengar, J. Tomasi, 
 V. Barone, B. Mennucci, M. Cossi, G. Scalmani, N. Rega, 
 G. A. Petersson, H. Nakatsuji, M. Hada, M. Ehara, K. Toyota, 
 R. Fukuda, J. Hasegawa, M. Ishida, T. Nakajima, Y. Honda, O. Kitao, 
 H. Nakai, M. Klene, X. Li, J. E. Knox, H. P. Hratchian, J. B. Cross, 
 V. Bakken, C. Adamo, J. Jaramillo, R. Gomperts, R. E. Stratmann, 
 O. Yazyev, A. J. Austin, R. Cammi, C. Pomelli, J. W. Ochterski, 
 P. Y. Ayala, K. Morokuma, G. A. Voth, P. Salvador, J. J. Dannenberg, 
 V. G. Zakrzewski, S. Dapprich, A. D. Daniels, M. C. Strain, 
 O. Farkas, D. K. Malick, A. D. Rabuck, K. Raghavachari, 
 J. B. Foresman, J. V. Ortiz, Q. Cui, A. G. Baboul, S. Clifford, 
 J. Cioslowski, B. B. Stefanov, G. Liu, A. Liashenko, P. Piskorz, 
 I. Komaromi, R. L. Martin, D. J. Fox, T. Keith, M. A. Al-Laham, 
 C. Y. Peng, A. Nanayakkara, M. Challacombe, P. M. W. Gill, 
 B. Johnson, W. Chen, M. W. Wong, C. Gonzalez, and J. A. Pople, 
 Gaussian, Inc., Wallingford CT, 2004.
 
 ******************************************
 Gaussian 03:  EM64T-G03RevE.01 11-Sep-2007
                12-Jun-2015 
 ******************************************
 %nproc=2
 Will use up to    2 processors via shared memory.
 Default route:  MP2=Direct MaxDisk=2000MB
 ----------------------------------------------------
 # b3lyp/6-31+G(d,p) int=ultrafine pop=(ReadRadii,MK)
 ----------------------------------------------------

 Warning!  SCF SP cutoffs with diffuse functions may be unreliable.
 Consider SCF=Tight

 1/38=1/1;
 2/17=6,18=5,40=1/2;
 3/5=1,6=6,7=111,11=2,16=1,25=1,30=1,74=-5,75=5/1,2,3;
 4//1;
 5/5=2,32=1,38=5/2;
 6/7=2,8=2,9=2,10=2,15=8,20=101,28=1/1,2;
 99/5=1,9=1/99;
 --------------------------------------
 mol_17.27.35.pdbc_plusQ.z58501.zip.xyz
 --------------------------------------
 Symbolic Z-matrix:
 Charge =  1 Multiplicity = 1
 O                     0.        0.68349   0. 
 O                     1.47062  -1.09373   0. 
 O                    -0.28328  -2.60502   0. 
 P                    -0.12045  -0.97241   0. 
 Ca                   -2.43543  -2.8782    0. 
 O                    -1.77371  -0.78282   0. 
 Ca                   -0.34267   2.89213   0. 
 Ca                    2.39373   1.00134   0. 
 O                     1.77312   3.08319   0. 
 
                          Input orientation:                          
 ---------------------------------------------------------------------
 Center     Atomic     Atomic              Coordinates (Angstroms)
 Number     Number      Type              X           Y           Z
 ---------------------------------------------------------------------
    1          8             0        0.000000    0.683490    0.000000
    2          8             0        1.470620   -1.093730    0.000000
    3          8             0       -0.283280   -2.605020    0.000000
    4         15             0       -0.120450   -0.972410    0.000000
    5         20             0       -2.435430   -2.878200    0.000000
    6          8             0       -1.773710   -0.782820    0.000000
    7         20             0       -0.342670    2.892130    0.000000
    8         20             0        2.393730    1.001340    0.000000
    9          8             0        1.773120    3.083190    0.000000
 ---------------------------------------------------------------------
                    Distance matrix (angstroms):
                    1          2          3          4          5
     1  O    0.000000
     2  O    2.306780   0.000000
     3  O    3.300689   2.315203   0.000000
     4  P    1.660275   1.595689   1.640710   0.000000
     5  Ca   4.314737   4.294364   2.169419   2.998528   0.000000
     6  O    2.301328   3.259193   2.354102   1.664095   2.197383
     7  Ca   2.235065   4.378938   5.497471   3.870924   6.138107
     8  Ca   2.414741   2.289421   4.491349   3.196371   6.194483
     9  O    2.983708   4.187859   6.048513   4.475880   7.297264
                    6          7          8          9
     6  O    0.000000
     7  Ca   3.943746   0.000000
     8  Ca   4.533297   3.326105   0.000000
     9  O    5.246526   2.124399   2.172385   0.000000
 Stoichiometry    Ca3O5P(1+)
 Framework group  CS[SG(Ca3O5P)]
 Deg. of freedom    15
 Full point group                 CS
 Largest Abelian subgroup         CS      NOp   2
 Largest concise Abelian subgroup C1      NOp   1
                         Standard orientation:                         
 ---------------------------------------------------------------------
 Center     Atomic     Atomic              Coordinates (Angstroms)
 Number     Number      Type              X           Y           Z
 ---------------------------------------------------------------------
    1          8             0        0.000000    0.683489    0.000000
    2          8             0        1.470623   -1.093728    0.000000
    3          8             0       -0.283274   -2.605022    0.000000
    4         15             0       -0.120447   -0.972411    0.000000
    5         20             0       -2.435423   -2.878206    0.000000
    6          8             0       -1.773707   -0.782825    0.000000
    7         20             0       -0.342674    2.892128    0.000000
    8         20             0        2.393729    1.001343    0.000000
    9          8             0        1.773115    3.083192    0.000000
 ---------------------------------------------------------------------
 Rotational constants (GHZ):      1.5079484      0.3875113      0.3082878
 Standard basis: 6-31+G(d,p) (6D, 7F)
 There are   147 symmetry adapted basis functions of A'  symmetry.
 There are    52 symmetry adapted basis functions of A"  symmetry.
 Integral buffers will be    131072 words long.
 Raffenetti 2 integral format.
 Two-electron integral symmetry is turned on.
   199 basis functions,   456 primitive gaussians,   199 cartesian basis functions
    57 alpha electrons       57 beta electrons
       nuclear repulsion energy       966.5607635711 Hartrees.
 NAtoms=    9 NActive=    9 NUniq=    9 SFac= 7.50D-01 NAtFMM=   80 NAOKFM=F Big=F
 One-electron integrals computed using PRISM.
 NBasis=   199 RedAO= T  NBF=   147    52
 NBsUse=   199 1.00D-06 NBFU=   147    52
 Harris functional with IExCor=  402 diagonalized for initial guess.
 ExpMin= 7.10D-03 ExpMax= 3.53D+04 ExpMxC= 5.30D+03 IAcc=3 IRadAn=         5 AccDes= 0.00D+00
 HarFok:  IExCor= 402 AccDes= 0.00D+00 IRadAn=         5 IDoV=1
 ScaDFX=  1.000000  1.000000  1.000000  1.000000
 Initial guess orbital symmetries:
       Occupied  (A') (A') (A') (A') (A') (A') (A') (A') (A') (A')
                 (A') (A') (A') (A') (A') (A") (A') (A") (A') (A')
                 (A") (A') (A') (A') (A") (A') (A') (A') (A') (A')
                 (A') (A') (A') (A') (A") (A") (A") (A') (A') (A')
                 (A') (A') (A') (A') (A') (A') (A") (A') (A') (A")
                 (A') (A") (A") (A') (A') (A") (A')
       Virtual   (A') (A") (A') (A') (A') (A") (A") (A') (A') (A')
                 (A") (A') (A') (A') (A') (A') (A") (A") (A') (A')
                 (A") (A') (A') (A') (A') (A') (A") (A') (A') (A")
                 (A') (A') (A") (A') (A") (A') (A') (A') (A") (A")
                 (A') (A') (A") (A') (A") (A') (A') (A') (A') (A")
                 (A') (A') (A') (A") (A") (A') (A') (A") (A') (A')
                 (A") (A') (A') (A') (A") (A') (A') (A") (A') (A')
                 (A') (A') (A') (A') (A") (A') (A') (A') (A') (A')
                 (A') (A") (A") (A') (A') (A') (A') (A') (A') (A")
                 (A') (A") (A") (A') (A") (A') (A') (A") (A') (A')
                 (A') (A') (A') (A') (A') (A') (A') (A') (A') (A')
                 (A") (A") (A') (A") (A") (A") (A") (A') (A") (A')
                 (A") (A') (A') (A') (A') (A') (A') (A') (A") (A')
                 (A") (A') (A') (A') (A') (A') (A') (A') (A') (A')
                 (A') (A')
 The electronic state of the initial guess is 1-A'.
 Requested convergence on RMS density matrix=1.00D-04 within 128 cycles.
 Requested convergence on MAX density matrix=1.00D-02.
 Requested convergence on             energy=1.00D-02.
 No special actions if energy rises.
 EnCoef did     3 forward-backward iterations
 EnCoef did   100 forward-backward iterations
 EnCoef did   100 forward-backward iterations
 EnCoef did     2 forward-backward iterations
 SCF Done:  E(RB+HF-LYP) =  -2750.14506295     A.U. after   10 cycles
             Convg  =    0.9828D-04             -V/T =  2.0029
             S**2   =   0.0000

 **********************************************************************

            Population analysis using the SCF density.

 **********************************************************************

 Orbital symmetries:
       Occupied  (A') (A') (A') (A') (A') (A') (A') (A') (A') (A')
                 (A') (A') (A") (A') (A') (A") (A') (A') (A") (A')
                 (A') (A') (A") (A') (A') (A') (A') (A') (A") (A')
                 (A') (A") (A') (A') (A") (A') (A') (A') (A') (A')
                 (A') (A') (A') (A') (A') (A") (A') (A') (A") (A")
                 (A') (A') (A") (A') (A') (A") (A')
       Virtual   (A') (A') (A') (A") (A') (A') (A") (A") (A') (A')
                 (A") (A') (A') (A') (A") (A') (A') (A') (A") (A')
                 (A') (A") (A') (A') (A') (A") (A') (A') (A') (A')
                 (A') (A") (A') (A") (A') (A') (A') (A") (A") (A')
                 (A") (A') (A") (A') (A") (A') (A') (A') (A") (A')
                 (A') (A") (A') (A') (A") (A') (A") (A') (A") (A')
                 (A') (A') (A") (A') (A') (A") (A') (A') (A') (A')
                 (A') (A') (A') (A") (A') (A') (A') (A') (A') (A')
                 (A") (A') (A") (A') (A') (A') (A') (A') (A') (A')
                 (A') (A") (A") (A") (A') (A") (A') (A") (A') (A')
                 (A') (A') (A') (A') (A') (A') (A') (A') (A') (A')
                 (A') (A") (A") (A") (A") (A") (A') (A') (A") (A")
                 (A") (A') (A') (A') (A') (A') (A') (A") (A') (A")
                 (A') (A') (A') (A') (A') (A') (A') (A') (A') (A')
                 (A') (A')
 The electronic state is 1-A'.
 Alpha  occ. eigenvalues -- -145.54045-145.47741-145.44141 -77.31529 -19.19563
 Alpha  occ. eigenvalues --  -19.19485 -19.19263 -19.18588 -19.10691 -15.60878
 Alpha  occ. eigenvalues --  -15.54578 -15.51100 -12.74121 -12.74023 -12.73992
 Alpha  occ. eigenvalues --  -12.67823 -12.67738 -12.67666 -12.64370 -12.64297
 Alpha  occ. eigenvalues --  -12.64116  -6.75413  -4.92282  -4.91573  -4.91492
 Alpha  occ. eigenvalues --   -1.98001  -1.91822  -1.88517  -1.25709  -1.25355
 Alpha  occ. eigenvalues --   -1.25205  -1.19644  -1.19472  -1.18739  -1.16576
 Alpha  occ. eigenvalues --   -1.16344  -1.15457  -1.08331  -1.00640  -1.00367
 Alpha  occ. eigenvalues --   -0.95173  -0.84523  -0.61711  -0.51531  -0.49890
 Alpha  occ. eigenvalues --   -0.48670  -0.45557  -0.40064  -0.39459  -0.38392
 Alpha  occ. eigenvalues --   -0.36473  -0.35045  -0.34561  -0.30970  -0.30040
 Alpha  occ. eigenvalues --   -0.28555  -0.28226
 Alpha virt. eigenvalues --   -0.22186  -0.18019  -0.14670  -0.13272  -0.12723
 Alpha virt. eigenvalues --   -0.12254  -0.11283  -0.10094  -0.08396  -0.08072
 Alpha virt. eigenvalues --   -0.07616  -0.07418  -0.06836  -0.05698  -0.05142
 Alpha virt. eigenvalues --   -0.04922  -0.04457  -0.04258  -0.04001  -0.03613
 Alpha virt. eigenvalues --   -0.03408  -0.03266  -0.03197  -0.03025  -0.02080
 Alpha virt. eigenvalues --   -0.01901  -0.01421  -0.00685   0.00554   0.01467
 Alpha virt. eigenvalues --    0.02612   0.03757   0.03815   0.04033   0.04289
 Alpha virt. eigenvalues --    0.06061   0.06249   0.06302   0.06595   0.07215
 Alpha virt. eigenvalues --    0.08093   0.08201   0.08848   0.10380   0.10579
 Alpha virt. eigenvalues --    0.10685   0.11273   0.12445   0.13268   0.13647
 Alpha virt. eigenvalues --    0.14694   0.15340   0.16667   0.17990   0.18292
 Alpha virt. eigenvalues --    0.19393   0.20572   0.20908   0.24306   0.24868
 Alpha virt. eigenvalues --    0.25180   0.25901   0.25990   0.27570   0.28522
 Alpha virt. eigenvalues --    0.28752   0.30845   0.32320   0.33380   0.33668
 Alpha virt. eigenvalues --    0.34792   0.38337   0.38739   0.39036   0.39517
 Alpha virt. eigenvalues --    0.40641   0.43418   0.50631   0.50977   0.52721
 Alpha virt. eigenvalues --    0.57248   0.58092   0.58445   0.59686   0.66805
 Alpha virt. eigenvalues --    0.74768   0.79845   0.94049   1.00834   1.04542
 Alpha virt. eigenvalues --    1.11571   1.11859   1.13534   1.15214   1.16179
 Alpha virt. eigenvalues --    1.16621   1.18177   1.18333   1.19637   1.24444
 Alpha virt. eigenvalues --    1.26375   1.26765   1.29466   1.33946   1.37417
 Alpha virt. eigenvalues --    1.40629   1.45939   1.53713   1.57748   1.61487
 Alpha virt. eigenvalues --    1.67909   1.70887   1.74097   1.75963   1.76852
 Alpha virt. eigenvalues --    1.78923   1.79216   1.80427   1.82576   1.86979
 Alpha virt. eigenvalues --    1.87688   1.88164   1.91010   1.93308   1.96200
 Alpha virt. eigenvalues --    1.97349   1.98165   1.98544   2.00401   2.00557
 Alpha virt. eigenvalues --    2.06741   2.12740   2.42786   2.45671   2.52812
 Alpha virt. eigenvalues --    2.88014   3.64265   4.00298   4.05063   4.09472
 Alpha virt. eigenvalues --    4.13130   4.24332
          Condensed to atoms (all electrons):
              1          2          3          4          5          6
     1  O   10.213899  -0.296797  -0.378143  -0.214192  -0.003251  -0.124497
     2  O   -0.296797   9.163994  -0.054145   0.248286   0.008188  -0.200912
     3  O   -0.378143  -0.054145   9.338440   0.130341   0.113369  -0.202974
     4  P   -0.214192   0.248286   0.130341  12.735711  -0.004924   0.177160
     5  Ca  -0.003251   0.008188   0.113369  -0.004924  18.290747   0.090691
     6  O   -0.124497  -0.200912  -0.202974   0.177160   0.090691   9.231997
     7  Ca   0.061259  -0.001705   0.001422   0.000722  -0.003977  -0.002120
     8  Ca  -0.015879   0.078675   0.003705  -0.003064   0.005785  -0.002547
     9  O   -0.004488  -0.002516  -0.000356  -0.002063   0.000646  -0.000086
              7          8          9
     1  O    0.061259  -0.015879  -0.004488
     2  O   -0.001705   0.078675  -0.002516
     3  O    0.001422   0.003705  -0.000356
     4  P    0.000722  -0.003064  -0.002063
     5  Ca  -0.003977   0.005785   0.000646
     6  O   -0.002120  -0.002547  -0.000086
     7  Ca  18.345010  -0.022253   0.221096
     8  Ca  -0.022253  18.336855   0.200207
     9  O    0.221096   0.200207   8.742022
 Mulliken atomic charges:
              1
     1  O   -1.237910
     2  O   -0.943068
     3  O   -0.951660
     4  P    1.932024
     5  Ca   1.502726
     6  O   -0.966713
     7  Ca   1.400547
     8  Ca   1.418516
     9  O   -1.154463
 Sum of Mulliken charges=   1.00000
 Atomic charges with hydrogens summed into heavy atoms:
              1
     1  O   -1.237910
     2  O   -0.943068
     3  O   -0.951660
     4  P    1.932024
     5  Ca   1.502726
     6  O   -0.966713
     7  Ca   1.400547
     8  Ca   1.418516
     9  O   -1.154463
 Sum of Mulliken charges=   1.00000
 Electronic spatial extent (au):  <R**2>=  3027.3570
 Charge=     1.0000 electrons
 Dipole moment (field-independent basis, Debye):
    X=   -12.5747    Y=    -5.0734    Z=     0.0000  Tot=    13.5596
 Quadrupole moment (field-independent basis, Debye-Ang):
   XX=   -25.5546   YY=   -36.1735   ZZ=   -72.4619
   XY=    25.4413   XZ=     0.0000   YZ=     0.0000
 Traceless Quadrupole moment (field-independent basis, Debye-Ang):
   XX=    19.1754   YY=     8.5565   ZZ=   -27.7319
   XY=    25.4413   XZ=     0.0000   YZ=     0.0000
 Octapole moment (field-independent basis, Debye-Ang**2):
  XXX=   -46.3164  YYY=  -129.5752  ZZZ=     0.0000  XYY=  -280.0661
  XXY=  -134.2692  XXZ=     0.0000  XZZ=    -8.1876  YZZ=    -5.8563
  YYZ=     0.0000  XYZ=     0.0000
 Hexadecapole moment (field-independent basis, Debye-Ang**3):
 XXXX=  -668.0876 YYYY= -1694.8154 ZZZZ=   -81.9453 XXXY=   -58.2073
 XXXZ=     0.0000 YYYX=  -338.5589 YYYZ=     0.0000 ZZZX=     0.0000
 ZZZY=     0.0000 XXYY=  -286.9414 XXZZ=  -194.2711 YYZZ=  -343.0943
 XXYZ=     0.0000 YYXZ=     0.0000 ZZXY=  -128.2575
 N-N= 9.665607635711D+02 E-N=-8.436741804968D+03  KE= 2.742172684203D+03
 Symmetry A'   KE= 2.476492557232D+03
 Symmetry A"   KE= 2.656801269709D+02
 Merz-Kollman atomic radii used.
 Read replacement radii for each type of atom:
 Rad(20) =   1.188000000000D+00
 Atom Element Radius
    1     8    1.40
    2     8    1.40
    3     8    1.40
    4    15    1.80
    5    20    1.19
    6     8    1.40
    7    20    1.19
    8    20    1.19
    9     8    1.40

 **********************************************************************

            Electrostatic Properties Using The SCF Density

 **********************************************************************

       Atomic Center    1 is at   0.000000  0.683489  0.000000
       Atomic Center    2 is at   1.470623 -1.093728  0.000000
       Atomic Center    3 is at  -0.283274 -2.605022  0.000000
       Atomic Center    4 is at  -0.120447 -0.972411  0.000000
       Atomic Center    5 is at  -2.435423 -2.878206  0.000000
       Atomic Center    6 is at  -1.773707 -0.782825  0.000000
       Atomic Center    7 is at  -0.342674  2.892128  0.000000
       Atomic Center    8 is at   2.393729  1.001343  0.000000
       Atomic Center    9 is at   1.773115  3.083192  0.000000
     777 points will be used for fitting atomic charges
 Fitting point charges to eletrostatic potential
 Charges from ESP fit, RMS=   0.00481 RRMS=   0.03156:
 Charge=   1.00000 Dipole=   -12.7579    -4.8948     0.0000 Tot=    13.6647
              1
     1  O   -1.167625
     2  O   -0.917031
     3  O   -0.978433
     4  P    1.649879
     5  Ca   1.644850
     6  O   -1.036510
     7  Ca   1.636025
     8  Ca   1.680154
     9  O   -1.511311
 -----------------------------------------------------------------

              Electrostatic Properties (Atomic Units)

 -----------------------------------------------------------------
    Center     Electric         -------- Electric Field --------
               Potential          X             Y             Z
 -----------------------------------------------------------------
    1 Atom    -22.265351
    2 Atom    -22.288790
    3 Atom    -22.284389
    4 Atom    -53.888023
    5 Atom    -79.995234
    6 Atom    -22.261812
    7 Atom    -80.067583
    8 Atom    -80.106218
    9 Atom    -22.389559
 -----------------------------------------------------------------
 1\1\GINC-N028\SP\RB3LYP\6-31+G(d,p)\Ca3O5P1(1+)\TIMN\12-Jun-2015\0\\# 
 b3lyp/6-31+G(d,p) int=ultrafine pop=(ReadRadii,MK)\\mol_17.27.35.pdbc_
 plusQ.z58501.zip.xyz\\1,1\O,0,0.,0.68349,0.\O,0,1.47062,-1.09373,0.\O,
 0,-0.28328,-2.60502,0.\P,0,-0.12045,-0.97241,0.\Ca,0,-2.43543,-2.8782,
 0.\O,0,-1.77371,-0.78282,0.\Ca,0,-0.34267,2.89213,0.\Ca,0,2.39373,1.00
 134,0.\O,0,1.77312,3.08319,0.\\Version=EM64T-G03RevE.01\State=1-A'\HF=
 -2750.145063\RMSD=9.828e-05\Thermal=0.\Dipole=-4.9472773,-1.9960118,0.
 \PG=CS [SG(Ca3O5P1)]\\@


 MARY HAD A LITTLE LAMB
      HIS FEET WERE BLACK AS SOOT,
           AND EVERYWHERE THAT MARY WENT
                HIS SOOTY FOOT HE PUT.

                    -- NONAME
 Job cpu time:  0 days  0 hours  1 minutes 53.3 seconds.
 File lengths (MBytes):  RWF=     36 Int=      0 D2E=      0 Chk=     11 Scr=      1
 Normal termination of Gaussian 03 at Fri Jun 12 18:06:34 2015.
