 Entering Gaussian System, Link 0=/home/timn/tmp/g03.e01/g03
 Input=mol_17.23.26.pdbcc_plusQ.z58227.zip.xyz.gjf
 Output=mol_17.23.26.pdbcc_plusQ.z58227.zip.xyz.out
 Initial command:
 /home/timn/tmp/g03.e01/l1.exe /home/timn/tmp/g03.e01/Gau-17002.inp -scrdir=/home/timn/tmp/g03.e01/
 Default is to use a total of   2 processors:
                                2 via shared-memory
                                1 via Linda
 Entering Link 1 = /home/timn/tmp/g03.e01/l1.exe PID=     17003.
  
 Copyright (c) 1988,1990,1992,1993,1995,1998,2003,2004,2007, Gaussian, Inc.
                  All Rights Reserved.
  
 This is the Gaussian(R) 03 program.  It is based on the
 the Gaussian(R) 98 system (copyright 1998, Gaussian, Inc.),
 the Gaussian(R) 94 system (copyright 1995, Gaussian, Inc.),
 the Gaussian 92(TM) system (copyright 1992, Gaussian, Inc.),
 the Gaussian 90(TM) system (copyright 1990, Gaussian, Inc.),
 the Gaussian 88(TM) system (copyright 1988, Gaussian, Inc.),
 the Gaussian 86(TM) system (copyright 1986, Carnegie Mellon
 University), and the Gaussian 82(TM) system (copyright 1983,
 Carnegie Mellon University). Gaussian is a federally registered
 trademark of Gaussian, Inc.
  
 This software contains proprietary and confidential information,
 including trade secrets, belonging to Gaussian, Inc.
  
 This software is provided under written license and may be
 used, copied, transmitted, or stored only in accord with that
 written license.
  
 The following legend is applicable only to US Government
 contracts under FAR:
  
                    RESTRICTED RIGHTS LEGEND
  
 Use, reproduction and disclosure by the US Government is
 subject to restrictions as set forth in subparagraphs (a)
 and (c) of the Commercial Computer Software - Restricted
 Rights clause in FAR 52.227-19.
  
 Gaussian, Inc.
 340 Quinnipiac St., Bldg. 40, Wallingford CT 06492
  
  
 ---------------------------------------------------------------
 Warning -- This program may not be used in any manner that
 competes with the business of Gaussian, Inc. or will provide
 assistance to any competitor of Gaussian, Inc.  The licensee
 of this program is prohibited from giving any competitor of
 Gaussian, Inc. access to this program.  By using this program,
 the user acknowledges that Gaussian, Inc. is engaged in the
 business of creating and licensing software in the field of
 computational chemistry and represents and warrants to the
 licensee that it is not a competitor of Gaussian, Inc. and that
 it will not use this program in any manner prohibited above.
 ---------------------------------------------------------------
  

 Cite this work as:
 Gaussian 03, Revision E.01,
 M. J. Frisch, G. W. Trucks, H. B. Schlegel, G. E. Scuseria, 
 M. A. Robb, J. R. Cheeseman, J. A. Montgomery, Jr., T. Vreven, 
 K. N. Kudin, J. C. Burant, J. M. Millam, S. S. Iyengar, J. Tomasi, 
 V. Barone, B. Mennucci, M. Cossi, G. Scalmani, N. Rega, 
 G. A. Petersson, H. Nakatsuji, M. Hada, M. Ehara, K. Toyota, 
 R. Fukuda, J. Hasegawa, M. Ishida, T. Nakajima, Y. Honda, O. Kitao, 
 H. Nakai, M. Klene, X. Li, J. E. Knox, H. P. Hratchian, J. B. Cross, 
 V. Bakken, C. Adamo, J. Jaramillo, R. Gomperts, R. E. Stratmann, 
 O. Yazyev, A. J. Austin, R. Cammi, C. Pomelli, J. W. Ochterski, 
 P. Y. Ayala, K. Morokuma, G. A. Voth, P. Salvador, J. J. Dannenberg, 
 V. G. Zakrzewski, S. Dapprich, A. D. Daniels, M. C. Strain, 
 O. Farkas, D. K. Malick, A. D. Rabuck, K. Raghavachari, 
 J. B. Foresman, J. V. Ortiz, Q. Cui, A. G. Baboul, S. Clifford, 
 J. Cioslowski, B. B. Stefanov, G. Liu, A. Liashenko, P. Piskorz, 
 I. Komaromi, R. L. Martin, D. J. Fox, T. Keith, M. A. Al-Laham, 
 C. Y. Peng, A. Nanayakkara, M. Challacombe, P. M. W. Gill, 
 B. Johnson, W. Chen, M. W. Wong, C. Gonzalez, and J. A. Pople, 
 Gaussian, Inc., Wallingford CT, 2004.
 
 ******************************************
 Gaussian 03:  EM64T-G03RevE.01 11-Sep-2007
                12-Jun-2015 
 ******************************************
 %nproc=2
 Will use up to    2 processors via shared memory.
 Default route:  MP2=Direct MaxDisk=2000MB
 ----------------------------------------------------
 # b3lyp/6-31+G(d,p) int=ultrafine pop=(ReadRadii,MK)
 ----------------------------------------------------

 Warning!  SCF SP cutoffs with diffuse functions may be unreliable.
 Consider SCF=Tight

 1/38=1/1;
 2/17=6,18=5,40=1/2;
 3/5=1,6=6,7=111,11=2,16=1,25=1,30=1,74=-5,75=5/1,2,3;
 4//1;
 5/5=2,32=1,38=5/2;
 6/7=2,8=2,9=2,10=2,15=8,20=101,28=1/1,2;
 99/5=1,9=1/99;
 ---------------------------------------
 mol_17.23.26.pdbcc_plusQ.z58227.zip.xyz
 ---------------------------------------
 Symbolic Z-matrix:
 Charge =  1 Multiplicity = 1
 Ca                   -1.63881   1.69425  -0.11346 
 O                    -2.64382  -0.00016  -0.93375 
 Ca                   -1.63744  -1.69433  -0.11439 
 O                     0.7074   -1.25382  -0.29109 
 P                     0.68062  -0.00045   0.73469 
 O                    -0.67371  -0.00092   1.47119 
 O                     2.07235  -0.00131   1.39681 
 Ca                    2.69791   0.00106  -0.86471 
 O                     0.70747   1.25458  -0.28931 
 
                          Input orientation:                          
 ---------------------------------------------------------------------
 Center     Atomic     Atomic              Coordinates (Angstroms)
 Number     Number      Type              X           Y           Z
 ---------------------------------------------------------------------
    1         20             0       -1.638810    1.694250   -0.113460
    2          8             0       -2.643820   -0.000160   -0.933750
    3         20             0       -1.637440   -1.694330   -0.114390
    4          8             0        0.707400   -1.253820   -0.291090
    5         15             0        0.680620   -0.000450    0.734690
    6          8             0       -0.673710   -0.000920    1.471190
    7          8             0        2.072350   -0.001310    1.396810
    8         20             0        2.697910    0.001060   -0.864710
    9          8             0        0.707470    1.254580   -0.289310
 ---------------------------------------------------------------------
                    Distance matrix (angstroms):
                    1          2          3          4          5
     1  Ca   0.000000
     2  O    2.133998   0.000000
     3  Ca   3.388580   2.134095   0.000000
     4  O    3.771919   3.635292   2.392393   0.000000
     5  P    2.995183   3.719623   2.993922   1.619839   0.000000
     6  O    2.513192   3.108870   2.512066   2.565707   1.541636
     7  O    4.350695   5.260587   4.348860   2.506168   1.541206
     8  Ca   4.715762   5.342176   4.715144   2.421961   2.574401
     9  O    2.393588   3.636045   3.771640   2.508401   1.619999
                    6          7          8          9
     6  O    0.000000
     7  O    2.747067   0.000000
     8  Ca   4.101738   2.346445   0.000000
     9  O    2.565794   2.506623   2.421621   0.000000
 Stoichiometry    Ca3O5P(1+)
 Framework group  C1[X(Ca3O5P)]
 Deg. of freedom    21
 Full point group                 C1
 Largest Abelian subgroup         C1      NOp   1
 Largest concise Abelian subgroup C1      NOp   1
                         Standard orientation:                         
 ---------------------------------------------------------------------
 Center     Atomic     Atomic              Coordinates (Angstroms)
 Number     Number      Type              X           Y           Z
 ---------------------------------------------------------------------
    1         20             0       -1.638807    1.694255   -0.113460
    2          8             0       -2.643820   -0.000153   -0.933750
    3         20             0       -1.637443   -1.694325   -0.114390
    4          8             0        0.707397   -1.253820   -0.291090
    5         15             0        0.680620   -0.000450    0.734690
    6          8             0       -0.673710   -0.000917    1.471190
    7          8             0        2.072350   -0.001312    1.396810
    8         20             0        2.697910    0.001056   -0.864710
    9          8             0        0.707472    1.254580   -0.289310
 ---------------------------------------------------------------------
 Rotational constants (GHZ):      1.2330646      0.5920820      0.5037583
 Standard basis: 6-31+G(d,p) (6D, 7F)
 There are   199 symmetry adapted basis functions of A   symmetry.
 Integral buffers will be    131072 words long.
 Raffenetti 2 integral format.
 Two-electron integral symmetry is turned on.
   199 basis functions,   456 primitive gaussians,   199 cartesian basis functions
    57 alpha electrons       57 beta electrons
       nuclear repulsion energy      1056.8503703305 Hartrees.
 NAtoms=    9 NActive=    9 NUniq=    9 SFac= 7.50D-01 NAtFMM=   80 NAOKFM=F Big=F
 One-electron integrals computed using PRISM.
 NBasis=   199 RedAO= T  NBF=   199
 NBsUse=   199 1.00D-06 NBFU=   199
 Harris functional with IExCor=  402 diagonalized for initial guess.
 ExpMin= 7.10D-03 ExpMax= 3.53D+04 ExpMxC= 5.30D+03 IAcc=3 IRadAn=         5 AccDes= 0.00D+00
 HarFok:  IExCor= 402 AccDes= 0.00D+00 IRadAn=         5 IDoV=1
 ScaDFX=  1.000000  1.000000  1.000000  1.000000
 Initial guess orbital symmetries:
       Occupied  (A) (A) (A) (A) (A) (A) (A) (A) (A) (A) (A) (A)
                 (A) (A) (A) (A) (A) (A) (A) (A) (A) (A) (A) (A)
                 (A) (A) (A) (A) (A) (A) (A) (A) (A) (A) (A) (A)
                 (A) (A) (A) (A) (A) (A) (A) (A) (A) (A) (A) (A)
                 (A) (A) (A) (A) (A) (A) (A) (A) (A)
       Virtual   (A) (A) (A) (A) (A) (A) (A) (A) (A) (A) (A) (A)
                 (A) (A) (A) (A) (A) (A) (A) (A) (A) (A) (A) (A)
                 (A) (A) (A) (A) (A) (A) (A) (A) (A) (A) (A) (A)
                 (A) (A) (A) (A) (A) (A) (A) (A) (A) (A) (A) (A)
                 (A) (A) (A) (A) (A) (A) (A) (A) (A) (A) (A) (A)
                 (A) (A) (A) (A) (A) (A) (A) (A) (A) (A) (A) (A)
                 (A) (A) (A) (A) (A) (A) (A) (A) (A) (A) (A) (A)
                 (A) (A) (A) (A) (A) (A) (A) (A) (A) (A) (A) (A)
                 (A) (A) (A) (A) (A) (A) (A) (A) (A) (A) (A) (A)
                 (A) (A) (A) (A) (A) (A) (A) (A) (A) (A) (A) (A)
                 (A) (A) (A) (A) (A) (A) (A) (A) (A) (A) (A) (A)
                 (A) (A) (A) (A) (A) (A) (A) (A) (A) (A)
 The electronic state of the initial guess is 1-A.
 Requested convergence on RMS density matrix=1.00D-04 within 128 cycles.
 Requested convergence on MAX density matrix=1.00D-02.
 Requested convergence on             energy=1.00D-02.
 No special actions if energy rises.
 EnCoef did     2 forward-backward iterations
 EnCoef did     4 forward-backward iterations
 SCF Done:  E(RB+HF-LYP) =  -2750.29808225     A.U. after   10 cycles
             Convg  =    0.1830D-04             -V/T =  2.0030
             S**2   =   0.0000

 **********************************************************************

            Population analysis using the SCF density.

 **********************************************************************

 Orbital symmetries:
       Occupied  (A) (A) (A) (A) (A) (A) (A) (A) (A) (A) (A) (A)
                 (A) (A) (A) (A) (A) (A) (A) (A) (A) (A) (A) (A)
                 (A) (A) (A) (A) (A) (A) (A) (A) (A) (A) (A) (A)
                 (A) (A) (A) (A) (A) (A) (A) (A) (A) (A) (A) (A)
                 (A) (A) (A) (A) (A) (A) (A) (A) (A)
       Virtual   (A) (A) (A) (A) (A) (A) (A) (A) (A) (A) (A) (A)
                 (A) (A) (A) (A) (A) (A) (A) (A) (A) (A) (A) (A)
                 (A) (A) (A) (A) (A) (A) (A) (A) (A) (A) (A) (A)
                 (A) (A) (A) (A) (A) (A) (A) (A) (A) (A) (A) (A)
                 (A) (A) (A) (A) (A) (A) (A) (A) (A) (A) (A) (A)
                 (A) (A) (A) (A) (A) (A) (A) (A) (A) (A) (A) (A)
                 (A) (A) (A) (A) (A) (A) (A) (A) (A) (A) (A) (A)
                 (A) (A) (A) (A) (A) (A) (A) (A) (A) (A) (A) (A)
                 (A) (A) (A) (A) (A) (A) (A) (A) (A) (A) (A) (A)
                 (A) (A) (A) (A) (A) (A) (A) (A) (A) (A) (A) (A)
                 (A) (A) (A) (A) (A) (A) (A) (A) (A) (A) (A) (A)
                 (A) (A) (A) (A) (A) (A) (A) (A) (A) (A)
 The electronic state is 1-A.
 Alpha  occ. eigenvalues -- -145.57953-145.47238-145.47226 -77.31605 -19.23828
 Alpha  occ. eigenvalues --  -19.22928 -19.22926 -19.21462 -19.10169 -15.64605
 Alpha  occ. eigenvalues --  -15.54069 -15.54057 -12.77806 -12.77803 -12.77793
 Alpha  occ. eigenvalues --  -12.67290 -12.67279 -12.67278 -12.67267 -12.67152
 Alpha  occ. eigenvalues --  -12.67140  -6.76218  -4.92591  -4.92579  -4.92466
 Alpha  occ. eigenvalues --   -2.01384  -1.91287  -1.91233  -1.29240  -1.28564
 Alpha  occ. eigenvalues --   -1.28537  -1.19735  -1.18943  -1.18886  -1.18832
 Alpha  occ. eigenvalues --   -1.18549  -1.17842  -1.13228  -1.05732  -1.03318
 Alpha  occ. eigenvalues --   -1.03279  -0.84394  -0.62853  -0.54548  -0.53754
 Alpha  occ. eigenvalues --   -0.52826  -0.46977  -0.46091  -0.44542  -0.42827
 Alpha  occ. eigenvalues --   -0.42136  -0.39665  -0.39022  -0.36425  -0.30214
 Alpha  occ. eigenvalues --   -0.28474  -0.28398
 Alpha virt. eigenvalues --   -0.23008  -0.17081  -0.15715  -0.13319  -0.13267
 Alpha virt. eigenvalues --   -0.10168  -0.09206  -0.08565  -0.07814  -0.07318
 Alpha virt. eigenvalues --   -0.07160  -0.05943  -0.05553  -0.05159  -0.04889
 Alpha virt. eigenvalues --   -0.04709  -0.03889  -0.03881  -0.03766  -0.03460
 Alpha virt. eigenvalues --   -0.03340  -0.02883  -0.02876  -0.02478  -0.02043
 Alpha virt. eigenvalues --   -0.00261  -0.00253   0.00431   0.00866   0.01372
 Alpha virt. eigenvalues --    0.02174   0.03151   0.03271   0.03540   0.04184
 Alpha virt. eigenvalues --    0.04797   0.05369   0.05854   0.06982   0.07144
 Alpha virt. eigenvalues --    0.07878   0.08707   0.09157   0.09348   0.09830
 Alpha virt. eigenvalues --    0.10580   0.10875   0.11747   0.12388   0.12679
 Alpha virt. eigenvalues --    0.13041   0.14792   0.15433   0.16513   0.18294
 Alpha virt. eigenvalues --    0.19039   0.20107   0.20290   0.20808   0.22357
 Alpha virt. eigenvalues --    0.23179   0.23268   0.23817   0.26005   0.27048
 Alpha virt. eigenvalues --    0.27388   0.29005   0.29594   0.29769   0.32085
 Alpha virt. eigenvalues --    0.32953   0.36119   0.37272   0.39362   0.42051
 Alpha virt. eigenvalues --    0.44087   0.45604   0.45963   0.52174   0.55072
 Alpha virt. eigenvalues --    0.56223   0.58440   0.60030   0.61386   0.73988
 Alpha virt. eigenvalues --    0.77581   0.79912   0.93436   0.96317   0.99199
 Alpha virt. eigenvalues --    1.07577   1.14519   1.15623   1.16626   1.16844
 Alpha virt. eigenvalues --    1.18786   1.19617   1.21707   1.23480   1.23615
 Alpha virt. eigenvalues --    1.25898   1.27029   1.28284   1.29339   1.30096
 Alpha virt. eigenvalues --    1.34053   1.43456   1.52085   1.52845   1.60110
 Alpha virt. eigenvalues --    1.68803   1.71640   1.72006   1.73735   1.75131
 Alpha virt. eigenvalues --    1.76522   1.78026   1.78681   1.80409   1.83853
 Alpha virt. eigenvalues --    1.85026   1.88194   1.89152   1.90264   1.94967
 Alpha virt. eigenvalues --    1.96521   1.98595   2.03619   2.05298   2.11943
 Alpha virt. eigenvalues --    2.16972   2.19561   2.53900   2.65304   2.74817
 Alpha virt. eigenvalues --    2.80169   3.47859   4.00068   4.05781   4.06641
 Alpha virt. eigenvalues --    4.11925   4.31173
          Condensed to atoms (all electrons):
              1          2          3          4          5          6
     1  Ca  18.329568   0.211217  -0.027751  -0.006691   0.017511   0.045316
     2  O    0.211217   8.725904   0.211062  -0.000510  -0.000302   0.010098
     3  Ca  -0.027751   0.211062  18.329714   0.041428   0.017569   0.045362
     4  O   -0.006691  -0.000510   0.041428   8.998176   0.013424  -0.103228
     5  P    0.017511  -0.000302   0.017569   0.013424  12.861728   0.228660
     6  O    0.045316   0.010098   0.045362  -0.103228   0.228660   8.895371
     7  O    0.009656   0.000380   0.009693  -0.032198   0.007852  -0.120125
     8  Ca  -0.007277   0.004311  -0.007248   0.082024   0.036037   0.026681
     9  O    0.041453  -0.000530  -0.006714   0.062489   0.013616  -0.103334
              7          8          9
     1  Ca   0.009656  -0.007277   0.041453
     2  O    0.000380   0.004311  -0.000530
     3  Ca   0.009693  -0.007248  -0.006714
     4  O   -0.032198   0.082024   0.062489
     5  P    0.007852   0.036037   0.013616
     6  O   -0.120125   0.026681  -0.103334
     7  O    8.914694   0.084770  -0.032246
     8  Ca   0.084770  18.237750   0.082044
     9  O   -0.032246   0.082044   8.998096
 Mulliken atomic charges:
              1
     1  Ca   1.387000
     2  O   -1.161631
     3  Ca   1.386885
     4  O   -1.054915
     5  P    1.803906
     6  O   -0.924801
     7  O   -0.842477
     8  Ca   1.460907
     9  O   -1.054874
 Sum of Mulliken charges=   1.00000
 Atomic charges with hydrogens summed into heavy atoms:
              1
     1  Ca   1.387000
     2  O   -1.161631
     3  Ca   1.386885
     4  O   -1.054915
     5  P    1.803906
     6  O   -0.924801
     7  O   -0.842477
     8  Ca   1.460907
     9  O   -1.054874
 Sum of Mulliken charges=   1.00000
 Electronic spatial extent (au):  <R**2>=  2146.6812
 Charge=     1.0000 electrons
 Dipole moment (field-independent basis, Debye):
    X=     7.1151    Y=     0.0102    Z=    -5.8410  Tot=     9.2055
 Quadrupole moment (field-independent basis, Debye-Ang):
   XX=   -40.1357   YY=   -41.8659   ZZ=   -83.9359
   XY=     0.0074   XZ=   -35.4562   YZ=     0.0046
 Traceless Quadrupole moment (field-independent basis, Debye-Ang):
   XX=    15.1768   YY=    13.4466   ZZ=   -28.6234
   XY=     0.0074   XZ=   -35.4562   YZ=     0.0046
 Octapole moment (field-independent basis, Debye-Ang**2):
  XXX=   206.1716  YYY=    -0.0124  ZZZ=   -28.0343  XYY=   -82.5904
  XXY=     0.1530  XXZ=   -41.8483  XZZ=    30.6932  YZZ=     0.0276
  YYZ=    -5.6114  XYZ=    -0.0381
 Hexadecapole moment (field-independent basis, Debye-Ang**3):
 XXXX= -1215.9633 YYYY=  -404.2935 ZZZZ=  -390.9030 XXXY=     0.0721
 XXXZ=  -359.7415 YYYX=    -0.0309 YYYZ=     0.0285 ZZZX=  -103.0341
 ZZZY=     0.0221 XXYY=  -195.4574 XXZZ=  -311.8229 YYZZ=  -145.3528
 XXYZ=    -0.0079 YYXZ=   -10.2579 ZZXY=     0.0408
 N-N= 1.056850370330D+03 E-N=-8.614413993008D+03  KE= 2.742195922463D+03
 Merz-Kollman atomic radii used.
 Read replacement radii for each type of atom:
 Rad(20) =   1.188000000000D+00
 Atom Element Radius
    1    20    1.19
    2     8    1.40
    3    20    1.19
    4     8    1.40
    5    15    1.80
    6     8    1.40
    7     8    1.40
    8    20    1.19
    9     8    1.40

 **********************************************************************

            Electrostatic Properties Using The SCF Density

 **********************************************************************

       Atomic Center    1 is at  -1.638807  1.694255 -0.113460
       Atomic Center    2 is at  -2.643820 -0.000153 -0.933750
       Atomic Center    3 is at  -1.637443 -1.694325 -0.114390
       Atomic Center    4 is at   0.707397 -1.253820 -0.291090
       Atomic Center    5 is at   0.680620 -0.000450  0.734690
       Atomic Center    6 is at  -0.673710 -0.000917  1.471190
       Atomic Center    7 is at   2.072350 -0.001312  1.396810
       Atomic Center    8 is at   2.697910  0.001056 -0.864710
       Atomic Center    9 is at   0.707472  1.254580 -0.289310
     750 points will be used for fitting atomic charges
 Fitting point charges to eletrostatic potential
 Charges from ESP fit, RMS=   0.00447 RRMS=   0.02817:
 Charge=   1.00000 Dipole=     6.9261     0.0111    -5.8150 Tot=     9.0436
              1
     1  Ca   1.676008
     2  O   -1.519274
     3  Ca   1.675928
     4  O   -1.195705
     5  P    1.685263
     6  O   -0.959693
     7  O   -0.905193
     8  Ca   1.738511
     9  O   -1.195844
 -----------------------------------------------------------------

              Electrostatic Properties (Atomic Units)

 -----------------------------------------------------------------
    Center     Electric         -------- Electric Field --------
               Potential          X             Y             Z
 -----------------------------------------------------------------
    1 Atom    -80.068539
    2 Atom    -22.360134
    3 Atom    -80.068661
    4 Atom    -22.233867
    5 Atom    -53.889210
    6 Atom    -22.225519
    7 Atom    -22.248844
    8 Atom    -79.960673
    9 Atom    -22.233838
 -----------------------------------------------------------------
 1\1\GINC-N028\SP\RB3LYP\6-31+G(d,p)\Ca3O5P1(1+)\TIMN\12-Jun-2015\0\\# 
 b3lyp/6-31+G(d,p) int=ultrafine pop=(ReadRadii,MK)\\mol_17.23.26.pdbcc
 _plusQ.z58227.zip.xyz\\1,1\Ca,0,-1.63881,1.69425,-0.11346\O,0,-2.64382
 ,-0.00016,-0.93375\Ca,0,-1.63744,-1.69433,-0.11439\O,0,0.7074,-1.25382
 ,-0.29109\P,0,0.68062,-0.00045,0.73469\O,0,-0.67371,-0.00092,1.47119\O
 ,0,2.07235,-0.00131,1.39681\Ca,0,2.69791,0.00106,-0.86471\O,0,0.70747,
 1.25458,-0.28931\\Version=EM64T-G03RevE.01\State=1-A\HF=-2750.2980823\
 RMSD=1.830e-05\Thermal=0.\Dipole=2.799288,0.0040313,-2.2980367\PG=C01 
 [X(Ca3O5P1)]\\@


 EDUCATION WITHOUT COMMON SENSE IS A LOAD OF BOOKS ON THE BACK OF AN ASS.
 Job cpu time:  0 days  0 hours  2 minutes 40.1 seconds.
 File lengths (MBytes):  RWF=     36 Int=      0 D2E=      0 Chk=     11 Scr=      1
 Normal termination of Gaussian 03 at Fri Jun 12 17:53:06 2015.
