 Entering Gaussian System, Link 0=/home/timn/tmp/g03.e01/g03
 Input=mol_17.23.1.pdbcccc_plusQ.z58220.zip.xyz.gjf
 Output=mol_17.23.1.pdbcccc_plusQ.z58220.zip.xyz.out
 Initial command:
 /home/timn/tmp/g03.e01/l1.exe /home/timn/tmp/g03.e01/Gau-12568.inp -scrdir=/home/timn/tmp/g03.e01/
 Default is to use a total of   2 processors:
                                2 via shared-memory
                                1 via Linda
 Entering Link 1 = /home/timn/tmp/g03.e01/l1.exe PID=     12569.
  
 Copyright (c) 1988,1990,1992,1993,1995,1998,2003,2004,2007, Gaussian, Inc.
                  All Rights Reserved.
  
 This is the Gaussian(R) 03 program.  It is based on the
 the Gaussian(R) 98 system (copyright 1998, Gaussian, Inc.),
 the Gaussian(R) 94 system (copyright 1995, Gaussian, Inc.),
 the Gaussian 92(TM) system (copyright 1992, Gaussian, Inc.),
 the Gaussian 90(TM) system (copyright 1990, Gaussian, Inc.),
 the Gaussian 88(TM) system (copyright 1988, Gaussian, Inc.),
 the Gaussian 86(TM) system (copyright 1986, Carnegie Mellon
 University), and the Gaussian 82(TM) system (copyright 1983,
 Carnegie Mellon University). Gaussian is a federally registered
 trademark of Gaussian, Inc.
  
 This software contains proprietary and confidential information,
 including trade secrets, belonging to Gaussian, Inc.
  
 This software is provided under written license and may be
 used, copied, transmitted, or stored only in accord with that
 written license.
  
 The following legend is applicable only to US Government
 contracts under FAR:
  
                    RESTRICTED RIGHTS LEGEND
  
 Use, reproduction and disclosure by the US Government is
 subject to restrictions as set forth in subparagraphs (a)
 and (c) of the Commercial Computer Software - Restricted
 Rights clause in FAR 52.227-19.
  
 Gaussian, Inc.
 340 Quinnipiac St., Bldg. 40, Wallingford CT 06492
  
  
 ---------------------------------------------------------------
 Warning -- This program may not be used in any manner that
 competes with the business of Gaussian, Inc. or will provide
 assistance to any competitor of Gaussian, Inc.  The licensee
 of this program is prohibited from giving any competitor of
 Gaussian, Inc. access to this program.  By using this program,
 the user acknowledges that Gaussian, Inc. is engaged in the
 business of creating and licensing software in the field of
 computational chemistry and represents and warrants to the
 licensee that it is not a competitor of Gaussian, Inc. and that
 it will not use this program in any manner prohibited above.
 ---------------------------------------------------------------
  

 Cite this work as:
 Gaussian 03, Revision E.01,
 M. J. Frisch, G. W. Trucks, H. B. Schlegel, G. E. Scuseria, 
 M. A. Robb, J. R. Cheeseman, J. A. Montgomery, Jr., T. Vreven, 
 K. N. Kudin, J. C. Burant, J. M. Millam, S. S. Iyengar, J. Tomasi, 
 V. Barone, B. Mennucci, M. Cossi, G. Scalmani, N. Rega, 
 G. A. Petersson, H. Nakatsuji, M. Hada, M. Ehara, K. Toyota, 
 R. Fukuda, J. Hasegawa, M. Ishida, T. Nakajima, Y. Honda, O. Kitao, 
 H. Nakai, M. Klene, X. Li, J. E. Knox, H. P. Hratchian, J. B. Cross, 
 V. Bakken, C. Adamo, J. Jaramillo, R. Gomperts, R. E. Stratmann, 
 O. Yazyev, A. J. Austin, R. Cammi, C. Pomelli, J. W. Ochterski, 
 P. Y. Ayala, K. Morokuma, G. A. Voth, P. Salvador, J. J. Dannenberg, 
 V. G. Zakrzewski, S. Dapprich, A. D. Daniels, M. C. Strain, 
 O. Farkas, D. K. Malick, A. D. Rabuck, K. Raghavachari, 
 J. B. Foresman, J. V. Ortiz, Q. Cui, A. G. Baboul, S. Clifford, 
 J. Cioslowski, B. B. Stefanov, G. Liu, A. Liashenko, P. Piskorz, 
 I. Komaromi, R. L. Martin, D. J. Fox, T. Keith, M. A. Al-Laham, 
 C. Y. Peng, A. Nanayakkara, M. Challacombe, P. M. W. Gill, 
 B. Johnson, W. Chen, M. W. Wong, C. Gonzalez, and J. A. Pople, 
 Gaussian, Inc., Wallingford CT, 2004.
 
 ******************************************
 Gaussian 03:  EM64T-G03RevE.01 11-Sep-2007
                12-Jun-2015 
 ******************************************
 %nproc=2
 Will use up to    2 processors via shared memory.
 Default route:  MP2=Direct MaxDisk=2000MB
 ----------------------------------------------------
 # b3lyp/6-31+G(d,p) int=ultrafine pop=(ReadRadii,MK)
 ----------------------------------------------------

 Warning!  SCF SP cutoffs with diffuse functions may be unreliable.
 Consider SCF=Tight

 1/38=1/1;
 2/17=6,18=5,40=1/2;
 3/5=1,6=6,7=111,11=2,16=1,25=1,30=1,74=-5,75=5/1,2,3;
 4//1;
 5/5=2,32=1,38=5/2;
 6/7=2,8=2,9=2,10=2,15=8,20=101,28=1/1,2;
 99/5=1,9=1/99;
 ----------------------------------------
 mol_17.23.1.pdbcccc_plusQ.z58220.zip.xyz
 ----------------------------------------
 Symbolic Z-matrix:
 Charge =  1 Multiplicity = 1
 O                    -2.57208  -1.0309   -0.76451 
 O                    -2.57084  -1.02793   0.76885 
 P                    -2.85773   0.51415  -0.00047 
 O                    -1.43634   1.15107  -0.0022 
 Ca                   -0.20134  -1.1086   -0.00173 
 Ca                    0.78446   1.73171   0.00074 
 O                     1.40929  -0.03249   1.34696 
 O                     1.4108   -0.03109  -1.34723 
 Ca                    3.06385  -0.62019   0.0006 
 
                          Input orientation:                          
 ---------------------------------------------------------------------
 Center     Atomic     Atomic              Coordinates (Angstroms)
 Number     Number      Type              X           Y           Z
 ---------------------------------------------------------------------
    1          8             0       -2.572080   -1.030900   -0.764510
    2          8             0       -2.570840   -1.027930    0.768850
    3         15             0       -2.857730    0.514150   -0.000470
    4          8             0       -1.436340    1.151070   -0.002200
    5         20             0       -0.201340   -1.108600   -0.001730
    6         20             0        0.784460    1.731710    0.000740
    7          8             0        1.409290   -0.032490    1.346960
    8          8             0        1.410800   -0.031090   -1.347230
    9         20             0        3.063850   -0.620190    0.000600
 ---------------------------------------------------------------------
                    Distance matrix (angstroms):
                    1          2          3          4          5
     1  O    0.000000
     2  O    1.533363   0.000000
     3  P    1.747150   1.747046   0.000000
     4  O    2.575270   2.574811   1.557568   0.000000
     5  Ca   2.491642   2.492956   3.112833   2.575138   0.000000
     6  Ca   4.414066   4.411762   3.840313   2.295453   3.006521
     7  O    4.615889   4.143253   4.507975   3.364321   2.360319
     8  O    4.147592   4.617894   4.509035   3.363453   2.360168
     9  Ca   5.702437   5.701420   6.029249   4.836226   3.301517
                    6          7          8          9
     6  Ca   0.000000
     7  O    2.305455   0.000000
     8  O    2.305816   2.694191   0.000000
     9  Ca   3.275218   2.212611   2.212749   0.000000
 Stoichiometry    Ca3O5P(1+)
 Framework group  C1[X(Ca3O5P)]
 Deg. of freedom    21
 Full point group                 C1
 Largest Abelian subgroup         C1      NOp   1
 Largest concise Abelian subgroup C1      NOp   1
                         Standard orientation:                         
 ---------------------------------------------------------------------
 Center     Atomic     Atomic              Coordinates (Angstroms)
 Number     Number      Type              X           Y           Z
 ---------------------------------------------------------------------
    1          8             0       -2.572081   -1.030898   -0.764511
    2          8             0       -2.570841   -1.027928    0.768849
    3         15             0       -2.857731    0.514152   -0.000471
    4          8             0       -1.436340    1.151071   -0.002201
    5         20             0       -0.201341   -1.108599   -0.001731
    6         20             0        0.784460    1.731710    0.000739
    7          8             0        1.409289   -0.032490    1.346959
    8          8             0        1.410799   -0.031090   -1.347231
    9         20             0        3.063849   -0.620191    0.000599
 ---------------------------------------------------------------------
 Rotational constants (GHZ):      1.5574626      0.4862913      0.4176580
 Standard basis: 6-31+G(d,p) (6D, 7F)
 There are   199 symmetry adapted basis functions of A   symmetry.
 Integral buffers will be    131072 words long.
 Raffenetti 2 integral format.
 Two-electron integral symmetry is turned on.
   199 basis functions,   456 primitive gaussians,   199 cartesian basis functions
    57 alpha electrons       57 beta electrons
       nuclear repulsion energy      1016.5615535990 Hartrees.
 NAtoms=    9 NActive=    9 NUniq=    9 SFac= 7.50D-01 NAtFMM=   80 NAOKFM=F Big=F
 One-electron integrals computed using PRISM.
 NBasis=   199 RedAO= T  NBF=   199
 NBsUse=   199 1.00D-06 NBFU=   199
 Harris functional with IExCor=  402 diagonalized for initial guess.
 ExpMin= 7.10D-03 ExpMax= 3.53D+04 ExpMxC= 5.30D+03 IAcc=3 IRadAn=         5 AccDes= 0.00D+00
 HarFok:  IExCor= 402 AccDes= 0.00D+00 IRadAn=         5 IDoV=1
 ScaDFX=  1.000000  1.000000  1.000000  1.000000
 Initial guess orbital symmetries:
       Occupied  (A) (A) (A) (A) (A) (A) (A) (A) (A) (A) (A) (A)
                 (A) (A) (A) (A) (A) (A) (A) (A) (A) (A) (A) (A)
                 (A) (A) (A) (A) (A) (A) (A) (A) (A) (A) (A) (A)
                 (A) (A) (A) (A) (A) (A) (A) (A) (A) (A) (A) (A)
                 (A) (A) (A) (A) (A) (A) (A) (A) (A)
       Virtual   (A) (A) (A) (A) (A) (A) (A) (A) (A) (A) (A) (A)
                 (A) (A) (A) (A) (A) (A) (A) (A) (A) (A) (A) (A)
                 (A) (A) (A) (A) (A) (A) (A) (A) (A) (A) (A) (A)
                 (A) (A) (A) (A) (A) (A) (A) (A) (A) (A) (A) (A)
                 (A) (A) (A) (A) (A) (A) (A) (A) (A) (A) (A) (A)
                 (A) (A) (A) (A) (A) (A) (A) (A) (A) (A) (A) (A)
                 (A) (A) (A) (A) (A) (A) (A) (A) (A) (A) (A) (A)
                 (A) (A) (A) (A) (A) (A) (A) (A) (A) (A) (A) (A)
                 (A) (A) (A) (A) (A) (A) (A) (A) (A) (A) (A) (A)
                 (A) (A) (A) (A) (A) (A) (A) (A) (A) (A) (A) (A)
                 (A) (A) (A) (A) (A) (A) (A) (A) (A) (A) (A) (A)
                 (A) (A) (A) (A) (A) (A) (A) (A) (A) (A)
 The electronic state of the initial guess is 1-A.
 Requested convergence on RMS density matrix=1.00D-04 within 128 cycles.
 Requested convergence on MAX density matrix=1.00D-02.
 Requested convergence on             energy=1.00D-02.
 No special actions if energy rises.
 SCF Done:  E(RB+HF-LYP) =  -2750.11395236     A.U. after    8 cycles
             Convg  =    0.7687D-04             -V/T =  2.0029
             S**2   =   0.0000

 **********************************************************************

            Population analysis using the SCF density.

 **********************************************************************

 Orbital symmetries:
       Occupied  (A) (A) (A) (A) (A) (A) (A) (A) (A) (A) (A) (A)
                 (A) (A) (A) (A) (A) (A) (A) (A) (A) (A) (A) (A)
                 (A) (A) (A) (A) (A) (A) (A) (A) (A) (A) (A) (A)
                 (A) (A) (A) (A) (A) (A) (A) (A) (A) (A) (A) (A)
                 (A) (A) (A) (A) (A) (A) (A) (A) (A)
       Virtual   (A) (A) (A) (A) (A) (A) (A) (A) (A) (A) (A) (A)
                 (A) (A) (A) (A) (A) (A) (A) (A) (A) (A) (A) (A)
                 (A) (A) (A) (A) (A) (A) (A) (A) (A) (A) (A) (A)
                 (A) (A) (A) (A) (A) (A) (A) (A) (A) (A) (A) (A)
                 (A) (A) (A) (A) (A) (A) (A) (A) (A) (A) (A) (A)
                 (A) (A) (A) (A) (A) (A) (A) (A) (A) (A) (A) (A)
                 (A) (A) (A) (A) (A) (A) (A) (A) (A) (A) (A) (A)
                 (A) (A) (A) (A) (A) (A) (A) (A) (A) (A) (A) (A)
                 (A) (A) (A) (A) (A) (A) (A) (A) (A) (A) (A) (A)
                 (A) (A) (A) (A) (A) (A) (A) (A) (A) (A) (A) (A)
                 (A) (A) (A) (A) (A) (A) (A) (A) (A) (A) (A) (A)
                 (A) (A) (A) (A) (A) (A) (A) (A) (A) (A)
 The electronic state is 1-A.
 Alpha  occ. eigenvalues -- -145.51169-145.49810-145.48414 -77.32067 -19.34928
 Alpha  occ. eigenvalues --  -19.34826 -19.27865 -19.15326 -19.15306 -15.58064
 Alpha  occ. eigenvalues --  -15.56617 -15.55231 -12.71318 -12.71190 -12.71161
 Alpha  occ. eigenvalues --  -12.69846 -12.69770 -12.69754 -12.68507 -12.68392
 Alpha  occ. eigenvalues --  -12.68335  -6.77343  -4.93708  -4.93615  -4.93114
 Alpha  occ. eigenvalues --   -1.95367  -1.93878  -1.92472  -1.26243  -1.23439
 Alpha  occ. eigenvalues --   -1.22790  -1.22262  -1.22240  -1.21072  -1.20977
 Alpha  occ. eigenvalues --   -1.20248  -1.19606  -1.18986  -1.11249  -0.98954
 Alpha  occ. eigenvalues --   -0.90319  -0.89545  -0.71918  -0.60011  -0.58219
 Alpha  occ. eigenvalues --   -0.56909  -0.52769  -0.47901  -0.45640  -0.42194
 Alpha  occ. eigenvalues --   -0.41201  -0.36351  -0.36297  -0.35890  -0.34503
 Alpha  occ. eigenvalues --   -0.34173  -0.29891
 Alpha virt. eigenvalues --   -0.22046  -0.18209  -0.18152  -0.16293  -0.15072
 Alpha virt. eigenvalues --   -0.13505  -0.11611  -0.10422  -0.09704  -0.09601
 Alpha virt. eigenvalues --   -0.07608  -0.07100  -0.06728  -0.06710  -0.05989
 Alpha virt. eigenvalues --   -0.05613  -0.05425  -0.04865  -0.04597  -0.04222
 Alpha virt. eigenvalues --   -0.04220  -0.03684  -0.03583  -0.03431  -0.03238
 Alpha virt. eigenvalues --   -0.02548  -0.02040  -0.01947  -0.00956  -0.00642
 Alpha virt. eigenvalues --    0.01590   0.02116   0.03051   0.03189   0.03589
 Alpha virt. eigenvalues --    0.04356   0.04576   0.04772   0.05147   0.05668
 Alpha virt. eigenvalues --    0.06159   0.06635   0.07473   0.07742   0.08587
 Alpha virt. eigenvalues --    0.09093   0.09598   0.10420   0.11186   0.11759
 Alpha virt. eigenvalues --    0.12528   0.13330   0.13346   0.16162   0.16693
 Alpha virt. eigenvalues --    0.17511   0.17675   0.18531   0.19431   0.20119
 Alpha virt. eigenvalues --    0.21159   0.21884   0.23719   0.24496   0.24580
 Alpha virt. eigenvalues --    0.28316   0.29217   0.30126   0.30479   0.32012
 Alpha virt. eigenvalues --    0.33087   0.35062   0.35229   0.35495   0.38627
 Alpha virt. eigenvalues --    0.38718   0.41039   0.43461   0.44408   0.48031
 Alpha virt. eigenvalues --    0.55363   0.56612   0.58305   0.63843   0.66063
 Alpha virt. eigenvalues --    0.71984   0.72982   0.78628   0.87091   0.93391
 Alpha virt. eigenvalues --    1.04955   1.07580   1.10215   1.10726   1.11821
 Alpha virt. eigenvalues --    1.13765   1.14659   1.18842   1.19054   1.20873
 Alpha virt. eigenvalues --    1.22405   1.24089   1.26899   1.28706   1.29212
 Alpha virt. eigenvalues --    1.34851   1.41493   1.42530   1.45595   1.55487
 Alpha virt. eigenvalues --    1.57058   1.60488   1.66078   1.68322   1.69636
 Alpha virt. eigenvalues --    1.70507   1.74639   1.79208   1.79981   1.80270
 Alpha virt. eigenvalues --    1.84104   1.85109   1.85486   1.86820   1.91459
 Alpha virt. eigenvalues --    1.93553   1.94580   1.94761   1.98684   2.02654
 Alpha virt. eigenvalues --    2.07289   2.15053   2.27641   2.33845   2.62610
 Alpha virt. eigenvalues --    3.01675   3.45840   3.91918   4.00766   4.05094
 Alpha virt. eigenvalues --    4.14630   4.20165
          Condensed to atoms (all electrons):
              1          2          3          4          5          6
     1  O    8.211351   0.017592   0.097161  -0.012091   0.042751  -0.002075
     2  O    0.017592   8.214106   0.096625  -0.012008   0.042437  -0.002138
     3  P    0.097161   0.096625  14.160605  -0.088380  -0.010627  -0.024693
     4  O   -0.012091  -0.012008  -0.088380   8.819283   0.002340   0.059307
     5  Ca   0.042751   0.042437  -0.010627   0.002340  18.416474  -0.047664
     6  Ca  -0.002075  -0.002138  -0.024693   0.059307  -0.047664  18.389951
     7  O   -0.005004   0.004989  -0.002907   0.001893   0.116434   0.116617
     8  O    0.004914  -0.004979  -0.002901   0.001913   0.116540   0.116600
     9  Ca   0.003184   0.003266  -0.004019   0.000037  -0.054485  -0.003410
              7          8          9
     1  O   -0.005004   0.004914   0.003184
     2  O    0.004989  -0.004979   0.003266
     3  P   -0.002907  -0.002901  -0.004019
     4  O    0.001893   0.001913   0.000037
     5  Ca   0.116434   0.116540  -0.054485
     6  Ca   0.116617   0.116600  -0.003410
     7  O    8.799648  -0.020781   0.174569
     8  O   -0.020781   8.799091   0.174661
     9  Ca   0.174569   0.174661  18.398158
 Mulliken atomic charges:
              1
     1  O   -0.357782
     2  O   -0.359890
     3  P    0.779137
     4  O   -0.772294
     5  Ca   1.375800
     6  Ca   1.397506
     7  O   -1.185458
     8  O   -1.185059
     9  Ca   1.308040
 Sum of Mulliken charges=   1.00000
 Atomic charges with hydrogens summed into heavy atoms:
              1
     1  O   -0.357782
     2  O   -0.359890
     3  P    0.779137
     4  O   -0.772294
     5  Ca   1.375800
     6  Ca   1.397506
     7  O   -1.185458
     8  O   -1.185059
     9  Ca   1.308040
 Sum of Mulliken charges=   1.00000
 Electronic spatial extent (au):  <R**2>=  2416.9921
 Charge=     1.0000 electrons
 Dipole moment (field-independent basis, Debye):
    X=    10.7566    Y=     1.2238    Z=    -0.0135  Tot=    10.8260
 Quadrupole moment (field-independent basis, Debye-Ang):
   XX=   -32.4242   YY=   -45.7606   ZZ=  -100.1387
   XY=    -7.3465   XZ=     0.0703   YZ=     0.0558
 Traceless Quadrupole moment (field-independent basis, Debye-Ang):
   XX=    27.0169   YY=    13.6806   ZZ=   -40.6975
   XY=    -7.3465   XZ=     0.0703   YZ=     0.0558
 Octapole moment (field-independent basis, Debye-Ang**2):
  XXX=   213.2106  YYY=    25.9816  ZZZ=    -0.0142  XYY=    50.6570
  XXY=   -17.3575  XXZ=    -0.0090  XZZ=   -25.8821  YZZ=     3.0670
  YYZ=     0.0084  XYZ=    -0.0288
 Hexadecapole moment (field-independent basis, Debye-Ang**3):
 XXXX= -1326.9408 YYYY=  -383.7744 ZZZZ=  -364.4003 XXXY=  -180.4338
 XXXZ=     0.5753 YYYX=    31.1191 YYYZ=     0.1358 ZZZX=     0.1609
 ZZZY=     0.1183 XXYY=  -390.4944 XXZZ=  -434.6341 YYZZ=  -136.1097
 XXYZ=     0.1134 YYXZ=     0.0503 ZZXY=    -4.4444
 N-N= 1.016561553599D+03 E-N=-8.532687451373D+03  KE= 2.742167287364D+03
 Merz-Kollman atomic radii used.
 Read replacement radii for each type of atom:
 Rad(20) =   1.188000000000D+00
 Atom Element Radius
    1     8    1.40
    2     8    1.40
    3    15    1.80
    4     8    1.40
    5    20    1.19
    6    20    1.19
    7     8    1.40
    8     8    1.40
    9    20    1.19

 **********************************************************************

            Electrostatic Properties Using The SCF Density

 **********************************************************************

       Atomic Center    1 is at  -2.572081 -1.030898 -0.764511
       Atomic Center    2 is at  -2.570841 -1.027928  0.768849
       Atomic Center    3 is at  -2.857731  0.514152 -0.000471
       Atomic Center    4 is at  -1.436340  1.151071 -0.002201
       Atomic Center    5 is at  -0.201341 -1.108599 -0.001731
       Atomic Center    6 is at   0.784460  1.731710  0.000739
       Atomic Center    7 is at   1.409289 -0.032490  1.346959
       Atomic Center    8 is at   1.410799 -0.031090 -1.347231
       Atomic Center    9 is at   3.063849 -0.620191  0.000599
     804 points will be used for fitting atomic charges
 Fitting point charges to eletrostatic potential
 Charges from ESP fit, RMS=   0.00537 RRMS=   0.03574:
 Charge=   1.00000 Dipole=    11.1619     1.1827    -0.0061 Tot=    11.2244
              1
     1  O   -0.296309
     2  O   -0.295957
     3  P    0.525733
     4  O   -0.639907
     5  Ca   1.605040
     6  Ca   1.584725
     7  O   -1.514759
     8  O   -1.513909
     9  Ca   1.545343
 -----------------------------------------------------------------

              Electrostatic Properties (Atomic Units)

 -----------------------------------------------------------------
    Center     Electric         -------- Electric Field --------
               Potential          X             Y             Z
 -----------------------------------------------------------------
    1 Atom    -22.125094
    2 Atom    -22.128324
    3 Atom    -53.895233
    4 Atom    -22.183902
    5 Atom    -80.056469
    6 Atom    -80.042752
    7 Atom    -22.315055
    8 Atom    -22.314390
    9 Atom    -80.030863
 -----------------------------------------------------------------
 1\1\GINC-N033\SP\RB3LYP\6-31+G(d,p)\Ca3O5P1(1+)\TIMN\12-Jun-2015\0\\# 
 b3lyp/6-31+G(d,p) int=ultrafine pop=(ReadRadii,MK)\\mol_17.23.1.pdbccc
 c_plusQ.z58220.zip.xyz\\1,1\O,0,-2.57208,-1.0309,-0.76451\O,0,-2.57084
 ,-1.02793,0.76885\P,0,-2.85773,0.51415,-0.00047\O,0,-1.43634,1.15107,-
 0.0022\Ca,0,-0.20134,-1.1086,-0.00173\Ca,0,0.78446,1.73171,0.00074\O,0
 ,1.40929,-0.03249,1.34696\O,0,1.4108,-0.03109,-1.34723\Ca,0,3.06385,-0
 .62019,0.0006\\Version=EM64T-G03RevE.01\State=1-A\HF=-2750.1139524\RMS
 D=7.687e-05\Thermal=0.\Dipole=4.2319794,0.481493,-0.0053171\PG=C01 [X(
 Ca3O5P1)]\\@


 Standing in the middle of the road is very dangerous;
 you get knocked down by the traffic from both sides.
                                -- Margaret Thatcher
 Job cpu time:  0 days  0 hours  1 minutes 58.6 seconds.
 File lengths (MBytes):  RWF=     36 Int=      0 D2E=      0 Chk=     11 Scr=      1
 Normal termination of Gaussian 03 at Fri Jun 12 17:52:24 2015.
