 Entering Gaussian System, Link 0=/home/timn/tmp/g03.e01/g03
 Input=mol_16.4.4.pdbc_plusQ.out.z51600.zip.xyz.gjf
 Output=mol_16.4.4.pdbc_plusQ.out.z51600.zip.xyz.out
 Initial command:
 /home/timn/tmp/g03.e01/l1.exe /home/timn/tmp/g03.e01/Gau-17737.inp -scrdir=/home/timn/tmp/g03.e01/
 Default is to use a total of   2 processors:
                                2 via shared-memory
                                1 via Linda
 Entering Link 1 = /home/timn/tmp/g03.e01/l1.exe PID=     17738.
  
 Copyright (c) 1988,1990,1992,1993,1995,1998,2003,2004,2007, Gaussian, Inc.
                  All Rights Reserved.
  
 This is the Gaussian(R) 03 program.  It is based on the
 the Gaussian(R) 98 system (copyright 1998, Gaussian, Inc.),
 the Gaussian(R) 94 system (copyright 1995, Gaussian, Inc.),
 the Gaussian 92(TM) system (copyright 1992, Gaussian, Inc.),
 the Gaussian 90(TM) system (copyright 1990, Gaussian, Inc.),
 the Gaussian 88(TM) system (copyright 1988, Gaussian, Inc.),
 the Gaussian 86(TM) system (copyright 1986, Carnegie Mellon
 University), and the Gaussian 82(TM) system (copyright 1983,
 Carnegie Mellon University). Gaussian is a federally registered
 trademark of Gaussian, Inc.
  
 This software contains proprietary and confidential information,
 including trade secrets, belonging to Gaussian, Inc.
  
 This software is provided under written license and may be
 used, copied, transmitted, or stored only in accord with that
 written license.
  
 The following legend is applicable only to US Government
 contracts under FAR:
  
                    RESTRICTED RIGHTS LEGEND
  
 Use, reproduction and disclosure by the US Government is
 subject to restrictions as set forth in subparagraphs (a)
 and (c) of the Commercial Computer Software - Restricted
 Rights clause in FAR 52.227-19.
  
 Gaussian, Inc.
 340 Quinnipiac St., Bldg. 40, Wallingford CT 06492
  
  
 ---------------------------------------------------------------
 Warning -- This program may not be used in any manner that
 competes with the business of Gaussian, Inc. or will provide
 assistance to any competitor of Gaussian, Inc.  The licensee
 of this program is prohibited from giving any competitor of
 Gaussian, Inc. access to this program.  By using this program,
 the user acknowledges that Gaussian, Inc. is engaged in the
 business of creating and licensing software in the field of
 computational chemistry and represents and warrants to the
 licensee that it is not a competitor of Gaussian, Inc. and that
 it will not use this program in any manner prohibited above.
 ---------------------------------------------------------------
  

 Cite this work as:
 Gaussian 03, Revision E.01,
 M. J. Frisch, G. W. Trucks, H. B. Schlegel, G. E. Scuseria, 
 M. A. Robb, J. R. Cheeseman, J. A. Montgomery, Jr., T. Vreven, 
 K. N. Kudin, J. C. Burant, J. M. Millam, S. S. Iyengar, J. Tomasi, 
 V. Barone, B. Mennucci, M. Cossi, G. Scalmani, N. Rega, 
 G. A. Petersson, H. Nakatsuji, M. Hada, M. Ehara, K. Toyota, 
 R. Fukuda, J. Hasegawa, M. Ishida, T. Nakajima, Y. Honda, O. Kitao, 
 H. Nakai, M. Klene, X. Li, J. E. Knox, H. P. Hratchian, J. B. Cross, 
 V. Bakken, C. Adamo, J. Jaramillo, R. Gomperts, R. E. Stratmann, 
 O. Yazyev, A. J. Austin, R. Cammi, C. Pomelli, J. W. Ochterski, 
 P. Y. Ayala, K. Morokuma, G. A. Voth, P. Salvador, J. J. Dannenberg, 
 V. G. Zakrzewski, S. Dapprich, A. D. Daniels, M. C. Strain, 
 O. Farkas, D. K. Malick, A. D. Rabuck, K. Raghavachari, 
 J. B. Foresman, J. V. Ortiz, Q. Cui, A. G. Baboul, S. Clifford, 
 J. Cioslowski, B. B. Stefanov, G. Liu, A. Liashenko, P. Piskorz, 
 I. Komaromi, R. L. Martin, D. J. Fox, T. Keith, M. A. Al-Laham, 
 C. Y. Peng, A. Nanayakkara, M. Challacombe, P. M. W. Gill, 
 B. Johnson, W. Chen, M. W. Wong, C. Gonzalez, and J. A. Pople, 
 Gaussian, Inc., Wallingford CT, 2004.
 
 ******************************************
 Gaussian 03:  EM64T-G03RevE.01 11-Sep-2007
                12-Jun-2015 
 ******************************************
 %nproc=2
 Will use up to    2 processors via shared memory.
 Default route:  MP2=Direct MaxDisk=2000MB
 ----------------------------------------------------
 # b3lyp/6-31+G(d,p) int=ultrafine pop=(ReadRadii,MK)
 ----------------------------------------------------

 Warning!  SCF SP cutoffs with diffuse functions may be unreliable.
 Consider SCF=Tight

 1/38=1/1;
 2/17=6,18=5,40=1/2;
 3/5=1,6=6,7=111,11=2,16=1,25=1,30=1,74=-5,75=5/1,2,3;
 4//1;
 5/5=2,32=1,38=5/2;
 6/7=2,8=2,9=2,10=2,15=8,20=101,28=1/1,2;
 99/5=1,9=1/99;
 ----------------------------------------
 mol_16.4.4.pdbc_plusQ.out.z51600.zip.xyz
 ----------------------------------------
 Symbolic Z-matrix:
 Charge =  1 Multiplicity = 1
 O                    -1.09626  -3.12815   0. 
 P                    -0.55713  -1.74526   0. 
 O                     0.95295  -1.44904   0. 
 O                     1.10262   2.58997   0. 
 O                     0.        1.57206   0. 
 Ca                   -1.9867    0.89507   0. 
 Ca                    2.02082   0.57994   0. 
 
                          Input orientation:                          
 ---------------------------------------------------------------------
 Center     Atomic     Atomic              Coordinates (Angstroms)
 Number     Number      Type              X           Y           Z
 ---------------------------------------------------------------------
    1          8             0       -1.096260   -3.128150    0.000000
    2         15             0       -0.557130   -1.745260    0.000000
    3          8             0        0.952950   -1.449040    0.000000
    4          8             0        1.102620    2.589970    0.000000
    5          8             0        0.000000    1.572060    0.000000
    6         20             0       -1.986700    0.895070    0.000000
    7         20             0        2.020820    0.579940    0.000000
 ---------------------------------------------------------------------
                    Distance matrix (angstroms):
                    1          2          3          4          5
     1  O    0.000000
     2  P    1.484266   0.000000
     3  O    2.649278   1.538859   0.000000
     4  O    6.126334   4.642089   4.041782   0.000000
     5  O    4.826361   3.363779   3.167832   1.500637   0.000000
     6  Ca   4.120580   3.002501   3.759840   3.523717   2.098879
     7  Ca   4.844184   3.471654   2.292838   2.209822   2.251225
                    6          7
     6  Ca   0.000000
     7  Ca   4.019891   0.000000
 Stoichiometry    Ca2O4P(1+)
 Framework group  CS[SG(Ca2O4P)]
 Deg. of freedom    11
 Full point group                 CS
 Largest Abelian subgroup         CS      NOp   2
 Largest concise Abelian subgroup C1      NOp   1
                         Standard orientation:                         
 ---------------------------------------------------------------------
 Center     Atomic     Atomic              Coordinates (Angstroms)
 Number     Number      Type              X           Y           Z
 ---------------------------------------------------------------------
    1          8             0       -1.096258   -3.128151    0.000000
    2         15             0       -0.557128   -1.745261    0.000000
    3          8             0        0.952952   -1.449040    0.000000
    4          8             0        1.102619    2.589970    0.000000
    5          8             0        0.000000    1.572060    0.000000
    6         20             0       -1.986700    0.895069    0.000000
    7         20             0        2.020821    0.579941    0.000000
 ---------------------------------------------------------------------
 Rotational constants (GHZ):      1.5134256      0.9598686      0.5873502
 Standard basis: 6-31+G(d,p) (6D, 7F)
 There are   113 symmetry adapted basis functions of A'  symmetry.
 There are    40 symmetry adapted basis functions of A"  symmetry.
 Integral buffers will be    131072 words long.
 Raffenetti 2 integral format.
 Two-electron integral symmetry is turned on.
   153 basis functions,   344 primitive gaussians,   153 cartesian basis functions
    43 alpha electrons       43 beta electrons
       nuclear repulsion energy       572.5961950320 Hartrees.
 NAtoms=    7 NActive=    7 NUniq=    7 SFac= 7.50D-01 NAtFMM=   80 NAOKFM=F Big=F
 One-electron integrals computed using PRISM.
 NBasis=   153 RedAO= T  NBF=   113    40
 NBsUse=   153 1.00D-06 NBFU=   113    40
 Harris functional with IExCor=  402 diagonalized for initial guess.
 ExpMin= 7.10D-03 ExpMax= 3.53D+04 ExpMxC= 5.30D+03 IAcc=3 IRadAn=         5 AccDes= 0.00D+00
 HarFok:  IExCor= 402 AccDes= 0.00D+00 IRadAn=         5 IDoV=1
 ScaDFX=  1.000000  1.000000  1.000000  1.000000
 Initial guess orbital symmetries:
       Occupied  (A') (A') (A') (A') (A') (A') (A') (A') (A') (A')
                 (A') (A") (A') (A') (A") (A') (A') (A') (A") (A')
                 (A') (A') (A') (A') (A') (A") (A") (A') (A') (A')
                 (A') (A') (A') (A') (A') (A') (A") (A") (A") (A')
                 (A') (A") (A')
       Virtual   (A') (A") (A') (A') (A") (A') (A') (A") (A') (A')
                 (A') (A') (A') (A") (A') (A') (A") (A') (A') (A')
                 (A") (A') (A') (A") (A') (A') (A') (A") (A') (A")
                 (A") (A') (A') (A") (A') (A') (A") (A') (A') (A')
                 (A') (A") (A') (A") (A') (A') (A") (A') (A') (A')
                 (A') (A") (A') (A') (A") (A') (A') (A') (A') (A')
                 (A") (A') (A") (A') (A') (A') (A') (A") (A') (A')
                 (A') (A") (A") (A') (A') (A") (A') (A') (A') (A')
                 (A') (A') (A") (A') (A') (A') (A') (A") (A") (A")
                 (A') (A') (A") (A') (A') (A') (A') (A") (A") (A')
                 (A") (A') (A') (A') (A') (A') (A') (A') (A') (A')
 The electronic state of the initial guess is 1-A'.
 Requested convergence on RMS density matrix=1.00D-04 within 128 cycles.
 Requested convergence on MAX density matrix=1.00D-02.
 Requested convergence on             energy=1.00D-02.
 No special actions if energy rises.
 EnCoef did     1 forward-backward iterations
 EnCoef did     2 forward-backward iterations
 SCF Done:  E(RB+HF-LYP) =  -1997.22796471     A.U. after    9 cycles
             Convg  =    0.5721D-04             -V/T =  2.0031
             S**2   =   0.0000

 **********************************************************************

            Population analysis using the SCF density.

 **********************************************************************

 Orbital symmetries:
       Occupied  (A') (A') (A') (A') (A') (A') (A') (A') (A') (A")
                 (A') (A') (A") (A') (A') (A') (A") (A') (A') (A')
                 (A') (A") (A') (A') (A') (A") (A') (A') (A') (A')
                 (A') (A') (A') (A') (A") (A') (A') (A") (A") (A')
                 (A') (A') (A")
       Virtual   (A') (A") (A') (A") (A') (A') (A") (A') (A') (A')
                 (A') (A') (A') (A") (A') (A") (A') (A") (A') (A')
                 (A') (A') (A') (A") (A') (A") (A') (A') (A") (A')
                 (A") (A') (A') (A") (A') (A') (A") (A') (A') (A')
                 (A") (A') (A') (A") (A') (A") (A') (A') (A') (A")
                 (A') (A') (A') (A') (A") (A') (A') (A') (A') (A')
                 (A") (A') (A") (A') (A') (A') (A') (A') (A') (A")
                 (A") (A') (A") (A') (A') (A") (A') (A') (A') (A')
                 (A') (A') (A') (A') (A") (A') (A') (A") (A") (A")
                 (A') (A') (A') (A") (A') (A") (A') (A') (A") (A')
                 (A") (A') (A') (A') (A') (A') (A') (A') (A') (A')
 The electronic state is 1-A'.
 Alpha  occ. eigenvalues -- -145.60037-145.53016 -77.30228 -19.28768 -19.27068
 Alpha  occ. eigenvalues --  -19.26111 -19.23069 -15.66780 -15.59894 -12.80018
 Alpha  occ. eigenvalues --  -12.79976 -12.79897 -12.73162 -12.73077 -12.72961
 Alpha  occ. eigenvalues --   -6.76017  -4.92497  -4.92183  -4.91907  -2.03642
 Alpha  occ. eigenvalues --   -1.97052  -1.31195  -1.31050  -1.30693  -1.24968
 Alpha  occ. eigenvalues --   -1.24899  -1.24316  -1.14142  -1.09345  -1.09043
 Alpha  occ. eigenvalues --   -0.87275  -0.66652  -0.55279  -0.53410  -0.52653
 Alpha  occ. eigenvalues --   -0.50205  -0.47097  -0.46023  -0.44898  -0.44286
 Alpha  occ. eigenvalues --   -0.40459  -0.33317  -0.31411
 Alpha virt. eigenvalues --   -0.24853  -0.20988  -0.19930  -0.15135  -0.14826
 Alpha virt. eigenvalues --   -0.13070  -0.12161  -0.11094  -0.10142  -0.08495
 Alpha virt. eigenvalues --   -0.06987  -0.06526  -0.06044  -0.05926  -0.05120
 Alpha virt. eigenvalues --   -0.04947  -0.04804  -0.04576  -0.04241  -0.04067
 Alpha virt. eigenvalues --   -0.03617  -0.00881  -0.00732  -0.00183   0.00734
 Alpha virt. eigenvalues --    0.01451   0.01611   0.01982   0.02411   0.02812
 Alpha virt. eigenvalues --    0.03772   0.04191   0.04642   0.05354   0.05898
 Alpha virt. eigenvalues --    0.06947   0.07198   0.09229   0.12410   0.12708
 Alpha virt. eigenvalues --    0.14035   0.14280   0.15257   0.15397   0.17506
 Alpha virt. eigenvalues --    0.17681   0.20099   0.20570   0.22038   0.23562
 Alpha virt. eigenvalues --    0.23873   0.26119   0.27867   0.31047   0.31736
 Alpha virt. eigenvalues --    0.33843   0.34653   0.38889   0.46739   0.47701
 Alpha virt. eigenvalues --    0.54886   0.55199   0.55987   0.57897   0.62481
 Alpha virt. eigenvalues --    0.72098   0.89593   0.91719   0.96330   1.04038
 Alpha virt. eigenvalues --    1.06435   1.07940   1.10787   1.11416   1.12435
 Alpha virt. eigenvalues --    1.13791   1.15085   1.19087   1.20193   1.22904
 Alpha virt. eigenvalues --    1.33455   1.38808   1.44079   1.46036   1.49430
 Alpha virt. eigenvalues --    1.54382   1.59152   1.65998   1.67996   1.68980
 Alpha virt. eigenvalues --    1.70424   1.75676   1.80442   1.82457   1.83702
 Alpha virt. eigenvalues --    1.85139   1.86079   1.90805   1.94932   2.12426
 Alpha virt. eigenvalues --    2.24701   2.25602   2.60315   2.75166   3.07433
 Alpha virt. eigenvalues --    3.35720   3.81997   3.86901   3.92074   4.12075
          Condensed to atoms (all electrons):
              1          2          3          4          5          6
     1  O    8.475315   0.144480  -0.070047  -0.000495   0.005590  -0.023084
     2  P    0.144480  14.586566  -0.365879  -0.015109  -0.054787   0.216662
     3  O   -0.070047  -0.365879   8.996297   0.009000   0.022714  -0.058115
     4  O   -0.000495  -0.015109   0.009000   8.508654  -0.041661  -0.023016
     5  O    0.005590  -0.054787   0.022714  -0.041661   8.479338   0.173616
     6  Ca  -0.023084   0.216662  -0.058115  -0.023016   0.173616  18.271950
     7  Ca  -0.001562   0.034508   0.051065   0.163255   0.059255  -0.004592
              7
     1  O   -0.001562
     2  P    0.034508
     3  O    0.051065
     4  O    0.163255
     5  O    0.059255
     6  Ca  -0.004592
     7  Ca  18.238284
 Mulliken atomic charges:
              1
     1  O   -0.530196
     2  P    0.453559
     3  O   -0.585036
     4  O   -0.600629
     5  O   -0.644064
     6  Ca   1.446579
     7  Ca   1.459787
 Sum of Mulliken charges=   1.00000
 Atomic charges with hydrogens summed into heavy atoms:
              1
     1  O   -0.530196
     2  P    0.453559
     3  O   -0.585036
     4  O   -0.600629
     5  O   -0.644064
     6  Ca   1.446579
     7  Ca   1.459787
 Sum of Mulliken charges=   1.00000
 Electronic spatial extent (au):  <R**2>=  1641.6260
 Charge=     1.0000 electrons
 Dipole moment (field-independent basis, Debye):
    X=    -3.4816    Y=     4.1795    Z=     0.0000  Tot=     5.4397
 Quadrupole moment (field-independent basis, Debye-Ang):
   XX=    -1.3743   YY=   -92.1726   ZZ=   -54.7451
   XY=   -16.2290   XZ=     0.0000   YZ=     0.0000
 Traceless Quadrupole moment (field-independent basis, Debye-Ang):
   XX=    48.0564   YY=   -42.7420   ZZ=    -5.3144
   XY=   -16.2290   XZ=     0.0000   YZ=     0.0000
 Octapole moment (field-independent basis, Debye-Ang**2):
  XXX=     1.7993  YYY=    15.4708  ZZZ=     0.0000  XYY=   -18.0773
  XXY=    59.9829  XXZ=     0.0000  XZZ=    -0.1952  YZZ=     3.0797
  YYZ=     0.0000  XYZ=     0.0000
 Hexadecapole moment (field-independent basis, Debye-Ang**3):
 XXXX=  -353.1564 YYYY= -1439.0653 ZZZZ=   -58.5637 XXXY=  -154.3836
 XXXZ=     0.0000 YYYX=  -232.3561 YYYZ=     0.0000 ZZZX=     0.0000
 ZZZY=     0.0000 XXYY=  -311.4743 XXZZ=  -111.1118 YYZZ=  -196.2891
 XXYZ=     0.0000 YYXZ=     0.0000 ZZXY=   -38.8040
 N-N= 5.725961950320D+02 E-N=-5.863596090015D+03  KE= 1.991061482986D+03
 Symmetry A'   KE= 1.800454173148D+03
 Symmetry A"   KE= 1.906073098377D+02
 Merz-Kollman atomic radii used.
 Read replacement radii for each type of atom:
 Rad(20) =   1.188000000000D+00
 Atom Element Radius
    1     8    1.40
    2    15    1.80
    3     8    1.40
    4     8    1.40
    5     8    1.40
    6    20    1.19
    7    20    1.19

 **********************************************************************

            Electrostatic Properties Using The SCF Density

 **********************************************************************

       Atomic Center    1 is at  -1.096258 -3.128151  0.000000
       Atomic Center    2 is at  -0.557128 -1.745261  0.000000
       Atomic Center    3 is at   0.952952 -1.449040  0.000000
       Atomic Center    4 is at   1.102619  2.589970  0.000000
       Atomic Center    5 is at   0.000000  1.572060  0.000000
       Atomic Center    6 is at  -1.986700  0.895069  0.000000
       Atomic Center    7 is at   2.020821  0.579941  0.000000
     718 points will be used for fitting atomic charges
 Fitting point charges to eletrostatic potential
 Charges from ESP fit, RMS=   0.00769 RRMS=   0.04666:
 Charge=   1.00000 Dipole=    -3.5432     4.1313     0.0000 Tot=     5.4426
              1
     1  O   -0.241005
     2  P   -0.064565
     3  O   -0.404292
     4  O   -0.590204
     5  O   -0.916012
     6  Ca   1.622182
     7  Ca   1.593897
 -----------------------------------------------------------------

              Electrostatic Properties (Atomic Units)

 -----------------------------------------------------------------
    Center     Electric         -------- Electric Field --------
               Potential          X             Y             Z
 -----------------------------------------------------------------
    1 Atom    -22.198377
    2 Atom    -53.912364
    3 Atom    -22.179909
    4 Atom    -22.254356
    5 Atom    -22.206539
    6 Atom    -79.938039
    7 Atom    -80.012199
 -----------------------------------------------------------------
 1\1\GINC-N025\SP\RB3LYP\6-31+G(d,p)\Ca2O4P1(1+)\TIMN\12-Jun-2015\0\\# 
 b3lyp/6-31+G(d,p) int=ultrafine pop=(ReadRadii,MK)\\mol_16.4.4.pdbc_pl
 usQ.out.z51600.zip.xyz\\1,1\O,0,-1.09626,-3.12815,0.\P,0,-0.55713,-1.7
 4526,0.\O,0,0.95295,-1.44904,0.\O,0,1.10262,2.58997,0.\O,0,0.,1.57206,
 0.\Ca,0,-1.9867,0.89507,0.\Ca,0,2.02082,0.57994,0.\\Version=EM64T-G03R
 evE.01\State=1-A'\HF=-1997.2279647\RMSD=5.721e-05\Thermal=0.\Dipole=-1
 .3697594,1.6443524,0.\PG=CS [SG(Ca2O4P1)]\\@


 TOM, TOM, THE BURGLAR'S SON
 STOLE A MACHINE AND AWAY HE RUN
 THE JOB WAS NEAT, BUT TOM GOT BEAT
 BY THE TIME HE GOT HOME IT WAS OBSOLETE.
 Job cpu time:  0 days  0 hours  0 minutes 46.4 seconds.
 File lengths (MBytes):  RWF=     28 Int=      0 D2E=      0 Chk=     10 Scr=      1
 Normal termination of Gaussian 03 at Fri Jun 12 17:48:49 2015.
