 Entering Gaussian System, Link 0=/home/timn/tmp/g03.e01/g03
 Input=mol_16.5.11.pdb_plusQc.out.z51617.zip.xyz.gjf
 Output=mol_16.5.11.pdb_plusQc.out.z51617.zip.xyz.out
 Initial command:
 /home/timn/tmp/g03.e01/l1.exe /home/timn/tmp/g03.e01/Gau-16807.inp -scrdir=/home/timn/tmp/g03.e01/
 Default is to use a total of   2 processors:
                                2 via shared-memory
                                1 via Linda
 Entering Link 1 = /home/timn/tmp/g03.e01/l1.exe PID=     16808.
  
 Copyright (c) 1988,1990,1992,1993,1995,1998,2003,2004,2007, Gaussian, Inc.
                  All Rights Reserved.
  
 This is the Gaussian(R) 03 program.  It is based on the
 the Gaussian(R) 98 system (copyright 1998, Gaussian, Inc.),
 the Gaussian(R) 94 system (copyright 1995, Gaussian, Inc.),
 the Gaussian 92(TM) system (copyright 1992, Gaussian, Inc.),
 the Gaussian 90(TM) system (copyright 1990, Gaussian, Inc.),
 the Gaussian 88(TM) system (copyright 1988, Gaussian, Inc.),
 the Gaussian 86(TM) system (copyright 1986, Carnegie Mellon
 University), and the Gaussian 82(TM) system (copyright 1983,
 Carnegie Mellon University). Gaussian is a federally registered
 trademark of Gaussian, Inc.
  
 This software contains proprietary and confidential information,
 including trade secrets, belonging to Gaussian, Inc.
  
 This software is provided under written license and may be
 used, copied, transmitted, or stored only in accord with that
 written license.
  
 The following legend is applicable only to US Government
 contracts under FAR:
  
                    RESTRICTED RIGHTS LEGEND
  
 Use, reproduction and disclosure by the US Government is
 subject to restrictions as set forth in subparagraphs (a)
 and (c) of the Commercial Computer Software - Restricted
 Rights clause in FAR 52.227-19.
  
 Gaussian, Inc.
 340 Quinnipiac St., Bldg. 40, Wallingford CT 06492
  
  
 ---------------------------------------------------------------
 Warning -- This program may not be used in any manner that
 competes with the business of Gaussian, Inc. or will provide
 assistance to any competitor of Gaussian, Inc.  The licensee
 of this program is prohibited from giving any competitor of
 Gaussian, Inc. access to this program.  By using this program,
 the user acknowledges that Gaussian, Inc. is engaged in the
 business of creating and licensing software in the field of
 computational chemistry and represents and warrants to the
 licensee that it is not a competitor of Gaussian, Inc. and that
 it will not use this program in any manner prohibited above.
 ---------------------------------------------------------------
  

 Cite this work as:
 Gaussian 03, Revision E.01,
 M. J. Frisch, G. W. Trucks, H. B. Schlegel, G. E. Scuseria, 
 M. A. Robb, J. R. Cheeseman, J. A. Montgomery, Jr., T. Vreven, 
 K. N. Kudin, J. C. Burant, J. M. Millam, S. S. Iyengar, J. Tomasi, 
 V. Barone, B. Mennucci, M. Cossi, G. Scalmani, N. Rega, 
 G. A. Petersson, H. Nakatsuji, M. Hada, M. Ehara, K. Toyota, 
 R. Fukuda, J. Hasegawa, M. Ishida, T. Nakajima, Y. Honda, O. Kitao, 
 H. Nakai, M. Klene, X. Li, J. E. Knox, H. P. Hratchian, J. B. Cross, 
 V. Bakken, C. Adamo, J. Jaramillo, R. Gomperts, R. E. Stratmann, 
 O. Yazyev, A. J. Austin, R. Cammi, C. Pomelli, J. W. Ochterski, 
 P. Y. Ayala, K. Morokuma, G. A. Voth, P. Salvador, J. J. Dannenberg, 
 V. G. Zakrzewski, S. Dapprich, A. D. Daniels, M. C. Strain, 
 O. Farkas, D. K. Malick, A. D. Rabuck, K. Raghavachari, 
 J. B. Foresman, J. V. Ortiz, Q. Cui, A. G. Baboul, S. Clifford, 
 J. Cioslowski, B. B. Stefanov, G. Liu, A. Liashenko, P. Piskorz, 
 I. Komaromi, R. L. Martin, D. J. Fox, T. Keith, M. A. Al-Laham, 
 C. Y. Peng, A. Nanayakkara, M. Challacombe, P. M. W. Gill, 
 B. Johnson, W. Chen, M. W. Wong, C. Gonzalez, and J. A. Pople, 
 Gaussian, Inc., Wallingford CT, 2004.
 
 ******************************************
 Gaussian 03:  EM64T-G03RevE.01 11-Sep-2007
                12-Jun-2015 
 ******************************************
 %nproc=2
 Will use up to    2 processors via shared memory.
 Default route:  MP2=Direct MaxDisk=2000MB
 ----------------------------------------------------
 # b3lyp/6-31+G(d,p) int=ultrafine pop=(ReadRadii,MK)
 ----------------------------------------------------

 Warning!  SCF SP cutoffs with diffuse functions may be unreliable.
 Consider SCF=Tight

 1/38=1/1;
 2/17=6,18=5,40=1/2;
 3/5=1,6=6,7=111,11=2,16=1,25=1,30=1,74=-5,75=5/1,2,3;
 4//1;
 5/5=2,32=1,38=5/2;
 6/7=2,8=2,9=2,10=2,15=8,20=101,28=1/1,2;
 99/5=1,9=1/99;
 -----------------------------------------
 mol_16.5.11.pdb_plusQc.out.z51617.zip.xyz
 -----------------------------------------
 Symbolic Z-matrix:
 Charge =  1 Multiplicity = 1
 O                    -3.2468   -0.00314  -0.00322 
 O                    -0.95074   1.27803   0.00408 
 P                    -1.77638  -0.00131   0.00048 
 O                    -0.94726  -1.27833   0.00055 
 Ca                    1.2587   -1.89354   0.00035 
 O                     2.19233   0.00187  -0.00168 
 Ca                    1.25457   1.89515  -0.0006 
 
                          Input orientation:                          
 ---------------------------------------------------------------------
 Center     Atomic     Atomic              Coordinates (Angstroms)
 Number     Number      Type              X           Y           Z
 ---------------------------------------------------------------------
    1          8             0       -3.246800   -0.003140   -0.003220
    2          8             0       -0.950740    1.278030    0.004080
    3         15             0       -1.776380   -0.001310    0.000480
    4          8             0       -0.947260   -1.278330    0.000550
    5         20             0        1.258700   -1.893540    0.000350
    6          8             0        2.192330    0.001870   -0.001680
    7         20             0        1.254570    1.895150   -0.000600
 ---------------------------------------------------------------------
                    Distance matrix (angstroms):
                    1          2          3          4          5
     1  O    0.000000
     2  O    2.629323   0.000000
     3  P    1.470426   1.522631   0.000000
     4  O    2.629450   2.556365   1.522570   0.000000
     5  Ca   4.886016   3.865294   3.576625   2.290140   0.000000
     6  O    5.439133   3.392272   3.968712   3.390567   2.112877
     7  Ca   4.885268   2.290033   3.575363   3.862516   3.788692
                    6          7
     6  O    0.000000
     7  Ca   2.112795   0.000000
 Stoichiometry    Ca2O4P(1+)
 Framework group  C1[X(Ca2O4P)]
 Deg. of freedom    15
 Full point group                 C1
 Largest Abelian subgroup         C1      NOp   1
 Largest concise Abelian subgroup C1      NOp   1
                         Standard orientation:                         
 ---------------------------------------------------------------------
 Center     Atomic     Atomic              Coordinates (Angstroms)
 Number     Number      Type              X           Y           Z
 ---------------------------------------------------------------------
    1          8             0        3.246799   -0.003142    0.003220
    2          8             0        0.950740    1.278029   -0.004080
    3         15             0        1.776379   -0.001311   -0.000480
    4          8             0        0.947258   -1.278331   -0.000550
    5         20             0       -1.258702   -1.893539   -0.000350
    6          8             0       -2.192331    0.001872    0.001680
    7         20             0       -1.254569    1.895151    0.000600
 ---------------------------------------------------------------------
 Rotational constants (GHZ):      1.4904463      1.0143417      0.6035735
 Standard basis: 6-31+G(d,p) (6D, 7F)
 There are   153 symmetry adapted basis functions of A   symmetry.
 Integral buffers will be    131072 words long.
 Raffenetti 2 integral format.
 Two-electron integral symmetry is turned on.
   153 basis functions,   344 primitive gaussians,   153 cartesian basis functions
    43 alpha electrons       43 beta electrons
       nuclear repulsion energy       585.0382945066 Hartrees.
 NAtoms=    7 NActive=    7 NUniq=    7 SFac= 7.50D-01 NAtFMM=   80 NAOKFM=F Big=F
 One-electron integrals computed using PRISM.
 NBasis=   153 RedAO= T  NBF=   153
 NBsUse=   153 1.00D-06 NBFU=   153
 Harris functional with IExCor=  402 diagonalized for initial guess.
 ExpMin= 7.10D-03 ExpMax= 3.53D+04 ExpMxC= 5.30D+03 IAcc=3 IRadAn=         5 AccDes= 0.00D+00
 HarFok:  IExCor= 402 AccDes= 0.00D+00 IRadAn=         5 IDoV=1
 ScaDFX=  1.000000  1.000000  1.000000  1.000000
 Initial guess orbital symmetries:
       Occupied  (A) (A) (A) (A) (A) (A) (A) (A) (A) (A) (A) (A)
                 (A) (A) (A) (A) (A) (A) (A) (A) (A) (A) (A) (A)
                 (A) (A) (A) (A) (A) (A) (A) (A) (A) (A) (A) (A)
                 (A) (A) (A) (A) (A) (A) (A)
       Virtual   (A) (A) (A) (A) (A) (A) (A) (A) (A) (A) (A) (A)
                 (A) (A) (A) (A) (A) (A) (A) (A) (A) (A) (A) (A)
                 (A) (A) (A) (A) (A) (A) (A) (A) (A) (A) (A) (A)
                 (A) (A) (A) (A) (A) (A) (A) (A) (A) (A) (A) (A)
                 (A) (A) (A) (A) (A) (A) (A) (A) (A) (A) (A) (A)
                 (A) (A) (A) (A) (A) (A) (A) (A) (A) (A) (A) (A)
                 (A) (A) (A) (A) (A) (A) (A) (A) (A) (A) (A) (A)
                 (A) (A) (A) (A) (A) (A) (A) (A) (A) (A) (A) (A)
                 (A) (A) (A) (A) (A) (A) (A) (A) (A) (A) (A) (A)
                 (A) (A)
 The electronic state of the initial guess is 1-A.
 Requested convergence on RMS density matrix=1.00D-04 within 128 cycles.
 Requested convergence on MAX density matrix=1.00D-02.
 Requested convergence on             energy=1.00D-02.
 No special actions if energy rises.
 EnCoef did     1 forward-backward iterations
 EnCoef did     3 forward-backward iterations
 SCF Done:  E(RB+HF-LYP) =  -1997.36495481     A.U. after    9 cycles
             Convg  =    0.4854D-04             -V/T =  2.0032
             S**2   =   0.0000

 **********************************************************************

            Population analysis using the SCF density.

 **********************************************************************

 Orbital symmetries:
       Occupied  (A) (A) (A) (A) (A) (A) (A) (A) (A) (A) (A) (A)
                 (A) (A) (A) (A) (A) (A) (A) (A) (A) (A) (A) (A)
                 (A) (A) (A) (A) (A) (A) (A) (A) (A) (A) (A) (A)
                 (A) (A) (A) (A) (A) (A) (A)
       Virtual   (A) (A) (A) (A) (A) (A) (A) (A) (A) (A) (A) (A)
                 (A) (A) (A) (A) (A) (A) (A) (A) (A) (A) (A) (A)
                 (A) (A) (A) (A) (A) (A) (A) (A) (A) (A) (A) (A)
                 (A) (A) (A) (A) (A) (A) (A) (A) (A) (A) (A) (A)
                 (A) (A) (A) (A) (A) (A) (A) (A) (A) (A) (A) (A)
                 (A) (A) (A) (A) (A) (A) (A) (A) (A) (A) (A) (A)
                 (A) (A) (A) (A) (A) (A) (A) (A) (A) (A) (A) (A)
                 (A) (A) (A) (A) (A) (A) (A) (A) (A) (A) (A) (A)
                 (A) (A) (A) (A) (A) (A) (A) (A) (A) (A) (A) (A)
                 (A) (A)
 The electronic state is 1-A.
 Alpha  occ. eigenvalues -- -145.53597-145.53590 -77.35857 -19.29927 -19.29926
 Alpha  occ. eigenvalues --  -19.27561 -19.15848 -15.60452 -15.60445 -12.73702
 Alpha  occ. eigenvalues --  -12.73696 -12.73627 -12.73621 -12.73537 -12.73530
 Alpha  occ. eigenvalues --   -6.81066  -4.97684  -4.97213  -4.97116  -1.97567
 Alpha  occ. eigenvalues --   -1.97548  -1.25347  -1.25328  -1.25295  -1.25083
 Alpha  occ. eigenvalues --   -1.24704  -1.24173  -1.18396  -1.11383  -1.10398
 Alpha  occ. eigenvalues --   -0.90345  -0.67781  -0.60011  -0.56612  -0.55837
 Alpha  occ. eigenvalues --   -0.50168  -0.48054  -0.47795  -0.45412  -0.42507
 Alpha  occ. eigenvalues --   -0.36650  -0.34562  -0.34383
 Alpha virt. eigenvalues --   -0.22298  -0.20459  -0.16811  -0.14885  -0.13472
 Alpha virt. eigenvalues --   -0.12518  -0.11815  -0.10788  -0.09941  -0.08257
 Alpha virt. eigenvalues --   -0.07256  -0.06248  -0.05558  -0.05269  -0.04858
 Alpha virt. eigenvalues --   -0.04660  -0.04645  -0.04368  -0.03658  -0.01083
 Alpha virt. eigenvalues --   -0.01046  -0.00624   0.00369   0.01677   0.02308
 Alpha virt. eigenvalues --    0.02659   0.02899   0.03370   0.04419   0.04543
 Alpha virt. eigenvalues --    0.05205   0.06555   0.06576   0.06663   0.07207
 Alpha virt. eigenvalues --    0.07475   0.09173   0.09175   0.12104   0.12985
 Alpha virt. eigenvalues --    0.14117   0.14862   0.15424   0.17803   0.20131
 Alpha virt. eigenvalues --    0.20680   0.20805   0.21211   0.21898   0.23122
 Alpha virt. eigenvalues --    0.23959   0.26591   0.28730   0.29013   0.33787
 Alpha virt. eigenvalues --    0.35463   0.37212   0.45328   0.50542   0.53418
 Alpha virt. eigenvalues --    0.54091   0.54937   0.56957   0.64047   0.66954
 Alpha virt. eigenvalues --    0.80800   0.91859   0.92863   0.95139   1.03886
 Alpha virt. eigenvalues --    1.05573   1.05842   1.11445   1.12681   1.13832
 Alpha virt. eigenvalues --    1.15121   1.16986   1.20455   1.21580   1.22158
 Alpha virt. eigenvalues --    1.26601   1.38474   1.38794   1.41343   1.48655
 Alpha virt. eigenvalues --    1.63809   1.64480   1.65463   1.66591   1.69083
 Alpha virt. eigenvalues --    1.73602   1.74072   1.80209   1.80403   1.81525
 Alpha virt. eigenvalues --    1.84685   1.90574   1.93277   1.96182   1.98517
 Alpha virt. eigenvalues --    2.17061   2.18395   2.56333   2.69399   2.77900
 Alpha virt. eigenvalues --    3.35226   3.81865   3.93311   3.93332   3.96393
          Condensed to atoms (all electrons):
              1          2          3          4          5          6
     1  O    8.434086  -0.147017   0.472372  -0.147338   0.000090  -0.000502
     2  O   -0.147017   9.048702   0.252734  -0.372021  -0.024918   0.011538
     3  P    0.472372   0.252734  12.523081   0.252012  -0.017954  -0.023471
     4  O   -0.147338  -0.372021   0.252012   9.050128   0.091013   0.011512
     5  Ca   0.000090  -0.024918  -0.017954   0.091013  18.255706   0.227979
     6  O   -0.000502   0.011538  -0.023471   0.011512   0.227979   8.742593
     7  Ca   0.000151   0.091019  -0.017927  -0.025010  -0.017312   0.228000
              7
     1  O    0.000151
     2  O    0.091019
     3  P   -0.017927
     4  O   -0.025010
     5  Ca  -0.017312
     6  O    0.228000
     7  Ca  18.255804
 Mulliken atomic charges:
              1
     1  O   -0.611842
     2  O   -0.860036
     3  P    1.559153
     4  O   -0.860296
     5  Ca   1.485396
     6  O   -1.197649
     7  Ca   1.485275
 Sum of Mulliken charges=   1.00000
 Atomic charges with hydrogens summed into heavy atoms:
              1
     1  O   -0.611842
     2  O   -0.860036
     3  P    1.559153
     4  O   -0.860296
     5  Ca   1.485396
     6  O   -1.197649
     7  Ca   1.485275
 Sum of Mulliken charges=   1.00000
 Electronic spatial extent (au):  <R**2>=  1591.6014
 Charge=     1.0000 electrons
 Dipole moment (field-independent basis, Debye):
    X=    -8.6811    Y=     0.0013    Z=    -0.0055  Tot=     8.6811
 Quadrupole moment (field-independent basis, Debye-Ang):
   XX=   -74.7193   YY=    -7.7621   ZZ=   -53.5434
   XY=     0.0714   XZ=     0.0016   YZ=     0.0313
 Traceless Quadrupole moment (field-independent basis, Debye-Ang):
   XX=   -29.3777   YY=    37.5795   ZZ=    -8.2018
   XY=     0.0714   XZ=     0.0016   YZ=     0.0313
 Octapole moment (field-independent basis, Debye-Ang**2):
  XXX=   -30.0489  YYY=     0.1682  ZZZ=    -0.0134  XYY=   -94.5938
  XXY=    -0.1801  XXZ=    -0.1381  XZZ=    -3.8030  YZZ=     0.0001
  YYZ=     0.0329  XYZ=    -0.0008
 Hexadecapole moment (field-independent basis, Debye-Ang**3):
 XXXX= -1410.3015 YYYY=  -350.5051 ZZZZ=   -55.9849 XXXY=     0.7121
 XXXZ=    -0.1362 YYYX=     0.1519 YYYZ=     0.1144 ZZZX=     0.0223
 ZZZY=     0.0470 XXYY=  -187.3565 XXZZ=  -191.1200 YYZZ=   -97.4917
 XXYZ=     0.0532 YYXZ=     0.0247 ZZXY=     0.0457
 N-N= 5.850382945066D+02 E-N=-5.888491415438D+03  KE= 1.991044245120D+03
 Merz-Kollman atomic radii used.
 Read replacement radii for each type of atom:
 Rad(20) =   1.188000000000D+00
 Atom Element Radius
    1     8    1.40
    2     8    1.40
    3    15    1.80
    4     8    1.40
    5    20    1.19
    6     8    1.40
    7    20    1.19

 **********************************************************************

            Electrostatic Properties Using The SCF Density

 **********************************************************************

       Atomic Center    1 is at   3.246799 -0.003142  0.003220
       Atomic Center    2 is at   0.950740  1.278029 -0.004080
       Atomic Center    3 is at   1.776379 -0.001311 -0.000480
       Atomic Center    4 is at   0.947258 -1.278331 -0.000550
       Atomic Center    5 is at  -1.258702 -1.893539 -0.000350
       Atomic Center    6 is at  -2.192331  0.001872  0.001680
       Atomic Center    7 is at  -1.254569  1.895151  0.000600
     685 points will be used for fitting atomic charges
 Fitting point charges to eletrostatic potential
 Charges from ESP fit, RMS=   0.00371 RRMS=   0.02312:
 Charge=   1.00000 Dipole=    -8.8369     0.0007    -0.0015 Tot=     8.8369
              1
     1  O   -0.539893
     2  O   -0.932109
     3  P    1.484274
     4  O   -0.932320
     5  Ca   1.739476
     6  O   -1.558879
     7  Ca   1.739450
 -----------------------------------------------------------------

              Electrostatic Properties (Atomic Units)

 -----------------------------------------------------------------
    Center     Electric         -------- Electric Field --------
               Potential          X             Y             Z
 -----------------------------------------------------------------
    1 Atom    -22.195938
    2 Atom    -22.162056
    3 Atom    -53.847839
    4 Atom    -22.162029
    5 Atom    -80.004804
    6 Atom    -22.292934
    7 Atom    -80.004873
 -----------------------------------------------------------------
 1\1\GINC-N028\SP\RB3LYP\6-31+G(d,p)\Ca2O4P1(1+)\TIMN\12-Jun-2015\0\\# 
 b3lyp/6-31+G(d,p) int=ultrafine pop=(ReadRadii,MK)\\mol_16.5.11.pdb_pl
 usQc.out.z51617.zip.xyz\\1,1\O,0,-3.2468,-0.00314,-0.00322\O,0,-0.9507
 4,1.27803,0.00408\P,0,-1.77638,-0.00131,0.00048\O,0,-0.94726,-1.27833,
 0.00055\Ca,0,1.2587,-1.89354,0.00035\O,0,2.19233,0.00187,-0.00168\Ca,0
 ,1.25457,1.89515,-0.0006\\Version=EM64T-G03RevE.01\State=1-A\HF=-1997.
 3649548\RMSD=4.854e-05\Thermal=0.\Dipole=3.4153929,0.0005083,0.002161\
 PG=C01 [X(Ca2O4P1)]\\@


 MATERIAL COPIED FROM ONE SCHOLARLY BOOK WITHOUT CREDIT COMPRISES PLAGIARISM.
 MATERIAL COPIED FROM TWO SCHOLARLY BOOKS COMPRISES AN ESSAY.
 MATERIAL COPIED FROM THREE SCHOLARLY BOOKS COMPRISES A DISSERTATION.
 MATERIAL COPIED FROM FOUR SCHOLARLY BOOKS COMPRISES A FIFTH SCHOLARLY BOOK.

                               -- C&EN, 25 FEB 1980
 Job cpu time:  0 days  0 hours  1 minutes  1.5 seconds.
 File lengths (MBytes):  RWF=     28 Int=      0 D2E=      0 Chk=     10 Scr=      1
 Normal termination of Gaussian 03 at Fri Jun 12 17:49:31 2015.
