 Entering Gaussian System, Link 0=/home/timn/tmp/g03.e01/g03
 Input=mol_16.4.20.pdb_plusQ.out.z51571.zip.xyz.gjf
 Output=mol_16.4.20.pdb_plusQ.out.z51571.zip.xyz.out
 Initial command:
 /home/timn/tmp/g03.e01/l1.exe /home/timn/tmp/g03.e01/Gau-19571.inp -scrdir=/home/timn/tmp/g03.e01/
 Default is to use a total of   2 processors:
                                2 via shared-memory
                                1 via Linda
 Entering Link 1 = /home/timn/tmp/g03.e01/l1.exe PID=     19574.
  
 Copyright (c) 1988,1990,1992,1993,1995,1998,2003,2004,2007, Gaussian, Inc.
                  All Rights Reserved.
  
 This is the Gaussian(R) 03 program.  It is based on the
 the Gaussian(R) 98 system (copyright 1998, Gaussian, Inc.),
 the Gaussian(R) 94 system (copyright 1995, Gaussian, Inc.),
 the Gaussian 92(TM) system (copyright 1992, Gaussian, Inc.),
 the Gaussian 90(TM) system (copyright 1990, Gaussian, Inc.),
 the Gaussian 88(TM) system (copyright 1988, Gaussian, Inc.),
 the Gaussian 86(TM) system (copyright 1986, Carnegie Mellon
 University), and the Gaussian 82(TM) system (copyright 1983,
 Carnegie Mellon University). Gaussian is a federally registered
 trademark of Gaussian, Inc.
  
 This software contains proprietary and confidential information,
 including trade secrets, belonging to Gaussian, Inc.
  
 This software is provided under written license and may be
 used, copied, transmitted, or stored only in accord with that
 written license.
  
 The following legend is applicable only to US Government
 contracts under FAR:
  
                    RESTRICTED RIGHTS LEGEND
  
 Use, reproduction and disclosure by the US Government is
 subject to restrictions as set forth in subparagraphs (a)
 and (c) of the Commercial Computer Software - Restricted
 Rights clause in FAR 52.227-19.
  
 Gaussian, Inc.
 340 Quinnipiac St., Bldg. 40, Wallingford CT 06492
  
  
 ---------------------------------------------------------------
 Warning -- This program may not be used in any manner that
 competes with the business of Gaussian, Inc. or will provide
 assistance to any competitor of Gaussian, Inc.  The licensee
 of this program is prohibited from giving any competitor of
 Gaussian, Inc. access to this program.  By using this program,
 the user acknowledges that Gaussian, Inc. is engaged in the
 business of creating and licensing software in the field of
 computational chemistry and represents and warrants to the
 licensee that it is not a competitor of Gaussian, Inc. and that
 it will not use this program in any manner prohibited above.
 ---------------------------------------------------------------
  

 Cite this work as:
 Gaussian 03, Revision E.01,
 M. J. Frisch, G. W. Trucks, H. B. Schlegel, G. E. Scuseria, 
 M. A. Robb, J. R. Cheeseman, J. A. Montgomery, Jr., T. Vreven, 
 K. N. Kudin, J. C. Burant, J. M. Millam, S. S. Iyengar, J. Tomasi, 
 V. Barone, B. Mennucci, M. Cossi, G. Scalmani, N. Rega, 
 G. A. Petersson, H. Nakatsuji, M. Hada, M. Ehara, K. Toyota, 
 R. Fukuda, J. Hasegawa, M. Ishida, T. Nakajima, Y. Honda, O. Kitao, 
 H. Nakai, M. Klene, X. Li, J. E. Knox, H. P. Hratchian, J. B. Cross, 
 V. Bakken, C. Adamo, J. Jaramillo, R. Gomperts, R. E. Stratmann, 
 O. Yazyev, A. J. Austin, R. Cammi, C. Pomelli, J. W. Ochterski, 
 P. Y. Ayala, K. Morokuma, G. A. Voth, P. Salvador, J. J. Dannenberg, 
 V. G. Zakrzewski, S. Dapprich, A. D. Daniels, M. C. Strain, 
 O. Farkas, D. K. Malick, A. D. Rabuck, K. Raghavachari, 
 J. B. Foresman, J. V. Ortiz, Q. Cui, A. G. Baboul, S. Clifford, 
 J. Cioslowski, B. B. Stefanov, G. Liu, A. Liashenko, P. Piskorz, 
 I. Komaromi, R. L. Martin, D. J. Fox, T. Keith, M. A. Al-Laham, 
 C. Y. Peng, A. Nanayakkara, M. Challacombe, P. M. W. Gill, 
 B. Johnson, W. Chen, M. W. Wong, C. Gonzalez, and J. A. Pople, 
 Gaussian, Inc., Wallingford CT, 2004.
 
 ******************************************
 Gaussian 03:  EM64T-G03RevE.01 11-Sep-2007
                12-Jun-2015 
 ******************************************
 %nproc=2
 Will use up to    2 processors via shared memory.
 Default route:  MP2=Direct MaxDisk=2000MB
 ----------------------------------------------------
 # b3lyp/6-31+G(d,p) int=ultrafine pop=(ReadRadii,MK)
 ----------------------------------------------------

 Warning!  SCF SP cutoffs with diffuse functions may be unreliable.
 Consider SCF=Tight

 1/38=1/1;
 2/17=6,18=5,40=1/2;
 3/5=1,6=6,7=111,11=2,16=1,25=1,30=1,74=-5,75=5/1,2,3;
 4//1;
 5/5=2,32=1,38=5/2;
 6/7=2,8=2,9=2,10=2,15=8,20=101,28=1/1,2;
 99/5=1,9=1/99;
 ----------------------------------------
 mol_16.4.20.pdb_plusQ.out.z51571.zip.xyz
 ----------------------------------------
 Symbolic Z-matrix:
 Charge =  1 Multiplicity = 1
 O                    -1.75245   0.23258  -0.01192 
 P                    -0.35567  -0.44618   0.00102 
 Ca                   -0.97641   2.30526  -0.01179 
 O                     0.13198  -1.2369   -1.24534 
 O                     0.11926  -1.23133   1.25485 
 Ca                    2.09226  -1.24264   0.00978 
 O                     0.71358   0.86318   0.00341 
 
                          Input orientation:                          
 ---------------------------------------------------------------------
 Center     Atomic     Atomic              Coordinates (Angstroms)
 Number     Number      Type              X           Y           Z
 ---------------------------------------------------------------------
    1          8             0       -1.752450    0.232580   -0.011920
    2         15             0       -0.355670   -0.446180    0.001020
    3         20             0       -0.976410    2.305260   -0.011790
    4          8             0        0.131980   -1.236900   -1.245340
    5          8             0        0.119260   -1.231330    1.254850
    6         20             0        2.092260   -1.242640    0.009780
    7          8             0        0.713580    0.863180    0.003410
 ---------------------------------------------------------------------
                    Distance matrix (angstroms):
                    1          2          3          4          5
     1  O    0.000000
     2  P    1.553022   0.000000
     3  Ca   2.213197   2.820621   0.000000
     4  O    2.689196   1.554495   3.911147   0.000000
     5  O    2.692775   1.553740   3.913098   2.500229   0.000000
     6  Ca   4.118075   2.574255   4.690927   2.327672   2.333036
     7  O    2.545426   1.690481   2.221687   2.511567   2.511233
                    6          7
     6  Ca   0.000000
     7  O    2.516998   0.000000
 Stoichiometry    Ca2O4P(1+)
 Framework group  C1[X(Ca2O4P)]
 Deg. of freedom    15
 Full point group                 C1
 Largest Abelian subgroup         C1      NOp   1
 Largest concise Abelian subgroup C1      NOp   1
                         Standard orientation:                         
 ---------------------------------------------------------------------
 Center     Atomic     Atomic              Coordinates (Angstroms)
 Number     Number      Type              X           Y           Z
 ---------------------------------------------------------------------
    1          8             0        1.349221    1.316363   -0.004832
    2         15             0       -0.067250    0.679611    0.001092
    3         20             0        2.442292   -0.608063   -0.000005
    4          8             0       -0.980702    0.812705   -1.249646
    5          8             0       -0.980323    0.818154    1.250577
    6         20             0       -2.247948   -0.688358   -0.001065
    7          8             0        0.252039   -0.980440    0.004528
 ---------------------------------------------------------------------
 Rotational constants (GHZ):      3.1124969      0.9166504      0.8234742
 Standard basis: 6-31+G(d,p) (6D, 7F)
 There are   153 symmetry adapted basis functions of A   symmetry.
 Integral buffers will be    131072 words long.
 Raffenetti 2 integral format.
 Two-electron integral symmetry is turned on.
   153 basis functions,   344 primitive gaussians,   153 cartesian basis functions
    43 alpha electrons       43 beta electrons
       nuclear repulsion energy       648.7574811376 Hartrees.
 NAtoms=    7 NActive=    7 NUniq=    7 SFac= 7.50D-01 NAtFMM=   80 NAOKFM=F Big=F
 One-electron integrals computed using PRISM.
 NBasis=   153 RedAO= T  NBF=   153
 NBsUse=   153 1.00D-06 NBFU=   153
 Harris functional with IExCor=  402 diagonalized for initial guess.
 ExpMin= 7.10D-03 ExpMax= 3.53D+04 ExpMxC= 5.30D+03 IAcc=3 IRadAn=         5 AccDes= 0.00D+00
 HarFok:  IExCor= 402 AccDes= 0.00D+00 IRadAn=         5 IDoV=1
 ScaDFX=  1.000000  1.000000  1.000000  1.000000
 Initial guess orbital symmetries:
       Occupied  (A) (A) (A) (A) (A) (A) (A) (A) (A) (A) (A) (A)
                 (A) (A) (A) (A) (A) (A) (A) (A) (A) (A) (A) (A)
                 (A) (A) (A) (A) (A) (A) (A) (A) (A) (A) (A) (A)
                 (A) (A) (A) (A) (A) (A) (A)
       Virtual   (A) (A) (A) (A) (A) (A) (A) (A) (A) (A) (A) (A)
                 (A) (A) (A) (A) (A) (A) (A) (A) (A) (A) (A) (A)
                 (A) (A) (A) (A) (A) (A) (A) (A) (A) (A) (A) (A)
                 (A) (A) (A) (A) (A) (A) (A) (A) (A) (A) (A) (A)
                 (A) (A) (A) (A) (A) (A) (A) (A) (A) (A) (A) (A)
                 (A) (A) (A) (A) (A) (A) (A) (A) (A) (A) (A) (A)
                 (A) (A) (A) (A) (A) (A) (A) (A) (A) (A) (A) (A)
                 (A) (A) (A) (A) (A) (A) (A) (A) (A) (A) (A) (A)
                 (A) (A) (A) (A) (A) (A) (A) (A) (A) (A) (A) (A)
                 (A) (A)
 The electronic state of the initial guess is 1-A.
 Requested convergence on RMS density matrix=1.00D-04 within 128 cycles.
 Requested convergence on MAX density matrix=1.00D-02.
 Requested convergence on             energy=1.00D-02.
 No special actions if energy rises.
 SCF Done:  E(RB+HF-LYP) =  -1997.39686934     A.U. after    8 cycles
             Convg  =    0.4716D-04             -V/T =  2.0032
             S**2   =   0.0000

 **********************************************************************

            Population analysis using the SCF density.

 **********************************************************************

 Orbital symmetries:
       Occupied  (A) (A) (A) (A) (A) (A) (A) (A) (A) (A) (A) (A)
                 (A) (A) (A) (A) (A) (A) (A) (A) (A) (A) (A) (A)
                 (A) (A) (A) (A) (A) (A) (A) (A) (A) (A) (A) (A)
                 (A) (A) (A) (A) (A) (A) (A)
       Virtual   (A) (A) (A) (A) (A) (A) (A) (A) (A) (A) (A) (A)
                 (A) (A) (A) (A) (A) (A) (A) (A) (A) (A) (A) (A)
                 (A) (A) (A) (A) (A) (A) (A) (A) (A) (A) (A) (A)
                 (A) (A) (A) (A) (A) (A) (A) (A) (A) (A) (A) (A)
                 (A) (A) (A) (A) (A) (A) (A) (A) (A) (A) (A) (A)
                 (A) (A) (A) (A) (A) (A) (A) (A) (A) (A) (A) (A)
                 (A) (A) (A) (A) (A) (A) (A) (A) (A) (A) (A) (A)
                 (A) (A) (A) (A) (A) (A) (A) (A) (A) (A) (A) (A)
                 (A) (A) (A) (A) (A) (A) (A) (A) (A) (A) (A) (A)
                 (A) (A)
 The electronic state is 1-A.
 Alpha  occ. eigenvalues -- -145.57542-145.56070 -77.29924 -19.22727 -19.22279
 Alpha  occ. eigenvalues --  -19.19564 -19.19540 -15.64327 -15.62751 -12.77570
 Alpha  occ. eigenvalues --  -12.77475 -12.77469 -12.75962 -12.75934 -12.75932
 Alpha  occ. eigenvalues --   -6.74495  -4.90950  -4.90808  -4.90714  -2.01280
 Alpha  occ. eigenvalues --   -1.99573  -1.28878  -1.28829  -1.28369  -1.27397
 Alpha  occ. eigenvalues --   -1.26805  -1.26708  -1.11445  -1.04125  -1.01271
 Alpha  occ. eigenvalues --   -1.01112  -0.61215  -0.53197  -0.51404  -0.50525
 Alpha  occ. eigenvalues --   -0.45806  -0.42793  -0.42565  -0.41451  -0.40256
 Alpha  occ. eigenvalues --   -0.38008  -0.36318  -0.34170
 Alpha virt. eigenvalues --   -0.23651  -0.21657  -0.14048  -0.13679  -0.12204
 Alpha virt. eigenvalues --   -0.12004  -0.11176  -0.08337  -0.07557  -0.06421
 Alpha virt. eigenvalues --   -0.05282  -0.05144  -0.04532  -0.04381  -0.04182
 Alpha virt. eigenvalues --   -0.03515  -0.02306  -0.01632  -0.01542  -0.00583
 Alpha virt. eigenvalues --    0.00853   0.01087   0.01683   0.02259   0.02799
 Alpha virt. eigenvalues --    0.02971   0.03214   0.03285   0.04206   0.04372
 Alpha virt. eigenvalues --    0.04478   0.05567   0.05961   0.08286   0.09550
 Alpha virt. eigenvalues --    0.10361   0.10413   0.13385   0.14050   0.14979
 Alpha virt. eigenvalues --    0.16414   0.16684   0.16842   0.18982   0.19229
 Alpha virt. eigenvalues --    0.20366   0.23226   0.23926   0.24610   0.27404
 Alpha virt. eigenvalues --    0.27494   0.28872   0.29809   0.32369   0.33471
 Alpha virt. eigenvalues --    0.35640   0.40683   0.43828   0.49837   0.53080
 Alpha virt. eigenvalues --    0.55945   0.57969   0.62391   0.64044   0.75000
 Alpha virt. eigenvalues --    0.89054   0.92538   0.99116   1.00873   1.07709
 Alpha virt. eigenvalues --    1.15260   1.15720   1.17450   1.18150   1.19507
 Alpha virt. eigenvalues --    1.21360   1.23757   1.24708   1.26292   1.27745
 Alpha virt. eigenvalues --    1.30619   1.46743   1.47110   1.54239   1.69697
 Alpha virt. eigenvalues --    1.70370   1.71751   1.72548   1.76457   1.77151
 Alpha virt. eigenvalues --    1.78370   1.80390   1.82977   1.84053   1.86168
 Alpha virt. eigenvalues --    1.92983   1.97166   2.02966   2.13303   2.14875
 Alpha virt. eigenvalues --    2.24057   2.48241   2.67294   2.77548   2.78518
 Alpha virt. eigenvalues --    3.48667   4.01191   4.02135   4.04582   4.29661
          Condensed to atoms (all electrons):
              1          2          3          4          5          6
     1  O    8.817515   0.167304   0.147170  -0.094232  -0.095038   0.030734
     2  P    0.167304  12.759068   0.016929   0.095716   0.097533   0.036518
     3  Ca   0.147170   0.016929  18.228841  -0.011624  -0.011746   0.003873
     4  O   -0.094232   0.095716  -0.011624   8.830984  -0.054187   0.095519
     5  O   -0.095038   0.097533  -0.011746  -0.054187   8.829621   0.094350
     6  Ca   0.030734   0.036518   0.003873   0.095519   0.094350  18.236469
     7  O   -0.109030   0.041043   0.101150   0.022797   0.021917   0.053732
              7
     1  O   -0.109030
     2  P    0.041043
     3  Ca   0.101150
     4  O    0.022797
     5  O    0.021917
     6  Ca   0.053732
     7  O    8.996645
 Mulliken atomic charges:
              1
     1  O   -0.864423
     2  P    1.785889
     3  Ca   1.525408
     4  O   -0.884973
     5  O   -0.882451
     6  Ca   1.448805
     7  O   -1.128254
 Sum of Mulliken charges=   1.00000
 Atomic charges with hydrogens summed into heavy atoms:
              1
     1  O   -0.864423
     2  P    1.785889
     3  Ca   1.525408
     4  O   -0.884973
     5  O   -0.882451
     6  Ca   1.448805
     7  O   -1.128254
 Sum of Mulliken charges=   1.00000
 Electronic spatial extent (au):  <R**2>=  1262.2591
 Charge=     1.0000 electrons
 Dipole moment (field-independent basis, Debye):
    X=     2.7800    Y=   -12.3704    Z=    -0.0006  Tot=    12.6789
 Quadrupole moment (field-independent basis, Debye-Ang):
   XX=    21.8909   YY=   -59.4330   ZZ=   -66.1579
   XY=     1.3306   XZ=     0.0253   YZ=     0.0327
 Traceless Quadrupole moment (field-independent basis, Debye-Ang):
   XX=    56.4575   YY=   -24.8664   ZZ=   -31.5912
   XY=     1.3306   XZ=     0.0253   YZ=     0.0327
 Octapole moment (field-independent basis, Debye-Ang**2):
  XXX=    29.4728  YYY=   -30.7744  ZZZ=    -0.0203  XYY=    -5.2821
  XXY=   -85.1081  XXZ=    -0.0125  XZZ=    14.3139  YZZ=   -16.9098
  YYZ=    -0.0471  XYZ=     0.0368
 Hexadecapole moment (field-independent basis, Debye-Ang**3):
 XXXX=  -242.2319 YYYY=  -295.1037 ZZZZ=  -200.7774 XXXY=   -11.6121
 XXXZ=     0.1769 YYYX=    -0.7085 YYYZ=     0.0413 ZZZX=     0.0324
 ZZZY=     0.0054 XXYY=  -151.5490 XXZZ=  -164.8812 YYZZ=   -85.5361
 XXYZ=     0.0826 YYXZ=     0.0868 ZZXY=     9.6579
 N-N= 6.487574811376D+02 E-N=-6.017102635823D+03  KE= 1.991102093572D+03
 Merz-Kollman atomic radii used.
 Read replacement radii for each type of atom:
 Rad(20) =   1.188000000000D+00
 Atom Element Radius
    1     8    1.40
    2    15    1.80
    3    20    1.19
    4     8    1.40
    5     8    1.40
    6    20    1.19
    7     8    1.40

 **********************************************************************

            Electrostatic Properties Using The SCF Density

 **********************************************************************

       Atomic Center    1 is at   1.349221  1.316363 -0.004832
       Atomic Center    2 is at  -0.067250  0.679611  0.001092
       Atomic Center    3 is at   2.442292 -0.608063 -0.000005
       Atomic Center    4 is at  -0.980702  0.812705 -1.249646
       Atomic Center    5 is at  -0.980323  0.818154  1.250577
       Atomic Center    6 is at  -2.247948 -0.688358 -0.001065
       Atomic Center    7 is at   0.252039 -0.980440  0.004528
     610 points will be used for fitting atomic charges
 Fitting point charges to eletrostatic potential
 Charges from ESP fit, RMS=   0.00379 RRMS=   0.02212:
 Charge=   1.00000 Dipole=     2.7730   -12.4817    -0.0005 Tot=    12.7861
              1
     1  O   -0.904725
     2  P    1.678442
     3  Ca   1.721998
     4  O   -0.967016
     5  O   -0.965229
     6  Ca   1.719756
     7  O   -1.283226
 -----------------------------------------------------------------

              Electrostatic Properties (Atomic Units)

 -----------------------------------------------------------------
    Center     Electric         -------- Electric Field --------
               Potential          X             Y             Z
 -----------------------------------------------------------------
    1 Atom    -22.235712
    2 Atom    -53.905436
    3 Atom    -79.965160
    4 Atom    -22.270412
    5 Atom    -22.269258
    6 Atom    -79.979700
    7 Atom    -22.238230
 -----------------------------------------------------------------
 1\1\GINC-N022\SP\RB3LYP\6-31+G(d,p)\Ca2O4P1(1+)\TIMN\12-Jun-2015\0\\# 
 b3lyp/6-31+G(d,p) int=ultrafine pop=(ReadRadii,MK)\\mol_16.4.20.pdb_pl
 usQ.out.z51571.zip.xyz\\1,1\O,0,-1.75245,0.23258,-0.01192\P,0,-0.35567
 ,-0.44618,0.00102\Ca,0,-0.97641,2.30526,-0.01179\O,0,0.13198,-1.2369,-
 1.24534\O,0,0.11926,-1.23133,1.25485\Ca,0,2.09226,-1.24264,0.00978\O,0
 ,0.71358,0.86318,0.00341\\Version=EM64T-G03RevE.01\State=1-A\HF=-1997.
 3968693\RMSD=4.716e-05\Thermal=0.\Dipole=3.0337528,3.9596923,-0.004080
 3\PG=C01 [X(Ca2O4P1)]\\@


 IT WAS AN ACT OF DESPARATION. FOR SIX YEARS I HAD STRUGGLED WITH THE
 BLACKBODY THEORY. I KNEW THE PROBLEM WAS FUNDAMENTAL, AND I KNEW
 THE ANSWER. I HAD TO FIND A THEORETICAL EXPLANATION AT ANY COST,
 EXCEPT FOR THE INVIOLABLITY OF THE TWO LAWS OF THERMODYNAMICS.
   -- MAX PLANCK, 1931
 Job cpu time:  0 days  0 hours  1 minutes  0.2 seconds.
 File lengths (MBytes):  RWF=     28 Int=      0 D2E=      0 Chk=     10 Scr=      1
 Normal termination of Gaussian 03 at Fri Jun 12 17:48:19 2015.
