 Entering Gaussian System, Link 0=/home/timn/tmp/g03.e01/g03
 Input=mol_16.4.34.pdbcc_plusQc.out.z51584.zip.xyz.gjf
 Output=mol_16.4.34.pdbcc_plusQc.out.z51584.zip.xyz.out
 Initial command:
 /home/timn/tmp/g03.e01/l1.exe /home/timn/tmp/g03.e01/Gau-12454.inp -scrdir=/home/timn/tmp/g03.e01/
 Default is to use a total of   2 processors:
                                2 via shared-memory
                                1 via Linda
 Entering Link 1 = /home/timn/tmp/g03.e01/l1.exe PID=     12458.
  
 Copyright (c) 1988,1990,1992,1993,1995,1998,2003,2004,2007, Gaussian, Inc.
                  All Rights Reserved.
  
 This is the Gaussian(R) 03 program.  It is based on the
 the Gaussian(R) 98 system (copyright 1998, Gaussian, Inc.),
 the Gaussian(R) 94 system (copyright 1995, Gaussian, Inc.),
 the Gaussian 92(TM) system (copyright 1992, Gaussian, Inc.),
 the Gaussian 90(TM) system (copyright 1990, Gaussian, Inc.),
 the Gaussian 88(TM) system (copyright 1988, Gaussian, Inc.),
 the Gaussian 86(TM) system (copyright 1986, Carnegie Mellon
 University), and the Gaussian 82(TM) system (copyright 1983,
 Carnegie Mellon University). Gaussian is a federally registered
 trademark of Gaussian, Inc.
  
 This software contains proprietary and confidential information,
 including trade secrets, belonging to Gaussian, Inc.
  
 This software is provided under written license and may be
 used, copied, transmitted, or stored only in accord with that
 written license.
  
 The following legend is applicable only to US Government
 contracts under FAR:
  
                    RESTRICTED RIGHTS LEGEND
  
 Use, reproduction and disclosure by the US Government is
 subject to restrictions as set forth in subparagraphs (a)
 and (c) of the Commercial Computer Software - Restricted
 Rights clause in FAR 52.227-19.
  
 Gaussian, Inc.
 340 Quinnipiac St., Bldg. 40, Wallingford CT 06492
  
  
 ---------------------------------------------------------------
 Warning -- This program may not be used in any manner that
 competes with the business of Gaussian, Inc. or will provide
 assistance to any competitor of Gaussian, Inc.  The licensee
 of this program is prohibited from giving any competitor of
 Gaussian, Inc. access to this program.  By using this program,
 the user acknowledges that Gaussian, Inc. is engaged in the
 business of creating and licensing software in the field of
 computational chemistry and represents and warrants to the
 licensee that it is not a competitor of Gaussian, Inc. and that
 it will not use this program in any manner prohibited above.
 ---------------------------------------------------------------
  

 Cite this work as:
 Gaussian 03, Revision E.01,
 M. J. Frisch, G. W. Trucks, H. B. Schlegel, G. E. Scuseria, 
 M. A. Robb, J. R. Cheeseman, J. A. Montgomery, Jr., T. Vreven, 
 K. N. Kudin, J. C. Burant, J. M. Millam, S. S. Iyengar, J. Tomasi, 
 V. Barone, B. Mennucci, M. Cossi, G. Scalmani, N. Rega, 
 G. A. Petersson, H. Nakatsuji, M. Hada, M. Ehara, K. Toyota, 
 R. Fukuda, J. Hasegawa, M. Ishida, T. Nakajima, Y. Honda, O. Kitao, 
 H. Nakai, M. Klene, X. Li, J. E. Knox, H. P. Hratchian, J. B. Cross, 
 V. Bakken, C. Adamo, J. Jaramillo, R. Gomperts, R. E. Stratmann, 
 O. Yazyev, A. J. Austin, R. Cammi, C. Pomelli, J. W. Ochterski, 
 P. Y. Ayala, K. Morokuma, G. A. Voth, P. Salvador, J. J. Dannenberg, 
 V. G. Zakrzewski, S. Dapprich, A. D. Daniels, M. C. Strain, 
 O. Farkas, D. K. Malick, A. D. Rabuck, K. Raghavachari, 
 J. B. Foresman, J. V. Ortiz, Q. Cui, A. G. Baboul, S. Clifford, 
 J. Cioslowski, B. B. Stefanov, G. Liu, A. Liashenko, P. Piskorz, 
 I. Komaromi, R. L. Martin, D. J. Fox, T. Keith, M. A. Al-Laham, 
 C. Y. Peng, A. Nanayakkara, M. Challacombe, P. M. W. Gill, 
 B. Johnson, W. Chen, M. W. Wong, C. Gonzalez, and J. A. Pople, 
 Gaussian, Inc., Wallingford CT, 2004.
 
 ******************************************
 Gaussian 03:  EM64T-G03RevE.01 11-Sep-2007
                12-Jun-2015 
 ******************************************
 %nproc=2
 Will use up to    2 processors via shared memory.
 Default route:  MP2=Direct MaxDisk=2000MB
 ----------------------------------------------------
 # b3lyp/6-31+G(d,p) int=ultrafine pop=(ReadRadii,MK)
 ----------------------------------------------------

 Warning!  SCF SP cutoffs with diffuse functions may be unreliable.
 Consider SCF=Tight

 1/38=1/1;
 2/17=6,18=5,40=1/2;
 3/5=1,6=6,7=111,11=2,16=1,25=1,30=1,74=-5,75=5/1,2,3;
 4//1;
 5/5=2,32=1,38=5/2;
 6/7=2,8=2,9=2,10=2,15=8,20=101,28=1/1,2;
 99/5=1,9=1/99;
 -------------------------------------------
 mol_16.4.34.pdbcc_plusQc.out.z51584.zip.xyz
 -------------------------------------------
 Symbolic Z-matrix:
 Charge =  1 Multiplicity = 1
 O                     1.42562  -1.28785  -0.00086 
 O                     1.45884   1.25876   0.00042 
 O                    -1.71333   0.0193   -0.78605 
 O                    -1.71294   0.01945   0.78637 
 Ca                   -0.73906   1.8659   -0.00023 
 P                     2.3198   -0.02603   0.00017 
 Ca                   -0.78407  -1.85024   0.00015 
 
                          Input orientation:                          
 ---------------------------------------------------------------------
 Center     Atomic     Atomic              Coordinates (Angstroms)
 Number     Number      Type              X           Y           Z
 ---------------------------------------------------------------------
    1          8             0        1.425620   -1.287850   -0.000860
    2          8             0        1.458840    1.258760    0.000420
    3          8             0       -1.713330    0.019300   -0.786050
    4          8             0       -1.712940    0.019450    0.786370
    5         20             0       -0.739060    1.865900   -0.000230
    6         15             0        2.319800   -0.026030    0.000170
    7         20             0       -0.784070   -1.850240    0.000150
 ---------------------------------------------------------------------
                    Distance matrix (angstroms):
                    1          2          3          4          5
     1  O    0.000000
     2  O    2.546827   0.000000
     3  O    3.489724   3.495348   0.000000
     4  O    3.489889   3.494824   1.572420   0.000000
     5  Ca   3.825177   2.280216   2.230840   2.230820   0.000000
     6  P    1.546528   1.546589   4.109299   4.108914   3.596668
     7  Ca   2.280135   3.833605   2.230877   2.230848   3.716413
                    6          7
     6  P    0.000000
     7  Ca   3.600243   0.000000
 Stoichiometry    Ca2O4P(1+)
 Framework group  C1[X(Ca2O4P)]
 Deg. of freedom    15
 Full point group                 C1
 Largest Abelian subgroup         C1      NOp   1
 Largest concise Abelian subgroup C1      NOp   1
                         Standard orientation:                         
 ---------------------------------------------------------------------
 Center     Atomic     Atomic              Coordinates (Angstroms)
 Number     Number      Type              X           Y           Z
 ---------------------------------------------------------------------
    1          8             0        1.425619   -1.287853   -0.000860
    2          8             0        1.458843    1.258757    0.000420
    3          8             0       -1.713329    0.019302   -0.786050
    4          8             0       -1.712939    0.019452    0.786370
    5         20             0       -0.739056    1.865901   -0.000230
    6         15             0        2.319801   -0.026034    0.000170
    7         20             0       -0.784072   -1.850239    0.000150
 ---------------------------------------------------------------------
 Rotational constants (GHZ):      1.4538291      1.2851131      0.7206027
 Standard basis: 6-31+G(d,p) (6D, 7F)
 There are   153 symmetry adapted basis functions of A   symmetry.
 Integral buffers will be    131072 words long.
 Raffenetti 2 integral format.
 Two-electron integral symmetry is turned on.
   153 basis functions,   344 primitive gaussians,   153 cartesian basis functions
    43 alpha electrons       43 beta electrons
       nuclear repulsion energy       602.1412573046 Hartrees.
 NAtoms=    7 NActive=    7 NUniq=    7 SFac= 7.50D-01 NAtFMM=   80 NAOKFM=F Big=F
 One-electron integrals computed using PRISM.
 NBasis=   153 RedAO= T  NBF=   153
 NBsUse=   153 1.00D-06 NBFU=   153
 Harris functional with IExCor=  402 diagonalized for initial guess.
 ExpMin= 7.10D-03 ExpMax= 3.53D+04 ExpMxC= 5.30D+03 IAcc=3 IRadAn=         5 AccDes= 0.00D+00
 HarFok:  IExCor= 402 AccDes= 0.00D+00 IRadAn=         5 IDoV=1
 ScaDFX=  1.000000  1.000000  1.000000  1.000000
 Initial guess orbital symmetries:
       Occupied  (A) (A) (A) (A) (A) (A) (A) (A) (A) (A) (A) (A)
                 (A) (A) (A) (A) (A) (A) (A) (A) (A) (A) (A) (A)
                 (A) (A) (A) (A) (A) (A) (A) (A) (A) (A) (A) (A)
                 (A) (A) (A) (A) (A) (A) (A)
       Virtual   (A) (A) (A) (A) (A) (A) (A) (A) (A) (A) (A) (A)
                 (A) (A) (A) (A) (A) (A) (A) (A) (A) (A) (A) (A)
                 (A) (A) (A) (A) (A) (A) (A) (A) (A) (A) (A) (A)
                 (A) (A) (A) (A) (A) (A) (A) (A) (A) (A) (A) (A)
                 (A) (A) (A) (A) (A) (A) (A) (A) (A) (A) (A) (A)
                 (A) (A) (A) (A) (A) (A) (A) (A) (A) (A) (A) (A)
                 (A) (A) (A) (A) (A) (A) (A) (A) (A) (A) (A) (A)
                 (A) (A) (A) (A) (A) (A) (A) (A) (A) (A) (A) (A)
                 (A) (A) (A) (A) (A) (A) (A) (A) (A) (A) (A) (A)
                 (A) (A)
 The electronic state of the initial guess is 1-A.
 Requested convergence on RMS density matrix=1.00D-04 within 128 cycles.
 Requested convergence on MAX density matrix=1.00D-02.
 Requested convergence on             energy=1.00D-02.
 No special actions if energy rises.
 SCF Done:  E(RB+HF-LYP) =  -1997.33372411     A.U. after    6 cycles
             Convg  =    0.4445D-04             -V/T =  2.0031
             S**2   =   0.0000

 **********************************************************************

            Population analysis using the SCF density.

 **********************************************************************

 Orbital symmetries:
       Occupied  (A) (A) (A) (A) (A) (A) (A) (A) (A) (A) (A) (A)
                 (A) (A) (A) (A) (A) (A) (A) (A) (A) (A) (A) (A)
                 (A) (A) (A) (A) (A) (A) (A) (A) (A) (A) (A) (A)
                 (A) (A) (A) (A) (A) (A) (A)
       Virtual   (A) (A) (A) (A) (A) (A) (A) (A) (A) (A) (A) (A)
                 (A) (A) (A) (A) (A) (A) (A) (A) (A) (A) (A) (A)
                 (A) (A) (A) (A) (A) (A) (A) (A) (A) (A) (A) (A)
                 (A) (A) (A) (A) (A) (A) (A) (A) (A) (A) (A) (A)
                 (A) (A) (A) (A) (A) (A) (A) (A) (A) (A) (A) (A)
                 (A) (A) (A) (A) (A) (A) (A) (A) (A) (A) (A) (A)
                 (A) (A) (A) (A) (A) (A) (A) (A) (A) (A) (A) (A)
                 (A) (A) (A) (A) (A) (A) (A) (A) (A) (A) (A) (A)
                 (A) (A) (A) (A) (A) (A) (A) (A) (A) (A) (A) (A)
                 (A) (A)
 The electronic state is 1-A.
 Alpha  occ. eigenvalues -- -145.53251-145.53241 -77.30160 -19.27994 -19.27905
 Alpha  occ. eigenvalues --  -19.25589 -19.25583 -15.60097 -15.60088 -12.73312
 Alpha  occ. eigenvalues --  -12.73303 -12.73294 -12.73285 -12.73212 -12.73202
 Alpha  occ. eigenvalues --   -6.75641  -4.92081  -4.91866  -4.91421  -1.97236
 Alpha  occ. eigenvalues --   -1.97209  -1.25764  -1.24806  -1.24792  -1.24725
 Alpha  occ. eigenvalues --   -1.24725  -1.24302  -1.13923  -1.08553  -1.08248
 Alpha  occ. eigenvalues --   -0.89520  -0.67704  -0.57280  -0.52822  -0.52599
 Alpha  occ. eigenvalues --   -0.48992  -0.47943  -0.46118  -0.45760  -0.43898
 Alpha  occ. eigenvalues --   -0.40699  -0.37190  -0.34165
 Alpha virt. eigenvalues --   -0.20456  -0.19851  -0.19631  -0.14480  -0.11367
 Alpha virt. eigenvalues --   -0.11279  -0.10319  -0.09666  -0.09043  -0.07375
 Alpha virt. eigenvalues --   -0.07215  -0.06432  -0.05961  -0.05215  -0.04857
 Alpha virt. eigenvalues --   -0.04431  -0.04389  -0.04083  -0.03998  -0.03873
 Alpha virt. eigenvalues --   -0.03337  -0.02377   0.00222   0.01111   0.02011
 Alpha virt. eigenvalues --    0.02949   0.03326   0.03644   0.04212   0.05048
 Alpha virt. eigenvalues --    0.05147   0.05191   0.06783   0.07029   0.07278
 Alpha virt. eigenvalues --    0.07477   0.08122   0.08219   0.12231   0.13582
 Alpha virt. eigenvalues --    0.14152   0.14769   0.16275   0.16814   0.16922
 Alpha virt. eigenvalues --    0.18689   0.20335   0.21716   0.24408   0.26748
 Alpha virt. eigenvalues --    0.28310   0.29467   0.31799   0.32148   0.32489
 Alpha virt. eigenvalues --    0.36021   0.36753   0.40437   0.43968   0.45543
 Alpha virt. eigenvalues --    0.48017   0.56602   0.57824   0.60210   0.65644
 Alpha virt. eigenvalues --    0.71361   0.87012   0.90193   0.94380   1.03572
 Alpha virt. eigenvalues --    1.05864   1.07986   1.08400   1.12009   1.12332
 Alpha virt. eigenvalues --    1.14816   1.15164   1.17895   1.20709   1.23940
 Alpha virt. eigenvalues --    1.28610   1.38349   1.43005   1.46781   1.50565
 Alpha virt. eigenvalues --    1.50927   1.58069   1.66234   1.68018   1.70613
 Alpha virt. eigenvalues --    1.71276   1.75759   1.80029   1.81219   1.82384
 Alpha virt. eigenvalues --    1.84418   1.85980   1.86063   1.92954   2.09472
 Alpha virt. eigenvalues --    2.16195   2.16962   2.53545   2.67523   3.00298
 Alpha virt. eigenvalues --    3.38476   3.83795   3.90580   3.97508   4.05862
          Condensed to atoms (all electrons):
              1          2          3          4          5          6
     1  O    8.815149  -0.085989   0.002545   0.002522   0.002308  -0.094780
     2  O   -0.085989   8.815452   0.002547   0.002566   0.067485  -0.094003
     3  O    0.002545   0.002547   8.515580  -0.059713   0.106032  -0.004408
     4  O    0.002522   0.002566  -0.059713   8.515678   0.105940  -0.004361
     5  Ca   0.002308   0.067485   0.106032   0.105940  18.210106  -0.019136
     6  P   -0.094780  -0.094003  -0.004408  -0.004361  -0.019136  14.567067
     7  Ca   0.067416   0.002381   0.105918   0.105965  -0.016660  -0.019075
              7
     1  O    0.067416
     2  O    0.002381
     3  O    0.105918
     4  O    0.105965
     5  Ca  -0.016660
     6  P   -0.019075
     7  Ca  18.209968
 Mulliken atomic charges:
              1
     1  O   -0.709170
     2  O   -0.710438
     3  O   -0.668502
     4  O   -0.668597
     5  Ca   1.543925
     6  P    0.668695
     7  Ca   1.544087
 Sum of Mulliken charges=   1.00000
 Atomic charges with hydrogens summed into heavy atoms:
              1
     1  O   -0.709170
     2  O   -0.710438
     3  O   -0.668502
     4  O   -0.668597
     5  Ca   1.543925
     6  P    0.668695
     7  Ca   1.544087
 Sum of Mulliken charges=   1.00000
 Electronic spatial extent (au):  <R**2>=  1378.2720
 Charge=     1.0000 electrons
 Dipole moment (field-independent basis, Debye):
    X=    -3.1416    Y=     0.0064    Z=    -0.0006  Tot=     3.1416
 Quadrupole moment (field-independent basis, Debye-Ang):
   XX=   -66.4939   YY=    -8.8865   ZZ=   -58.2535
   XY=     0.6672   XZ=     0.0026   YZ=    -0.0124
 Traceless Quadrupole moment (field-independent basis, Debye-Ang):
   XX=   -21.9492   YY=    35.6581   ZZ=   -13.7089
   XY=     0.6672   XZ=     0.0026   YZ=    -0.0124
 Octapole moment (field-independent basis, Debye-Ang**2):
  XXX=     6.8876  YYY=     2.1672  ZZZ=    -0.0046  XYY=   -70.8337
  XXY=    -1.8387  XXZ=    -0.0037  XZZ=     1.4162  YZZ=    -0.0240
  YYZ=    -0.0001  XYZ=    -0.0033
 Hexadecapole moment (field-independent basis, Debye-Ang**3):
 XXXX=  -942.8114 YYYY=  -329.5897 ZZZZ=  -103.9606 XXXY=     2.7962
 XXXZ=    -0.0163 YYYX=     3.5154 YYYZ=    -0.0492 ZZZX=     0.0050
 ZZZY=    -0.0183 XXYY=  -220.7081 XXZZ=  -174.4708 YYZZ=  -103.3903
 XXYZ=    -0.0207 YYXZ=     0.0054 ZZXY=     0.6834
 N-N= 6.021412573046D+02 E-N=-5.923717251011D+03  KE= 1.991110417323D+03
 Merz-Kollman atomic radii used.
 Read replacement radii for each type of atom:
 Rad(20) =   1.188000000000D+00
 Atom Element Radius
    1     8    1.40
    2     8    1.40
    3     8    1.40
    4     8    1.40
    5    20    1.19
    6    15    1.80
    7    20    1.19

 **********************************************************************

            Electrostatic Properties Using The SCF Density

 **********************************************************************

       Atomic Center    1 is at   1.425619 -1.287853 -0.000860
       Atomic Center    2 is at   1.458843  1.258757  0.000420
       Atomic Center    3 is at  -1.713329  0.019302 -0.786050
       Atomic Center    4 is at  -1.712939  0.019452  0.786370
       Atomic Center    5 is at  -0.739056  1.865901 -0.000230
       Atomic Center    6 is at   2.319801 -0.026034  0.000170
       Atomic Center    7 is at  -0.784072 -1.850239  0.000150
     704 points will be used for fitting atomic charges
 Fitting point charges to eletrostatic potential
 Charges from ESP fit, RMS=   0.00421 RRMS=   0.02754:
 Charge=   1.00000 Dipole=    -2.9903     0.0129     0.0000 Tot=     2.9904
              1
     1  O   -0.758640
     2  O   -0.755229
     3  O   -0.787808
     4  O   -0.787888
     5  Ca   1.723240
     6  P    0.641226
     7  Ca   1.725099
 -----------------------------------------------------------------

              Electrostatic Properties (Atomic Units)

 -----------------------------------------------------------------
    Center     Electric         -------- Electric Field --------
               Potential          X             Y             Z
 -----------------------------------------------------------------
    1 Atom    -22.182866
    2 Atom    -22.185407
    3 Atom    -22.213984
    4 Atom    -22.214093
    5 Atom    -80.008089
    6 Atom    -53.916368
    7 Atom    -80.007830
 -----------------------------------------------------------------
 1\1\GINC-N031\SP\RB3LYP\6-31+G(d,p)\Ca2O4P1(1+)\TIMN\12-Jun-2015\0\\# 
 b3lyp/6-31+G(d,p) int=ultrafine pop=(ReadRadii,MK)\\mol_16.4.34.pdbcc_
 plusQc.out.z51584.zip.xyz\\1,1\O,0,1.42562,-1.28785,-0.00086\O,0,1.458
 84,1.25876,0.00042\O,0,-1.71333,0.0193,-0.78605\O,0,-1.71294,0.01945,0
 .78637\Ca,0,-0.73906,1.8659,-0.00023\P,0,2.3198,-0.02603,0.00017\Ca,0,
 -0.78407,-1.85024,0.00015\\Version=EM64T-G03RevE.01\State=1-A\HF=-1997
 .3337241\RMSD=4.445e-05\Thermal=0.\Dipole=-1.2360158,0.0025247,-0.0002
 281\PG=C01 [X(Ca2O4P1)]\\@


 NOTHING MAKES A PERSON MORE PRODUCTIVE THAN THE LAST MINUTE.
 Job cpu time:  0 days  0 hours  0 minutes 44.4 seconds.
 File lengths (MBytes):  RWF=     28 Int=      0 D2E=      0 Chk=     10 Scr=      1
 Normal termination of Gaussian 03 at Fri Jun 12 17:48:10 2015.
