 Entering Gaussian System, Link 0=/home/timn/tmp/g03.e01/g03
 Input=mol_17.28.56.pdbcc_plusQ.z58581.zip.xyz.gjf
 Output=mol_17.28.56.pdbcc_plusQ.z58581.zip.xyz.out
 Initial command:
 /home/timn/tmp/g03.e01/l1.exe /home/timn/tmp/g03.e01/Gau-18961.inp -scrdir=/home/timn/tmp/g03.e01/
 Default is to use a total of   2 processors:
                                2 via shared-memory
                                1 via Linda
 Entering Link 1 = /home/timn/tmp/g03.e01/l1.exe PID=     18962.
  
 Copyright (c) 1988,1990,1992,1993,1995,1998,2003,2004,2007, Gaussian, Inc.
                  All Rights Reserved.
  
 This is the Gaussian(R) 03 program.  It is based on the
 the Gaussian(R) 98 system (copyright 1998, Gaussian, Inc.),
 the Gaussian(R) 94 system (copyright 1995, Gaussian, Inc.),
 the Gaussian 92(TM) system (copyright 1992, Gaussian, Inc.),
 the Gaussian 90(TM) system (copyright 1990, Gaussian, Inc.),
 the Gaussian 88(TM) system (copyright 1988, Gaussian, Inc.),
 the Gaussian 86(TM) system (copyright 1986, Carnegie Mellon
 University), and the Gaussian 82(TM) system (copyright 1983,
 Carnegie Mellon University). Gaussian is a federally registered
 trademark of Gaussian, Inc.
  
 This software contains proprietary and confidential information,
 including trade secrets, belonging to Gaussian, Inc.
  
 This software is provided under written license and may be
 used, copied, transmitted, or stored only in accord with that
 written license.
  
 The following legend is applicable only to US Government
 contracts under FAR:
  
                    RESTRICTED RIGHTS LEGEND
  
 Use, reproduction and disclosure by the US Government is
 subject to restrictions as set forth in subparagraphs (a)
 and (c) of the Commercial Computer Software - Restricted
 Rights clause in FAR 52.227-19.
  
 Gaussian, Inc.
 340 Quinnipiac St., Bldg. 40, Wallingford CT 06492
  
  
 ---------------------------------------------------------------
 Warning -- This program may not be used in any manner that
 competes with the business of Gaussian, Inc. or will provide
 assistance to any competitor of Gaussian, Inc.  The licensee
 of this program is prohibited from giving any competitor of
 Gaussian, Inc. access to this program.  By using this program,
 the user acknowledges that Gaussian, Inc. is engaged in the
 business of creating and licensing software in the field of
 computational chemistry and represents and warrants to the
 licensee that it is not a competitor of Gaussian, Inc. and that
 it will not use this program in any manner prohibited above.
 ---------------------------------------------------------------
  

 Cite this work as:
 Gaussian 03, Revision E.01,
 M. J. Frisch, G. W. Trucks, H. B. Schlegel, G. E. Scuseria, 
 M. A. Robb, J. R. Cheeseman, J. A. Montgomery, Jr., T. Vreven, 
 K. N. Kudin, J. C. Burant, J. M. Millam, S. S. Iyengar, J. Tomasi, 
 V. Barone, B. Mennucci, M. Cossi, G. Scalmani, N. Rega, 
 G. A. Petersson, H. Nakatsuji, M. Hada, M. Ehara, K. Toyota, 
 R. Fukuda, J. Hasegawa, M. Ishida, T. Nakajima, Y. Honda, O. Kitao, 
 H. Nakai, M. Klene, X. Li, J. E. Knox, H. P. Hratchian, J. B. Cross, 
 V. Bakken, C. Adamo, J. Jaramillo, R. Gomperts, R. E. Stratmann, 
 O. Yazyev, A. J. Austin, R. Cammi, C. Pomelli, J. W. Ochterski, 
 P. Y. Ayala, K. Morokuma, G. A. Voth, P. Salvador, J. J. Dannenberg, 
 V. G. Zakrzewski, S. Dapprich, A. D. Daniels, M. C. Strain, 
 O. Farkas, D. K. Malick, A. D. Rabuck, K. Raghavachari, 
 J. B. Foresman, J. V. Ortiz, Q. Cui, A. G. Baboul, S. Clifford, 
 J. Cioslowski, B. B. Stefanov, G. Liu, A. Liashenko, P. Piskorz, 
 I. Komaromi, R. L. Martin, D. J. Fox, T. Keith, M. A. Al-Laham, 
 C. Y. Peng, A. Nanayakkara, M. Challacombe, P. M. W. Gill, 
 B. Johnson, W. Chen, M. W. Wong, C. Gonzalez, and J. A. Pople, 
 Gaussian, Inc., Wallingford CT, 2004.
 
 ******************************************
 Gaussian 03:  EM64T-G03RevE.01 11-Sep-2007
                12-Jun-2015 
 ******************************************
 %nproc=2
 Will use up to    2 processors via shared memory.
 Default route:  MP2=Direct MaxDisk=2000MB
 ----------------------------------------------------
 # b3lyp/6-31+G(d,p) int=ultrafine pop=(ReadRadii,MK)
 ----------------------------------------------------

 Warning!  SCF SP cutoffs with diffuse functions may be unreliable.
 Consider SCF=Tight

 1/38=1/1;
 2/17=6,18=5,40=1/2;
 3/5=1,6=6,7=111,11=2,16=1,25=1,30=1,74=-5,75=5/1,2,3;
 4//1;
 5/5=2,32=1,38=5/2;
 6/7=2,8=2,9=2,10=2,15=8,20=101,28=1/1,2;
 99/5=1,9=1/99;
 ---------------------------------------
 mol_17.28.56.pdbcc_plusQ.z58581.zip.xyz
 ---------------------------------------
 Symbolic Z-matrix:
 Charge =  1 Multiplicity = 1
 O                    -0.52167  -0.16956   1.30393 
 O                    -2.81173   0.81929  -0.55387 
 P                     0.57458  -0.60078   0.28063 
 O                     1.95363  -1.09867   0.82867 
 O                    -0.07314  -1.56345  -0.73461 
 Ca                   -2.31898  -1.23214  -0.17719 
 Ca                   -1.11673   1.88196   0.17611 
 Ca                    3.18329   0.27214  -0.36955 
 O                     1.00661   0.83397  -0.44374 
 
                          Input orientation:                          
 ---------------------------------------------------------------------
 Center     Atomic     Atomic              Coordinates (Angstroms)
 Number     Number      Type              X           Y           Z
 ---------------------------------------------------------------------
    1          8             0       -0.521670   -0.169560    1.303930
    2          8             0       -2.811730    0.819290   -0.553870
    3         15             0        0.574580   -0.600780    0.280630
    4          8             0        1.953630   -1.098670    0.828670
    5          8             0       -0.073140   -1.563450   -0.734610
    6         20             0       -2.318980   -1.232140   -0.177190
    7         20             0       -1.116730    1.881960    0.176110
    8         20             0        3.183290    0.272140   -0.369550
    9          8             0        1.006610    0.833970   -0.443740
 ---------------------------------------------------------------------
                    Distance matrix (angstroms):
                    1          2          3          4          5
     1  O    0.000000
     2  O    3.110244   0.000000
     3  P    1.560403   3.765645   0.000000
     4  O    2.686304   5.319647   1.565254   0.000000
     5  O    2.509931   3.634555   1.541748   2.601473   0.000000
     6  Ca   2.559905   2.143141   2.996816   4.391442   2.337580
     7  Ca   2.415535   2.129592   3.005903   4.328637   3.713400
     8  Ca   4.089299   6.022758   2.826675   2.197024   3.755928
     9  O    2.529242   3.819956   1.664292   2.500194   2.645390
                    6          7          8          9
     6  Ca   0.000000
     7  Ca   3.356761   0.000000
     8  Ca   5.707437   4.623790   0.000000
     9  O    3.924208   2.447666   2.249243   0.000000
 Stoichiometry    Ca3O5P(1+)
 Framework group  C1[X(Ca3O5P)]
 Deg. of freedom    21
 Full point group                 C1
 Largest Abelian subgroup         C1      NOp   1
 Largest concise Abelian subgroup C1      NOp   1
                         Standard orientation:                         
 ---------------------------------------------------------------------
 Center     Atomic     Atomic              Coordinates (Angstroms)
 Number     Number      Type              X           Y           Z
 ---------------------------------------------------------------------
    1          8             0       -0.521669   -0.169562    1.303931
    2          8             0       -2.811730    0.819285   -0.553869
    3         15             0        0.574582   -0.600780    0.280631
    4          8             0        1.953632   -1.098668    0.828671
    5          8             0       -0.073137   -1.563451   -0.734609
    6         20             0       -2.318977   -1.232145   -0.177189
    7         20             0       -1.116732    1.881957    0.176111
    8         20             0        3.183290    0.272143   -0.369549
    9          8             0        1.006610    0.833970   -0.443739
 ---------------------------------------------------------------------
 Rotational constants (GHZ):      1.3948092      0.5301229      0.4264304
 Standard basis: 6-31+G(d,p) (6D, 7F)
 There are   199 symmetry adapted basis functions of A   symmetry.
 Integral buffers will be    131072 words long.
 Raffenetti 2 integral format.
 Two-electron integral symmetry is turned on.
   199 basis functions,   456 primitive gaussians,   199 cartesian basis functions
    57 alpha electrons       57 beta electrons
       nuclear repulsion energy      1034.5485568390 Hartrees.
 NAtoms=    9 NActive=    9 NUniq=    9 SFac= 7.50D-01 NAtFMM=   80 NAOKFM=F Big=F
 One-electron integrals computed using PRISM.
 NBasis=   199 RedAO= T  NBF=   199
 NBsUse=   199 1.00D-06 NBFU=   199
 Harris functional with IExCor=  402 diagonalized for initial guess.
 ExpMin= 7.10D-03 ExpMax= 3.53D+04 ExpMxC= 5.30D+03 IAcc=3 IRadAn=         5 AccDes= 0.00D+00
 HarFok:  IExCor= 402 AccDes= 0.00D+00 IRadAn=         5 IDoV=1
 ScaDFX=  1.000000  1.000000  1.000000  1.000000
 Initial guess orbital symmetries:
       Occupied  (A) (A) (A) (A) (A) (A) (A) (A) (A) (A) (A) (A)
                 (A) (A) (A) (A) (A) (A) (A) (A) (A) (A) (A) (A)
                 (A) (A) (A) (A) (A) (A) (A) (A) (A) (A) (A) (A)
                 (A) (A) (A) (A) (A) (A) (A) (A) (A) (A) (A) (A)
                 (A) (A) (A) (A) (A) (A) (A) (A) (A)
       Virtual   (A) (A) (A) (A) (A) (A) (A) (A) (A) (A) (A) (A)
                 (A) (A) (A) (A) (A) (A) (A) (A) (A) (A) (A) (A)
                 (A) (A) (A) (A) (A) (A) (A) (A) (A) (A) (A) (A)
                 (A) (A) (A) (A) (A) (A) (A) (A) (A) (A) (A) (A)
                 (A) (A) (A) (A) (A) (A) (A) (A) (A) (A) (A) (A)
                 (A) (A) (A) (A) (A) (A) (A) (A) (A) (A) (A) (A)
                 (A) (A) (A) (A) (A) (A) (A) (A) (A) (A) (A) (A)
                 (A) (A) (A) (A) (A) (A) (A) (A) (A) (A) (A) (A)
                 (A) (A) (A) (A) (A) (A) (A) (A) (A) (A) (A) (A)
                 (A) (A) (A) (A) (A) (A) (A) (A) (A) (A) (A) (A)
                 (A) (A) (A) (A) (A) (A) (A) (A) (A) (A) (A) (A)
                 (A) (A) (A) (A) (A) (A) (A) (A) (A) (A)
 The electronic state of the initial guess is 1-A.
 Requested convergence on RMS density matrix=1.00D-04 within 128 cycles.
 Requested convergence on MAX density matrix=1.00D-02.
 Requested convergence on             energy=1.00D-02.
 No special actions if energy rises.
 EnCoef did     4 forward-backward iterations
 EnCoef did     3 forward-backward iterations
 EnCoef did     4 forward-backward iterations
 EnCoef did     3 forward-backward iterations
 EnCoef did    17 forward-backward iterations
 SCF Done:  E(RB+HF-LYP) =  -2750.26912127     A.U. after    8 cycles
             Convg  =    0.7016D-04             -V/T =  2.0026
             S**2   =   0.0000

 **********************************************************************

            Population analysis using the SCF density.

 **********************************************************************

 Orbital symmetries:
       Occupied  (A) (A) (A) (A) (A) (A) (A) (A) (A) (A) (A) (A)
                 (A) (A) (A) (A) (A) (A) (A) (A) (A) (A) (A) (A)
                 (A) (A) (A) (A) (A) (A) (A) (A) (A) (A) (A) (A)
                 (A) (A) (A) (A) (A) (A) (A) (A) (A) (A) (A) (A)
                 (A) (A) (A) (A) (A) (A) (A) (A) (A)
       Virtual   (A) (A) (A) (A) (A) (A) (A) (A) (A) (A) (A) (A)
                 (A) (A) (A) (A) (A) (A) (A) (A) (A) (A) (A) (A)
                 (A) (A) (A) (A) (A) (A) (A) (A) (A) (A) (A) (A)
                 (A) (A) (A) (A) (A) (A) (A) (A) (A) (A) (A) (A)
                 (A) (A) (A) (A) (A) (A) (A) (A) (A) (A) (A) (A)
                 (A) (A) (A) (A) (A) (A) (A) (A) (A) (A) (A) (A)
                 (A) (A) (A) (A) (A) (A) (A) (A) (A) (A) (A) (A)
                 (A) (A) (A) (A) (A) (A) (A) (A) (A) (A) (A) (A)
                 (A) (A) (A) (A) (A) (A) (A) (A) (A) (A) (A) (A)
                 (A) (A) (A) (A) (A) (A) (A) (A) (A) (A) (A) (A)
                 (A) (A) (A) (A) (A) (A) (A) (A) (A) (A) (A) (A)
                 (A) (A) (A) (A) (A) (A) (A) (A) (A) (A)
 The electronic state is 1-A.
 Alpha  occ. eigenvalues -- -145.53875-145.50363-145.49123 -77.31100 -19.24077
 Alpha  occ. eigenvalues --  -19.23752 -19.22024 -19.20898 -19.18561 -15.60758
 Alpha  occ. eigenvalues --  -15.57182 -15.55980 -12.73986 -12.73915 -12.73880
 Alpha  occ. eigenvalues --  -12.70411 -12.70395 -12.70271 -12.69206 -12.69179
 Alpha  occ. eigenvalues --  -12.69069  -6.75468  -4.91910  -4.91791  -4.91748
 Alpha  occ. eigenvalues --   -1.97911  -1.94297  -1.93219  -1.25684  -1.25495
 Alpha  occ. eigenvalues --   -1.25188  -1.22339  -1.21892  -1.21584  -1.20991
 Alpha  occ. eigenvalues --   -1.20836  -1.20340  -1.12677  -1.04546  -1.03707
 Alpha  occ. eigenvalues --   -1.02511  -0.91606  -0.62598  -0.54019  -0.53468
 Alpha  occ. eigenvalues --   -0.52644  -0.46940  -0.44743  -0.44038  -0.42405
 Alpha  occ. eigenvalues --   -0.41944  -0.39392  -0.38033  -0.37125  -0.36564
 Alpha  occ. eigenvalues --   -0.34872  -0.34604
 Alpha virt. eigenvalues --   -0.21761  -0.18346  -0.17053  -0.12960  -0.12131
 Alpha virt. eigenvalues --   -0.10103  -0.10036  -0.09178  -0.08493  -0.07814
 Alpha virt. eigenvalues --   -0.07107  -0.06541  -0.05570  -0.05317  -0.04891
 Alpha virt. eigenvalues --   -0.04582  -0.04211  -0.04057  -0.03948  -0.03849
 Alpha virt. eigenvalues --   -0.03639  -0.03261  -0.03113  -0.02651  -0.01685
 Alpha virt. eigenvalues --   -0.00969  -0.00218   0.00928   0.01471   0.02228
 Alpha virt. eigenvalues --    0.02510   0.02988   0.03746   0.04254   0.04281
 Alpha virt. eigenvalues --    0.04766   0.04896   0.05547   0.05698   0.06639
 Alpha virt. eigenvalues --    0.07084   0.07516   0.07838   0.08028   0.09226
 Alpha virt. eigenvalues --    0.09648   0.09976   0.10316   0.10647   0.12095
 Alpha virt. eigenvalues --    0.12505   0.14235   0.15320   0.16372   0.17304
 Alpha virt. eigenvalues --    0.17747   0.18071   0.18889   0.21139   0.21766
 Alpha virt. eigenvalues --    0.22606   0.23435   0.23974   0.24740   0.25642
 Alpha virt. eigenvalues --    0.26521   0.26989   0.28976   0.30278   0.31250
 Alpha virt. eigenvalues --    0.31767   0.33940   0.34690   0.37019   0.38759
 Alpha virt. eigenvalues --    0.41523   0.46308   0.50176   0.51009   0.54733
 Alpha virt. eigenvalues --    0.56035   0.57277   0.59541   0.63693   0.68408
 Alpha virt. eigenvalues --    0.76856   0.87118   0.92995   0.98327   0.99365
 Alpha virt. eigenvalues --    1.06214   1.11479   1.12927   1.16096   1.16307
 Alpha virt. eigenvalues --    1.19113   1.19632   1.19973   1.20855   1.21450
 Alpha virt. eigenvalues --    1.24317   1.26126   1.27340   1.29054   1.29360
 Alpha virt. eigenvalues --    1.33325   1.41494   1.49301   1.53855   1.59248
 Alpha virt. eigenvalues --    1.67792   1.69110   1.70211   1.70779   1.73265
 Alpha virt. eigenvalues --    1.74576   1.76285   1.77223   1.80691   1.81948
 Alpha virt. eigenvalues --    1.82463   1.85018   1.85353   1.88399   1.89810
 Alpha virt. eigenvalues --    1.92773   1.98726   1.99852   2.03525   2.08954
 Alpha virt. eigenvalues --    2.14564   2.20993   2.46223   2.66723   2.73193
 Alpha virt. eigenvalues --    2.79028   3.48516   3.94109   4.02852   4.06362
 Alpha virt. eigenvalues --    4.09715   4.13956
          Condensed to atoms (all electrons):
              1          2          3          4          5          6
     1  O    9.014822   0.016886   0.066441  -0.037997  -0.136945   0.042003
     2  O    0.016886   8.996795  -0.000863  -0.000416   0.001173   0.166942
     3  P    0.066441  -0.000863  12.658655   0.143063   0.237713   0.015748
     4  O   -0.037997  -0.000416   0.143063   8.838063  -0.098330   0.013254
     5  O   -0.136945   0.001173   0.237713  -0.098330   8.805282   0.069741
     6  Ca   0.042003   0.166942   0.015748   0.013254   0.069741  18.272858
     7  Ca   0.077508   0.165523   0.013118   0.003989  -0.012011  -0.017624
     8  Ca   0.006356   0.000845   0.008630   0.130894  -0.002526   0.001106
     9  O   -0.010214  -0.001332   0.057385  -0.111067   0.026542  -0.000624
              7          8          9
     1  O    0.077508   0.006356  -0.010214
     2  O    0.165523   0.000845  -0.001332
     3  P    0.013118   0.008630   0.057385
     4  O    0.003989   0.130894  -0.111067
     5  O   -0.012011  -0.002526   0.026542
     6  Ca  -0.017624   0.001106  -0.000624
     7  Ca  18.277011  -0.005612   0.042122
     8  Ca  -0.005612  18.209251   0.063879
     9  O    0.042122   0.063879   9.056667
 Mulliken atomic charges:
              1
     1  O   -1.038860
     2  O   -1.345552
     3  P    1.800110
     4  O   -0.881452
     5  O   -0.890640
     6  Ca   1.436597
     7  Ca   1.455976
     8  Ca   1.587177
     9  O   -1.123357
 Sum of Mulliken charges=   1.00000
 Atomic charges with hydrogens summed into heavy atoms:
              1
     1  O   -1.038860
     2  O   -1.345552
     3  P    1.800110
     4  O   -0.881452
     5  O   -0.890640
     6  Ca   1.436597
     7  Ca   1.455976
     8  Ca   1.587177
     9  O   -1.123357
 Sum of Mulliken charges=   1.00000
 Electronic spatial extent (au):  <R**2>=  2340.5889
 Charge=     1.0000 electrons
 Dipole moment (field-independent basis, Debye):
    X=    14.4696    Y=     4.6814    Z=    -0.7227  Tot=    15.2252
 Quadrupole moment (field-independent basis, Debye-Ang):
   XX=   -12.2564   YY=   -49.2007   ZZ=   -83.3074
   XY=    32.0613   XZ=   -20.4111   YZ=     7.3484
 Traceless Quadrupole moment (field-independent basis, Debye-Ang):
   XX=    35.9984   YY=    -0.9459   ZZ=   -35.0525
   XY=    32.0613   XZ=   -20.4111   YZ=     7.3484
 Octapole moment (field-independent basis, Debye-Ang**2):
  XXX=   317.9899  YYY=    64.7735  ZZZ=   -10.7153  XYY=   -51.3168
  XXY=   -45.8734  XXZ=   -20.0143  XZZ=    13.9728  YZZ=     7.6601
  YYZ=    10.3157  XYZ=   -11.2642
 Hexadecapole moment (field-independent basis, Debye-Ang**3):
 XXXX=  -925.5385 YYYY=  -466.0093 ZZZZ=  -244.4473 XXXY=   402.6728
 XXXZ=  -228.6162 YYYX=    40.2730 YYYZ=    20.8657 ZZZX=   -37.1973
 ZZZY=    15.7827 XXYY=  -294.6678 XXZZ=  -308.2546 YYZZ=  -138.0475
 XXYZ=    50.7648 YYXZ=   -25.1590 ZZXY=    26.5645
 N-N= 1.034548556839D+03 E-N=-8.573546226271D+03  KE= 2.743094127812D+03
 Merz-Kollman atomic radii used.
 Read replacement radii for each type of atom:
 Rad(20) =   1.188000000000D+00
 Atom Element Radius
    1     8    1.40
    2     8    1.40
    3    15    1.80
    4     8    1.40
    5     8    1.40
    6    20    1.19
    7    20    1.19
    8    20    1.19
    9     8    1.40

 **********************************************************************

            Electrostatic Properties Using The SCF Density

 **********************************************************************

       Atomic Center    1 is at  -0.521669 -0.169562  1.303931
       Atomic Center    2 is at  -2.811730  0.819285 -0.553869
       Atomic Center    3 is at   0.574582 -0.600780  0.280631
       Atomic Center    4 is at   1.953632 -1.098668  0.828671
       Atomic Center    5 is at  -0.073137 -1.563451 -0.734609
       Atomic Center    6 is at  -2.318977 -1.232145 -0.177189
       Atomic Center    7 is at  -1.116732  1.881957  0.176111
       Atomic Center    8 is at   3.183290  0.272143 -0.369549
       Atomic Center    9 is at   1.006610  0.833970 -0.443739
     743 points will be used for fitting atomic charges
 Fitting point charges to eletrostatic potential
 Charges from ESP fit, RMS=   0.00402 RRMS=   0.02502:
 Charge=   1.00000 Dipole=    14.4773     4.7546    -0.6530 Tot=    15.2520
              1
     1  O   -1.040063
     2  O   -1.655764
     3  P    1.601472
     4  O   -0.902709
     5  O   -0.963894
     6  Ca   1.684583
     7  Ca   1.726807
     8  Ca   1.778179
     9  O   -1.228611
 -----------------------------------------------------------------

              Electrostatic Properties (Atomic Units)

 -----------------------------------------------------------------
    Center     Electric         -------- Electric Field --------
               Potential          X             Y             Z
 -----------------------------------------------------------------
    1 Atom    -22.289828
    2 Atom    -22.653782
    3 Atom    -53.892961
    4 Atom    -22.215028
    5 Atom    -22.286207
    6 Atom    -80.110877
    7 Atom    -80.091336
    8 Atom    -79.932358
    9 Atom    -22.225560
 -----------------------------------------------------------------
 1\1\GINC-N025\SP\RB3LYP\6-31+G(d,p)\Ca3O5P1(1+)\TIMN\12-Jun-2015\0\\# 
 b3lyp/6-31+G(d,p) int=ultrafine pop=(ReadRadii,MK)\\mol_17.28.56.pdbcc
 _plusQ.z58581.zip.xyz\\1,1\O,0,-0.52167,-0.16956,1.30393\O,0,-2.81173,
 0.81929,-0.55387\P,0,0.57458,-0.60078,0.28063\O,0,1.95363,-1.09867,0.8
 2867\O,0,-0.07314,-1.56345,-0.73461\Ca,0,-2.31898,-1.23214,-0.17719\Ca
 ,0,-1.11673,1.88196,0.17611\Ca,0,3.18329,0.27214,-0.36955\O,0,1.00661,
 0.83397,-0.44374\\Version=EM64T-G03RevE.01\State=1-A\HF=-2750.2691213\
 RMSD=7.016e-05\Thermal=0.\Dipole=5.6927639,1.8418126,-0.2843256\PG=C01
  [X(Ca3O5P1)]\\@


 NOTHING MAKES A PERSON MORE PRODUCTIVE THAN THE LAST MINUTE.
 Job cpu time:  0 days  0 hours  2 minutes  6.2 seconds.
 File lengths (MBytes):  RWF=     36 Int=      0 D2E=      0 Chk=     11 Scr=      1
 Normal termination of Gaussian 03 at Fri Jun 12 18:11:00 2015.
