 Entering Gaussian System, Link 0=/home/timn/tmp/g03.e01/g03
 Input=mol_17.24.33.pdbc_plusQ.z58286.zip.xyz.gjf
 Output=mol_17.24.33.pdbc_plusQ.z58286.zip.xyz.out
 Initial command:
 /home/timn/tmp/g03.e01/l1.exe /home/timn/tmp/g03.e01/Gau-14476.inp -scrdir=/home/timn/tmp/g03.e01/
 Default is to use a total of   2 processors:
                                2 via shared-memory
                                1 via Linda
 Entering Link 1 = /home/timn/tmp/g03.e01/l1.exe PID=     14477.
  
 Copyright (c) 1988,1990,1992,1993,1995,1998,2003,2004,2007, Gaussian, Inc.
                  All Rights Reserved.
  
 This is the Gaussian(R) 03 program.  It is based on the
 the Gaussian(R) 98 system (copyright 1998, Gaussian, Inc.),
 the Gaussian(R) 94 system (copyright 1995, Gaussian, Inc.),
 the Gaussian 92(TM) system (copyright 1992, Gaussian, Inc.),
 the Gaussian 90(TM) system (copyright 1990, Gaussian, Inc.),
 the Gaussian 88(TM) system (copyright 1988, Gaussian, Inc.),
 the Gaussian 86(TM) system (copyright 1986, Carnegie Mellon
 University), and the Gaussian 82(TM) system (copyright 1983,
 Carnegie Mellon University). Gaussian is a federally registered
 trademark of Gaussian, Inc.
  
 This software contains proprietary and confidential information,
 including trade secrets, belonging to Gaussian, Inc.
  
 This software is provided under written license and may be
 used, copied, transmitted, or stored only in accord with that
 written license.
  
 The following legend is applicable only to US Government
 contracts under FAR:
  
                    RESTRICTED RIGHTS LEGEND
  
 Use, reproduction and disclosure by the US Government is
 subject to restrictions as set forth in subparagraphs (a)
 and (c) of the Commercial Computer Software - Restricted
 Rights clause in FAR 52.227-19.
  
 Gaussian, Inc.
 340 Quinnipiac St., Bldg. 40, Wallingford CT 06492
  
  
 ---------------------------------------------------------------
 Warning -- This program may not be used in any manner that
 competes with the business of Gaussian, Inc. or will provide
 assistance to any competitor of Gaussian, Inc.  The licensee
 of this program is prohibited from giving any competitor of
 Gaussian, Inc. access to this program.  By using this program,
 the user acknowledges that Gaussian, Inc. is engaged in the
 business of creating and licensing software in the field of
 computational chemistry and represents and warrants to the
 licensee that it is not a competitor of Gaussian, Inc. and that
 it will not use this program in any manner prohibited above.
 ---------------------------------------------------------------
  

 Cite this work as:
 Gaussian 03, Revision E.01,
 M. J. Frisch, G. W. Trucks, H. B. Schlegel, G. E. Scuseria, 
 M. A. Robb, J. R. Cheeseman, J. A. Montgomery, Jr., T. Vreven, 
 K. N. Kudin, J. C. Burant, J. M. Millam, S. S. Iyengar, J. Tomasi, 
 V. Barone, B. Mennucci, M. Cossi, G. Scalmani, N. Rega, 
 G. A. Petersson, H. Nakatsuji, M. Hada, M. Ehara, K. Toyota, 
 R. Fukuda, J. Hasegawa, M. Ishida, T. Nakajima, Y. Honda, O. Kitao, 
 H. Nakai, M. Klene, X. Li, J. E. Knox, H. P. Hratchian, J. B. Cross, 
 V. Bakken, C. Adamo, J. Jaramillo, R. Gomperts, R. E. Stratmann, 
 O. Yazyev, A. J. Austin, R. Cammi, C. Pomelli, J. W. Ochterski, 
 P. Y. Ayala, K. Morokuma, G. A. Voth, P. Salvador, J. J. Dannenberg, 
 V. G. Zakrzewski, S. Dapprich, A. D. Daniels, M. C. Strain, 
 O. Farkas, D. K. Malick, A. D. Rabuck, K. Raghavachari, 
 J. B. Foresman, J. V. Ortiz, Q. Cui, A. G. Baboul, S. Clifford, 
 J. Cioslowski, B. B. Stefanov, G. Liu, A. Liashenko, P. Piskorz, 
 I. Komaromi, R. L. Martin, D. J. Fox, T. Keith, M. A. Al-Laham, 
 C. Y. Peng, A. Nanayakkara, M. Challacombe, P. M. W. Gill, 
 B. Johnson, W. Chen, M. W. Wong, C. Gonzalez, and J. A. Pople, 
 Gaussian, Inc., Wallingford CT, 2004.
 
 ******************************************
 Gaussian 03:  EM64T-G03RevE.01 11-Sep-2007
                12-Jun-2015 
 ******************************************
 %nproc=2
 Will use up to    2 processors via shared memory.
 Default route:  MP2=Direct MaxDisk=2000MB
 ----------------------------------------------------
 # b3lyp/6-31+G(d,p) int=ultrafine pop=(ReadRadii,MK)
 ----------------------------------------------------

 Warning!  SCF SP cutoffs with diffuse functions may be unreliable.
 Consider SCF=Tight

 1/38=1/1;
 2/17=6,18=5,40=1/2;
 3/5=1,6=6,7=111,11=2,16=1,25=1,30=1,74=-5,75=5/1,2,3;
 4//1;
 5/5=2,32=1,38=5/2;
 6/7=2,8=2,9=2,10=2,15=8,20=101,28=1/1,2;
 99/5=1,9=1/99;
 --------------------------------------
 mol_17.24.33.pdbc_plusQ.z58286.zip.xyz
 --------------------------------------
 Symbolic Z-matrix:
 Charge =  1 Multiplicity = 1
 O                     2.44823   0.80755   0.67887 
 O                     2.2602    0.91273  -0.874 
 Ca                    2.41895  -1.22429  -0.24633 
 P                    -0.69053  -1.05699   0.78328 
 O                     0.30572  -2.01832   0.01338 
 Ca                   -3.27987  -0.36767  -0.24985 
 O                    -1.80172   1.37845   0.06089 
 O                    -1.03385   0.25673  -0.60249 
 Ca                    0.50739   1.84985   0.19806 
 
                          Input orientation:                          
 ---------------------------------------------------------------------
 Center     Atomic     Atomic              Coordinates (Angstroms)
 Number     Number      Type              X           Y           Z
 ---------------------------------------------------------------------
    1          8             0        2.448230    0.807550    0.678870
    2          8             0        2.260200    0.912730   -0.874000
    3         20             0        2.418950   -1.224290   -0.246330
    4         15             0       -0.690530   -1.056990    0.783280
    5          8             0        0.305720   -2.018320    0.013380
    6         20             0       -3.279870   -0.367670   -0.249850
    7          8             0       -1.801720    1.378450    0.060890
    8          8             0       -1.033850    0.256730   -0.602490
    9         20             0        0.507390    1.849850    0.198060
 ---------------------------------------------------------------------
                    Distance matrix (angstroms):
                    1          2          3          4          5
     1  O    0.000000
     2  O    1.567745   0.000000
     3  Ca   2.232762   2.232941   0.000000
     4  P    3.652290   3.915761   3.279779   0.000000
     5  O    3.608153   3.632973   2.272372   1.584113   0.000000
     6  Ca   5.920709   5.720259   5.762843   2.871794   3.956058
     7  O    4.332424   4.194056   4.968168   2.772717   3.997700
     8  O    3.751022   3.369691   3.773870   1.940126   2.711014
     9  Ca   2.254868   2.258285   3.647174   3.198001   3.877824
                    6          7          8          9
     6  Ca   0.000000
     7  O    2.308771   0.000000
     8  O    2.357718   1.512598   0.000000
     9  Ca   4.411503   2.360725   2.356763   0.000000
 Stoichiometry    Ca3O5P(1+)
 Framework group  C1[X(Ca3O5P)]
 Deg. of freedom    21
 Full point group                 C1
 Largest Abelian subgroup         C1      NOp   1
 Largest concise Abelian subgroup C1      NOp   1
                         Standard orientation:                         
 ---------------------------------------------------------------------
 Center     Atomic     Atomic              Coordinates (Angstroms)
 Number     Number      Type              X           Y           Z
 ---------------------------------------------------------------------
    1          8             0        2.448230    0.807547    0.678870
    2          8             0        2.260200    0.912727   -0.874000
    3         20             0        2.418948   -1.224293   -0.246330
    4         15             0       -0.690532   -1.056990    0.783280
    5          8             0        0.305717   -2.018321    0.013380
    6         20             0       -3.279871   -0.367668   -0.249850
    7          8             0       -1.801720    1.378451    0.060890
    8          8             0       -1.033851    0.256730   -0.602490
    9         20             0        0.507391    1.849849    0.198060
 ---------------------------------------------------------------------
 Rotational constants (GHZ):      1.2388097      0.5116064      0.3905868
 Standard basis: 6-31+G(d,p) (6D, 7F)
 There are   199 symmetry adapted basis functions of A   symmetry.
 Integral buffers will be    131072 words long.
 Raffenetti 2 integral format.
 Two-electron integral symmetry is turned on.
   199 basis functions,   456 primitive gaussians,   199 cartesian basis functions
    57 alpha electrons       57 beta electrons
       nuclear repulsion energy       988.3641528515 Hartrees.
 NAtoms=    9 NActive=    9 NUniq=    9 SFac= 7.50D-01 NAtFMM=   80 NAOKFM=F Big=F
 One-electron integrals computed using PRISM.
 NBasis=   199 RedAO= T  NBF=   199
 NBsUse=   199 1.00D-06 NBFU=   199
 Harris functional with IExCor=  402 diagonalized for initial guess.
 ExpMin= 7.10D-03 ExpMax= 3.53D+04 ExpMxC= 5.30D+03 IAcc=3 IRadAn=         5 AccDes= 0.00D+00
 HarFok:  IExCor= 402 AccDes= 0.00D+00 IRadAn=         5 IDoV=1
 ScaDFX=  1.000000  1.000000  1.000000  1.000000
 Initial guess orbital symmetries:
       Occupied  (A) (A) (A) (A) (A) (A) (A) (A) (A) (A) (A) (A)
                 (A) (A) (A) (A) (A) (A) (A) (A) (A) (A) (A) (A)
                 (A) (A) (A) (A) (A) (A) (A) (A) (A) (A) (A) (A)
                 (A) (A) (A) (A) (A) (A) (A) (A) (A) (A) (A) (A)
                 (A) (A) (A) (A) (A) (A) (A) (A) (A)
       Virtual   (A) (A) (A) (A) (A) (A) (A) (A) (A) (A) (A) (A)
                 (A) (A) (A) (A) (A) (A) (A) (A) (A) (A) (A) (A)
                 (A) (A) (A) (A) (A) (A) (A) (A) (A) (A) (A) (A)
                 (A) (A) (A) (A) (A) (A) (A) (A) (A) (A) (A) (A)
                 (A) (A) (A) (A) (A) (A) (A) (A) (A) (A) (A) (A)
                 (A) (A) (A) (A) (A) (A) (A) (A) (A) (A) (A) (A)
                 (A) (A) (A) (A) (A) (A) (A) (A) (A) (A) (A) (A)
                 (A) (A) (A) (A) (A) (A) (A) (A) (A) (A) (A) (A)
                 (A) (A) (A) (A) (A) (A) (A) (A) (A) (A) (A) (A)
                 (A) (A) (A) (A) (A) (A) (A) (A) (A) (A) (A) (A)
                 (A) (A) (A) (A) (A) (A) (A) (A) (A) (A) (A) (A)
                 (A) (A) (A) (A) (A) (A) (A) (A) (A) (A)
 The electronic state of the initial guess is 1-A.
 Requested convergence on RMS density matrix=1.00D-04 within 128 cycles.
 Requested convergence on MAX density matrix=1.00D-02.
 Requested convergence on             energy=1.00D-02.
 No special actions if energy rises.
 SCF Done:  E(RB+HF-LYP) =  -2750.03290855     A.U. after    8 cycles
             Convg  =    0.8400D-04             -V/T =  2.0029
             S**2   =   0.0000

 **********************************************************************

            Population analysis using the SCF density.

 **********************************************************************

 Orbital symmetries:
       Occupied  (A) (A) (A) (A) (A) (A) (A) (A) (A) (A) (A) (A)
                 (A) (A) (A) (A) (A) (A) (A) (A) (A) (A) (A) (A)
                 (A) (A) (A) (A) (A) (A) (A) (A) (A) (A) (A) (A)
                 (A) (A) (A) (A) (A) (A) (A) (A) (A) (A) (A) (A)
                 (A) (A) (A) (A) (A) (A) (A) (A) (A)
       Virtual   (A) (A) (A) (A) (A) (A) (A) (A) (A) (A) (A) (A)
                 (A) (A) (A) (A) (A) (A) (A) (A) (A) (A) (A) (A)
                 (A) (A) (A) (A) (A) (A) (A) (A) (A) (A) (A) (A)
                 (A) (A) (A) (A) (A) (A) (A) (A) (A) (A) (A) (A)
                 (A) (A) (A) (A) (A) (A) (A) (A) (A) (A) (A) (A)
                 (A) (A) (A) (A) (A) (A) (A) (A) (A) (A) (A) (A)
                 (A) (A) (A) (A) (A) (A) (A) (A) (A) (A) (A) (A)
                 (A) (A) (A) (A) (A) (A) (A) (A) (A) (A) (A) (A)
                 (A) (A) (A) (A) (A) (A) (A) (A) (A) (A) (A) (A)
                 (A) (A) (A) (A) (A) (A) (A) (A) (A) (A) (A) (A)
                 (A) (A) (A) (A) (A) (A) (A) (A) (A) (A) (A) (A)
                 (A) (A) (A) (A) (A) (A) (A) (A) (A) (A)
 The electronic state is 1-A.
 Alpha  occ. eigenvalues -- -145.53574-145.49703-145.47967 -77.22820 -19.31069
 Alpha  occ. eigenvalues --  -19.28204 -19.23265 -19.22276 -19.22188 -15.60456
 Alpha  occ. eigenvalues --  -15.56566 -15.54802 -12.73671 -12.73629 -12.73571
 Alpha  occ. eigenvalues --  -12.69780 -12.69777 -12.69660 -12.68052 -12.68013
 Alpha  occ. eigenvalues --  -12.67879  -6.68835  -4.85410  -4.84908  -4.84529
 Alpha  occ. eigenvalues --   -1.97474  -1.93768  -1.92029  -1.25550  -1.25005
 Alpha  occ. eigenvalues --   -1.24608  -1.21960  -1.21340  -1.21270  -1.20611
 Alpha  occ. eigenvalues --   -1.19687  -1.19583  -1.14463  -1.05794  -1.04874
 Alpha  occ. eigenvalues --   -0.93197  -0.85963  -0.65402  -0.54194  -0.53397
 Alpha  occ. eigenvalues --   -0.52789  -0.45964  -0.45435  -0.44585  -0.44317
 Alpha  occ. eigenvalues --   -0.42749  -0.41681  -0.39423  -0.37002  -0.33406
 Alpha  occ. eigenvalues --   -0.30863  -0.26964
 Alpha virt. eigenvalues --   -0.21039  -0.17594  -0.15651  -0.14211  -0.12675
 Alpha virt. eigenvalues --   -0.11812  -0.11285  -0.10457  -0.09151  -0.08530
 Alpha virt. eigenvalues --   -0.08034  -0.07061  -0.06612  -0.06146  -0.05999
 Alpha virt. eigenvalues --   -0.05565  -0.05142  -0.05057  -0.04723  -0.04417
 Alpha virt. eigenvalues --   -0.03936  -0.03799  -0.03648  -0.03542  -0.03234
 Alpha virt. eigenvalues --   -0.02689  -0.02634  -0.02365  -0.01253   0.00097
 Alpha virt. eigenvalues --    0.01007   0.01236   0.03020   0.03836   0.03973
 Alpha virt. eigenvalues --    0.04526   0.05145   0.05290   0.05331   0.05906
 Alpha virt. eigenvalues --    0.06078   0.07179   0.07426   0.07525   0.08184
 Alpha virt. eigenvalues --    0.09278   0.09536   0.09993   0.10510   0.10959
 Alpha virt. eigenvalues --    0.11383   0.12656   0.13221   0.14642   0.14892
 Alpha virt. eigenvalues --    0.16692   0.17322   0.19186   0.19870   0.20264
 Alpha virt. eigenvalues --    0.21131   0.22326   0.22550   0.23898   0.24695
 Alpha virt. eigenvalues --    0.26676   0.28166   0.28629   0.30154   0.32207
 Alpha virt. eigenvalues --    0.32477   0.34320   0.35752   0.36444   0.38674
 Alpha virt. eigenvalues --    0.39548   0.42020   0.43902   0.46023   0.47962
 Alpha virt. eigenvalues --    0.50560   0.55745   0.61717   0.63908   0.67523
 Alpha virt. eigenvalues --    0.71917   0.75470   0.78855   0.81957   0.92561
 Alpha virt. eigenvalues --    0.95397   1.06042   1.10514   1.13732   1.13882
 Alpha virt. eigenvalues --    1.14821   1.16177   1.17061   1.18419   1.19941
 Alpha virt. eigenvalues --    1.21511   1.22353   1.23758   1.25568   1.26990
 Alpha virt. eigenvalues --    1.32875   1.48285   1.48896   1.50789   1.55108
 Alpha virt. eigenvalues --    1.55447   1.56504   1.59775   1.66570   1.69042
 Alpha virt. eigenvalues --    1.71340   1.75397   1.76293   1.78168   1.78763
 Alpha virt. eigenvalues --    1.82445   1.83682   1.86082   1.89346   1.89388
 Alpha virt. eigenvalues --    1.89951   1.91600   2.00462   2.03826   2.20147
 Alpha virt. eigenvalues --    2.21455   2.21503   2.22256   2.60763   3.04535
 Alpha virt. eigenvalues --    3.04981   3.43479   3.94696   4.03586   4.05029
 Alpha virt. eigenvalues --    4.15528   4.28039
          Condensed to atoms (all electrons):
              1          2          3          4          5          6
     1  O    8.482003  -0.020200   0.099880   0.011466   0.003128  -0.000429
     2  O   -0.020200   8.474850   0.117028  -0.041049   0.009650   0.000049
     3  Ca   0.099880   0.117028  18.246021  -0.025894   0.086248   0.002550
     4  P    0.011466  -0.041049  -0.025894  15.355448  -0.198289   0.193863
     5  O    0.003128   0.009650   0.086248  -0.198289   8.754045  -0.007809
     6  Ca  -0.000429   0.000049   0.002550   0.193863  -0.007809  18.602621
     7  O   -0.006034   0.001055   0.003930  -0.054464   0.006045   0.075030
     8  O   -0.002485   0.019180   0.003428  -0.309740   0.051745   0.002777
     9  Ca   0.100044   0.093064  -0.019455   0.023446   0.009156   0.008017
              7          8          9
     1  O   -0.006034  -0.002485   0.100044
     2  O    0.001055   0.019180   0.093064
     3  Ca   0.003930   0.003428  -0.019455
     4  P   -0.054464  -0.309740   0.023446
     5  O    0.006045   0.051745   0.009156
     6  Ca   0.075030   0.002777   0.008017
     7  O    8.497126   0.050454   0.076232
     8  O    0.050454   8.521190   0.044487
     9  Ca   0.076232   0.044487  18.254491
 Mulliken atomic charges:
              1
     1  O   -0.667373
     2  O   -0.653625
     3  Ca   1.486264
     4  P    0.045213
     5  O   -0.713919
     6  Ca   1.123332
     7  O   -0.649373
     8  O   -0.381037
     9  Ca   1.410518
 Sum of Mulliken charges=   1.00000
 Atomic charges with hydrogens summed into heavy atoms:
              1
     1  O   -0.667373
     2  O   -0.653625
     3  Ca   1.486264
     4  P    0.045213
     5  O   -0.713919
     6  Ca   1.123332
     7  O   -0.649373
     8  O   -0.381037
     9  Ca   1.410518
 Sum of Mulliken charges=   1.00000
 Electronic spatial extent (au):  <R**2>=  2522.7277
 Charge=     1.0000 electrons
 Dipole moment (field-independent basis, Debye):
    X=    -4.5305    Y=    -0.9694    Z=    -1.6516  Tot=     4.9186
 Quadrupole moment (field-independent basis, Debye-Ang):
   XX=   -23.0839   YY=   -61.2680   ZZ=   -81.8879
   XY=   -17.8338   XZ=     3.0620   YZ=     6.7678
 Traceless Quadrupole moment (field-independent basis, Debye-Ang):
   XX=    32.3293   YY=    -5.8547   ZZ=   -26.4746
   XY=   -17.8338   XZ=     3.0620   YZ=     6.7678
 Octapole moment (field-independent basis, Debye-Ang**2):
  XXX=  -115.0497  YYY=    68.3692  ZZZ=   -12.6841  XYY=    52.0130
  XXY=  -105.8412  XXZ=   -34.5785  XZZ=    -1.1893  YZZ=    -1.1773
  YYZ=     1.7617  XYZ=     5.4548
 Hexadecapole moment (field-independent basis, Debye-Ang**3):
 XXXX= -1249.6931 YYYY=  -696.9653 ZZZZ=  -223.6722 XXXY=  -230.8675
 XXXZ=    39.3385 YYYX=   -58.2113 YYYZ=    32.3012 ZZZX=    11.5244
 ZZZY=    19.7004 XXYY=  -418.9754 XXZZ=  -367.5947 YYZZ=  -158.4594
 XXYZ=    38.8214 YYXZ=     0.8081 ZZXY=   -28.9107
 N-N= 9.883641528515D+02 E-N=-8.477528421610D+03  KE= 2.742206201427D+03
 Merz-Kollman atomic radii used.
 Read replacement radii for each type of atom:
 Rad(20) =   1.188000000000D+00
 Atom Element Radius
    1     8    1.40
    2     8    1.40
    3    20    1.19
    4    15    1.80
    5     8    1.40
    6    20    1.19
    7     8    1.40
    8     8    1.40
    9    20    1.19

 **********************************************************************

            Electrostatic Properties Using The SCF Density

 **********************************************************************

       Atomic Center    1 is at   2.448230  0.807547  0.678870
       Atomic Center    2 is at   2.260200  0.912727 -0.874000
       Atomic Center    3 is at   2.418948 -1.224293 -0.246330
       Atomic Center    4 is at  -0.690532 -1.056990  0.783280
       Atomic Center    5 is at   0.305717 -2.018321  0.013380
       Atomic Center    6 is at  -3.279871 -0.367668 -0.249850
       Atomic Center    7 is at  -1.801720  1.378451  0.060890
       Atomic Center    8 is at  -1.033851  0.256730 -0.602490
       Atomic Center    9 is at   0.507391  1.849849  0.198060
     797 points will be used for fitting atomic charges
 Fitting point charges to eletrostatic potential
 Charges from ESP fit, RMS=   0.00963 RRMS=   0.06437:
 Charge=   1.00000 Dipole=    -5.8689    -1.2826    -1.9304 Tot=     6.3099
              1
     1  O   -0.771433
     2  O   -0.797492
     3  Ca   1.677685
     4  P   -0.433092
     5  O   -0.558570
     6  Ca   1.277693
     7  O   -0.697685
     8  O   -0.360293
     9  Ca   1.663187
 -----------------------------------------------------------------

              Electrostatic Properties (Atomic Units)

 -----------------------------------------------------------------
    Center     Electric         -------- Electric Field --------
               Potential          X             Y             Z
 -----------------------------------------------------------------
    1 Atom    -22.253835
    2 Atom    -22.254472
    3 Atom    -80.043999
    4 Atom    -53.990778
    5 Atom    -22.231986
    6 Atom    -80.006716
    7 Atom    -22.191678
    8 Atom    -22.157529
    9 Atom    -80.060406
 -----------------------------------------------------------------
 1\1\GINC-N029\SP\RB3LYP\6-31+G(d,p)\Ca3O5P1(1+)\TIMN\12-Jun-2015\0\\# 
 b3lyp/6-31+G(d,p) int=ultrafine pop=(ReadRadii,MK)\\mol_17.24.33.pdbc_
 plusQ.z58286.zip.xyz\\1,1\O,0,2.44823,0.80755,0.67887\O,0,2.2602,0.912
 73,-0.874\Ca,0,2.41895,-1.22429,-0.24633\P,0,-0.69053,-1.05699,0.78328
 \O,0,0.30572,-2.01832,0.01338\Ca,0,-3.27987,-0.36767,-0.24985\O,0,-1.8
 0172,1.37845,0.06089\O,0,-1.03385,0.25673,-0.60249\Ca,0,0.50739,1.8498
 5,0.19806\\Version=EM64T-G03RevE.01\State=1-A\HF=-2750.0329085\RMSD=8.
 400e-05\Thermal=0.\Dipole=-1.7824226,-0.3813761,-0.6497773\PG=C01 [X(C
 a3O5P1)]\\@


 THE PROGRESS OF RIVERS TO THE SEA IS NOT AS RAPID
 AS THAT OF MAN TO ERROR.
                                              -- VOLTAIRE
 Job cpu time:  0 days  0 hours  2 minutes  0.3 seconds.
 File lengths (MBytes):  RWF=     36 Int=      0 D2E=      0 Chk=     11 Scr=      1
 Normal termination of Gaussian 03 at Fri Jun 12 17:55:29 2015.
