 Entering Gaussian System, Link 0=/home/timn/tmp/g03.e01/g03
 Input=mol_17.23.48.pdbcccc_plusQ.z58249.zip.xyz.gjf
 Output=mol_17.23.48.pdbcccc_plusQ.z58249.zip.xyz.out
 Initial command:
 /home/timn/tmp/g03.e01/l1.exe /home/timn/tmp/g03.e01/Gau-17065.inp -scrdir=/home/timn/tmp/g03.e01/
 Default is to use a total of   2 processors:
                                2 via shared-memory
                                1 via Linda
 Entering Link 1 = /home/timn/tmp/g03.e01/l1.exe PID=     17066.
  
 Copyright (c) 1988,1990,1992,1993,1995,1998,2003,2004,2007, Gaussian, Inc.
                  All Rights Reserved.
  
 This is the Gaussian(R) 03 program.  It is based on the
 the Gaussian(R) 98 system (copyright 1998, Gaussian, Inc.),
 the Gaussian(R) 94 system (copyright 1995, Gaussian, Inc.),
 the Gaussian 92(TM) system (copyright 1992, Gaussian, Inc.),
 the Gaussian 90(TM) system (copyright 1990, Gaussian, Inc.),
 the Gaussian 88(TM) system (copyright 1988, Gaussian, Inc.),
 the Gaussian 86(TM) system (copyright 1986, Carnegie Mellon
 University), and the Gaussian 82(TM) system (copyright 1983,
 Carnegie Mellon University). Gaussian is a federally registered
 trademark of Gaussian, Inc.
  
 This software contains proprietary and confidential information,
 including trade secrets, belonging to Gaussian, Inc.
  
 This software is provided under written license and may be
 used, copied, transmitted, or stored only in accord with that
 written license.
  
 The following legend is applicable only to US Government
 contracts under FAR:
  
                    RESTRICTED RIGHTS LEGEND
  
 Use, reproduction and disclosure by the US Government is
 subject to restrictions as set forth in subparagraphs (a)
 and (c) of the Commercial Computer Software - Restricted
 Rights clause in FAR 52.227-19.
  
 Gaussian, Inc.
 340 Quinnipiac St., Bldg. 40, Wallingford CT 06492
  
  
 ---------------------------------------------------------------
 Warning -- This program may not be used in any manner that
 competes with the business of Gaussian, Inc. or will provide
 assistance to any competitor of Gaussian, Inc.  The licensee
 of this program is prohibited from giving any competitor of
 Gaussian, Inc. access to this program.  By using this program,
 the user acknowledges that Gaussian, Inc. is engaged in the
 business of creating and licensing software in the field of
 computational chemistry and represents and warrants to the
 licensee that it is not a competitor of Gaussian, Inc. and that
 it will not use this program in any manner prohibited above.
 ---------------------------------------------------------------
  

 Cite this work as:
 Gaussian 03, Revision E.01,
 M. J. Frisch, G. W. Trucks, H. B. Schlegel, G. E. Scuseria, 
 M. A. Robb, J. R. Cheeseman, J. A. Montgomery, Jr., T. Vreven, 
 K. N. Kudin, J. C. Burant, J. M. Millam, S. S. Iyengar, J. Tomasi, 
 V. Barone, B. Mennucci, M. Cossi, G. Scalmani, N. Rega, 
 G. A. Petersson, H. Nakatsuji, M. Hada, M. Ehara, K. Toyota, 
 R. Fukuda, J. Hasegawa, M. Ishida, T. Nakajima, Y. Honda, O. Kitao, 
 H. Nakai, M. Klene, X. Li, J. E. Knox, H. P. Hratchian, J. B. Cross, 
 V. Bakken, C. Adamo, J. Jaramillo, R. Gomperts, R. E. Stratmann, 
 O. Yazyev, A. J. Austin, R. Cammi, C. Pomelli, J. W. Ochterski, 
 P. Y. Ayala, K. Morokuma, G. A. Voth, P. Salvador, J. J. Dannenberg, 
 V. G. Zakrzewski, S. Dapprich, A. D. Daniels, M. C. Strain, 
 O. Farkas, D. K. Malick, A. D. Rabuck, K. Raghavachari, 
 J. B. Foresman, J. V. Ortiz, Q. Cui, A. G. Baboul, S. Clifford, 
 J. Cioslowski, B. B. Stefanov, G. Liu, A. Liashenko, P. Piskorz, 
 I. Komaromi, R. L. Martin, D. J. Fox, T. Keith, M. A. Al-Laham, 
 C. Y. Peng, A. Nanayakkara, M. Challacombe, P. M. W. Gill, 
 B. Johnson, W. Chen, M. W. Wong, C. Gonzalez, and J. A. Pople, 
 Gaussian, Inc., Wallingford CT, 2004.
 
 ******************************************
 Gaussian 03:  EM64T-G03RevE.01 11-Sep-2007
                12-Jun-2015 
 ******************************************
 %nproc=2
 Will use up to    2 processors via shared memory.
 Default route:  MP2=Direct MaxDisk=2000MB
 ----------------------------------------------------
 # b3lyp/6-31+G(d,p) int=ultrafine pop=(ReadRadii,MK)
 ----------------------------------------------------

 Warning!  SCF SP cutoffs with diffuse functions may be unreliable.
 Consider SCF=Tight

 1/38=1/1;
 2/17=6,18=5,40=1/2;
 3/5=1,6=6,7=111,11=2,16=1,25=1,30=1,74=-5,75=5/1,2,3;
 4//1;
 5/5=2,32=1,38=5/2;
 6/7=2,8=2,9=2,10=2,15=8,20=101,28=1/1,2;
 99/5=1,9=1/99;
 -----------------------------------------
 mol_17.23.48.pdbcccc_plusQ.z58249.zip.xyz
 -----------------------------------------
 Symbolic Z-matrix:
 Charge =  1 Multiplicity = 1
 O                    -2.08453  -2.36367  -0.00669 
 P                    -2.9424   -1.09436  -0.00306 
 Ca                    0.15229  -1.55572   0.00439 
 O                    -1.93025   0.10465   0.00747 
 O                     1.10919   0.58905  -0.00704 
 O                     2.35675  -1.87913   0.00991 
 Ca                    3.26234   0.085    -0.00377 
 Ca                   -0.60841   2.01927  -0.00282 
 O                    -0.94973   4.22965   0.00757 
 
                          Input orientation:                          
 ---------------------------------------------------------------------
 Center     Atomic     Atomic              Coordinates (Angstroms)
 Number     Number      Type              X           Y           Z
 ---------------------------------------------------------------------
    1          8             0       -2.084530   -2.363670   -0.006690
    2         15             0       -2.942400   -1.094360   -0.003060
    3         20             0        0.152290   -1.555720    0.004390
    4          8             0       -1.930250    0.104650    0.007470
    5          8             0        1.109190    0.589050   -0.007040
    6          8             0        2.356750   -1.879130    0.009910
    7         20             0        3.262340    0.085000   -0.003770
    8         20             0       -0.608410    2.019270   -0.002820
    9          8             0       -0.949730    4.229650    0.007570
 ---------------------------------------------------------------------
                    Distance matrix (angstroms):
                    1          2          3          4          5
     1  O    0.000000
     2  P    1.532025   0.000000
     3  Ca   2.378291   3.128900   0.000000
     4  O    2.473177   1.569135   2.663421   0.000000
     5  O    4.349529   4.387399   2.348580   3.077832   0.000000
     6  O    4.467664   5.356960   2.228064   4.723744   2.765611
     7  Ca   5.880902   6.315828   3.516311   5.192639   2.211364
     8  Ca   4.624836   3.891298   3.655034   2.326615   2.235106
     9  O    6.690280   5.684710   5.889394   4.239934   4.182503
                    6          7          8          9
     6  O    0.000000
     7  Ca   2.162889   0.000000
     8  Ca   4.897944   4.327136   0.000000
     9  O    6.946223   5.909297   2.236602   0.000000
 Stoichiometry    Ca3O5P(1+)
 Framework group  C1[X(Ca3O5P)]
 Deg. of freedom    21
 Full point group                 C1
 Largest Abelian subgroup         C1      NOp   1
 Largest concise Abelian subgroup C1      NOp   1
                         Standard orientation:                         
 ---------------------------------------------------------------------
 Center     Atomic     Atomic              Coordinates (Angstroms)
 Number     Number      Type              X           Y           Z
 ---------------------------------------------------------------------
    1          8             0       -2.084531   -2.363668   -0.006689
    2         15             0       -2.942400   -1.094357   -0.003059
    3         20             0        0.152290   -1.555720    0.004391
    4          8             0       -1.930249    0.104652    0.007471
    5          8             0        1.109192    0.589049   -0.007039
    6          8             0        2.356750   -1.879132    0.009911
    7         20             0        3.262341    0.084997   -0.003769
    8         20             0       -0.608407    2.019271   -0.002819
    9          8             0       -0.949724    4.229651    0.007571
 ---------------------------------------------------------------------
 Rotational constants (GHZ):      0.6878506      0.5257495      0.2979895
 Standard basis: 6-31+G(d,p) (6D, 7F)
 There are   199 symmetry adapted basis functions of A   symmetry.
 Integral buffers will be    131072 words long.
 Raffenetti 2 integral format.
 Two-electron integral symmetry is turned on.
   199 basis functions,   456 primitive gaussians,   199 cartesian basis functions
    57 alpha electrons       57 beta electrons
       nuclear repulsion energy       914.6200489146 Hartrees.
 NAtoms=    9 NActive=    9 NUniq=    9 SFac= 7.50D-01 NAtFMM=   80 NAOKFM=F Big=F
 One-electron integrals computed using PRISM.
 NBasis=   199 RedAO= T  NBF=   199
 NBsUse=   199 1.00D-06 NBFU=   199
 Harris functional with IExCor=  402 diagonalized for initial guess.
 ExpMin= 7.10D-03 ExpMax= 3.53D+04 ExpMxC= 5.30D+03 IAcc=3 IRadAn=         5 AccDes= 0.00D+00
 HarFok:  IExCor= 402 AccDes= 0.00D+00 IRadAn=         5 IDoV=1
 ScaDFX=  1.000000  1.000000  1.000000  1.000000
 Initial guess orbital symmetries:
       Occupied  (A) (A) (A) (A) (A) (A) (A) (A) (A) (A) (A) (A)
                 (A) (A) (A) (A) (A) (A) (A) (A) (A) (A) (A) (A)
                 (A) (A) (A) (A) (A) (A) (A) (A) (A) (A) (A) (A)
                 (A) (A) (A) (A) (A) (A) (A) (A) (A) (A) (A) (A)
                 (A) (A) (A) (A) (A) (A) (A) (A) (A)
       Virtual   (A) (A) (A) (A) (A) (A) (A) (A) (A) (A) (A) (A)
                 (A) (A) (A) (A) (A) (A) (A) (A) (A) (A) (A) (A)
                 (A) (A) (A) (A) (A) (A) (A) (A) (A) (A) (A) (A)
                 (A) (A) (A) (A) (A) (A) (A) (A) (A) (A) (A) (A)
                 (A) (A) (A) (A) (A) (A) (A) (A) (A) (A) (A) (A)
                 (A) (A) (A) (A) (A) (A) (A) (A) (A) (A) (A) (A)
                 (A) (A) (A) (A) (A) (A) (A) (A) (A) (A) (A) (A)
                 (A) (A) (A) (A) (A) (A) (A) (A) (A) (A) (A) (A)
                 (A) (A) (A) (A) (A) (A) (A) (A) (A) (A) (A) (A)
                 (A) (A) (A) (A) (A) (A) (A) (A) (A) (A) (A) (A)
                 (A) (A) (A) (A) (A) (A) (A) (A) (A) (A) (A) (A)
                 (A) (A) (A) (A) (A) (A) (A) (A) (A) (A)
 The electronic state of the initial guess is 1-A.
 Requested convergence on RMS density matrix=1.00D-04 within 128 cycles.
 Requested convergence on MAX density matrix=1.00D-02.
 Requested convergence on             energy=1.00D-02.
 No special actions if energy rises.
 EnCoef did     5 forward-backward iterations
 EnCoef did   100 forward-backward iterations
 EnCoef did   100 forward-backward iterations
 EnCoef did   100 forward-backward iterations
 EnCoef did   100 forward-backward iterations
 EnCoef did     3 forward-backward iterations
 EnCoef did     5 forward-backward iterations
 EnCoef did     6 forward-backward iterations
 EnCoef did   100 forward-backward iterations
 EnCoef did   100 forward-backward iterations
 EnCoef did     2 forward-backward iterations
 Rare condition: small coef for last iteration:  0.000D+00
 EnCoef did   100 forward-backward iterations
 EnCoef did   100 forward-backward iterations
 EnCoef did   100 forward-backward iterations
 EnCoef did   100 forward-backward iterations
 EnCoef did   100 forward-backward iterations
 Restarting incremental Fock formation.
 EnCoef did   100 forward-backward iterations
 Rare condition: small coef for last iteration:  0.156D-14
 Matrix for removal  5 Erem= -2724.35119019035     Crem= 0.000D+00
 EnCoef did   100 forward-backward iterations
 Matrix for removal  3 Erem= -2740.46571633050     Crem= 0.000D+00
 SCF Done:  E(RB+HF-LYP) =  -2750.06647053     A.U. after   21 cycles
             Convg  =    0.5274D-04             -V/T =  2.0029
             S**2   =   0.0000

 **********************************************************************

            Population analysis using the SCF density.

 **********************************************************************

 Orbital symmetries:
       Occupied  (A) (A) (A) (A) (A) (A) (A) (A) (A) (A) (A) (A)
                 (A) (A) (A) (A) (A) (A) (A) (A) (A) (A) (A) (A)
                 (A) (A) (A) (A) (A) (A) (A) (A) (A) (A) (A) (A)
                 (A) (A) (A) (A) (A) (A) (A) (A) (A) (A) (A) (A)
                 (A) (A) (A) (A) (A) (A) (A) (A) (A)
       Virtual   (A) (A) (A) (A) (A) (A) (A) (A) (A) (A) (A) (A)
                 (A) (A) (A) (A) (A) (A) (A) (A) (A) (A) (A) (A)
                 (A) (A) (A) (A) (A) (A) (A) (A) (A) (A) (A) (A)
                 (A) (A) (A) (A) (A) (A) (A) (A) (A) (A) (A) (A)
                 (A) (A) (A) (A) (A) (A) (A) (A) (A) (A) (A) (A)
                 (A) (A) (A) (A) (A) (A) (A) (A) (A) (A) (A) (A)
                 (A) (A) (A) (A) (A) (A) (A) (A) (A) (A) (A) (A)
                 (A) (A) (A) (A) (A) (A) (A) (A) (A) (A) (A) (A)
                 (A) (A) (A) (A) (A) (A) (A) (A) (A) (A) (A) (A)
                 (A) (A) (A) (A) (A) (A) (A) (A) (A) (A) (A) (A)
                 (A) (A) (A) (A) (A) (A) (A) (A) (A) (A) (A) (A)
                 (A) (A) (A) (A) (A) (A) (A) (A) (A) (A)
 The electronic state is 1-A.
 Alpha  occ. eigenvalues -- -145.54133-145.48617-145.48524 -77.30527 -19.28855
 Alpha  occ. eigenvalues --  -19.27780 -19.26226 -19.22354 -19.22104 -15.60993
 Alpha  occ. eigenvalues --  -15.55524 -15.55417 -12.74238 -12.74132 -12.74110
 Alpha  occ. eigenvalues --  -12.68813 -12.68696 -12.68694 -12.68616 -12.68585
 Alpha  occ. eigenvalues --  -12.68461  -6.76130  -4.92565  -4.92336  -4.91915
 Alpha  occ. eigenvalues --   -1.98148  -1.92839  -1.92729  -1.25899  -1.25491
 Alpha  occ. eigenvalues --   -1.25225  -1.20954  -1.20815  -1.20788  -1.20462
 Alpha  occ. eigenvalues --   -1.20303  -1.19862  -1.14438  -1.08684  -0.96479
 Alpha  occ. eigenvalues --   -0.95399  -0.94870  -0.67796  -0.56699  -0.53983
 Alpha  occ. eigenvalues --   -0.53345  -0.45783  -0.44347  -0.42758  -0.42329
 Alpha  occ. eigenvalues --   -0.40510  -0.40269  -0.40016  -0.38736  -0.37819
 Alpha  occ. eigenvalues --   -0.37753  -0.35141
 Alpha virt. eigenvalues --   -0.33046  -0.22560  -0.20457  -0.16759  -0.14175
 Alpha virt. eigenvalues --   -0.14047  -0.12418  -0.11259  -0.10620  -0.08828
 Alpha virt. eigenvalues --   -0.08722  -0.07495  -0.07310  -0.07149  -0.05567
 Alpha virt. eigenvalues --   -0.05519  -0.05352  -0.05012  -0.04757  -0.04673
 Alpha virt. eigenvalues --   -0.04345  -0.03831  -0.03729  -0.03448  -0.03023
 Alpha virt. eigenvalues --   -0.02886  -0.02616  -0.02056  -0.01543  -0.00553
 Alpha virt. eigenvalues --    0.00943   0.02599   0.02746   0.03065   0.03109
 Alpha virt. eigenvalues --    0.03411   0.04344   0.04363   0.05291   0.06193
 Alpha virt. eigenvalues --    0.06203   0.06470   0.06529   0.07160   0.07508
 Alpha virt. eigenvalues --    0.07867   0.08205   0.08839   0.09770   0.11161
 Alpha virt. eigenvalues --    0.11993   0.12623   0.12779   0.14041   0.15564
 Alpha virt. eigenvalues --    0.15758   0.16552   0.17581   0.18112   0.18476
 Alpha virt. eigenvalues --    0.19253   0.19498   0.21728   0.22410   0.23598
 Alpha virt. eigenvalues --    0.24608   0.25622   0.29379   0.29718   0.30936
 Alpha virt. eigenvalues --    0.31942   0.33016   0.33227   0.34702   0.36072
 Alpha virt. eigenvalues --    0.37296   0.40160   0.43625   0.45660   0.47480
 Alpha virt. eigenvalues --    0.50362   0.55152   0.56729   0.57410   0.62355
 Alpha virt. eigenvalues --    0.67801   0.76254   0.89088   0.95309   1.01344
 Alpha virt. eigenvalues --    1.03927   1.06738   1.08859   1.09517   1.09642
 Alpha virt. eigenvalues --    1.10901   1.11840   1.13821   1.16660   1.18834
 Alpha virt. eigenvalues --    1.20600   1.22220   1.25499   1.27963   1.32302
 Alpha virt. eigenvalues --    1.32704   1.36543   1.38565   1.41779   1.51066
 Alpha virt. eigenvalues --    1.57654   1.64202   1.66731   1.70459   1.71662
 Alpha virt. eigenvalues --    1.72106   1.73067   1.73258   1.74006   1.76942
 Alpha virt. eigenvalues --    1.77211   1.77254   1.79327   1.80243   1.83244
 Alpha virt. eigenvalues --    1.83801   1.87560   1.87972   1.89364   1.91476
 Alpha virt. eigenvalues --    2.00048   2.01266   2.07044   2.09854   2.52217
 Alpha virt. eigenvalues --    2.69497   3.39666   3.84435   3.85208   3.89116
 Alpha virt. eigenvalues --    3.92080   3.98803
          Condensed to atoms (all electrons):
              1          2          3          4          5          6
     1  O    8.519792   0.114093   0.067493  -0.086455   0.000293   0.000307
     2  P    0.114093  14.456467  -0.004894  -0.158922  -0.007786   0.003736
     3  Ca   0.067493  -0.004894  18.310243   0.013294   0.071065   0.151214
     4  O   -0.086455  -0.158922   0.013294   8.947579  -0.022838   0.000552
     5  O    0.000293  -0.007786   0.071065  -0.022838   8.954851  -0.016997
     6  O    0.000307   0.003736   0.151214   0.000552  -0.016997   8.636576
     7  Ca   0.000568  -0.012554  -0.030382   0.005425   0.140583   0.159513
     8  Ca   0.004876  -0.023753  -0.029843   0.053544   0.111192  -0.003479
     9  O   -0.000031  -0.000726   0.003947  -0.000626  -0.004102  -0.000037
              7          8          9
     1  O    0.000568   0.004876  -0.000031
     2  P   -0.012554  -0.023753  -0.000726
     3  Ca  -0.030382  -0.029843   0.003947
     4  O    0.005425   0.053544  -0.000626
     5  O    0.140583   0.111192  -0.004102
     6  O    0.159513  -0.003479  -0.000037
     7  Ca  18.245016  -0.000589   0.001118
     8  Ca  -0.000589  18.321194   0.171780
     9  O    0.001118   0.171780   8.267125
 Mulliken atomic charges:
              1
     1  O   -0.620935
     2  P    0.634338
     3  Ca   1.447864
     4  O   -0.751553
     5  O   -1.226260
     6  O   -0.931386
     7  Ca   1.491303
     8  Ca   1.395078
     9  O   -0.438448
 Sum of Mulliken charges=   1.00000
 Atomic charges with hydrogens summed into heavy atoms:
              1
     1  O   -0.620935
     2  P    0.634338
     3  Ca   1.447864
     4  O   -0.751553
     5  O   -1.226260
     6  O   -0.931386
     7  Ca   1.491303
     8  Ca   1.395078
     9  O   -0.438448
 Sum of Mulliken charges=   1.00000
 Electronic spatial extent (au):  <R**2>=  3164.0694
 Charge=     1.0000 electrons
 Dipole moment (field-independent basis, Debye):
    X=     9.2825    Y=     2.0580    Z=    -0.0551  Tot=     9.5081
 Quadrupole moment (field-independent basis, Debye-Ang):
   XX=   -27.8349   YY=  -102.7475   ZZ=   -72.9963
   XY=    17.2024   XZ=    -0.1246   YZ=    -0.1168
 Traceless Quadrupole moment (field-independent basis, Debye-Ang):
   XX=    40.0246   YY=   -34.8879   ZZ=    -5.1367
   XY=    17.2024   XZ=    -0.1246   YZ=    -0.1168
 Octapole moment (field-independent basis, Debye-Ang**2):
  XXX=   233.2720  YYY=   -84.9233  ZZZ=    -0.0913  XYY=    23.2515
  XXY=    59.8048  XXZ=    -0.6002  XZZ=     9.5548  YZZ=    -0.5512
  YYZ=    -0.3916  XYZ=     0.4334
 Hexadecapole moment (field-independent basis, Debye-Ang**3):
 XXXX= -1108.1445 YYYY= -2371.8459 ZZZZ=   -79.0723 XXXY=   166.9153
 XXXZ=    -2.0957 YYYX=   171.1543 YYYZ=    -1.9084 ZZZX=    -0.2730
 ZZZY=    -0.2542 XXYY=  -745.6568 XXZZ=  -321.9182 YYZZ=  -291.1652
 XXYZ=     0.2236 YYXZ=    -0.3587 ZZXY=     9.2485
 N-N= 9.146200489146D+02 E-N=-8.329100720621D+03  KE= 2.742099130925D+03
 Merz-Kollman atomic radii used.
 Read replacement radii for each type of atom:
 Rad(20) =   1.188000000000D+00
 Atom Element Radius
    1     8    1.40
    2    15    1.80
    3    20    1.19
    4     8    1.40
    5     8    1.40
    6     8    1.40
    7    20    1.19
    8    20    1.19
    9     8    1.40

 **********************************************************************

            Electrostatic Properties Using The SCF Density

 **********************************************************************

       Atomic Center    1 is at  -2.084531 -2.363668 -0.006689
       Atomic Center    2 is at  -2.942400 -1.094357 -0.003059
       Atomic Center    3 is at   0.152290 -1.555720  0.004391
       Atomic Center    4 is at  -1.930249  0.104652  0.007471
       Atomic Center    5 is at   1.109192  0.589049 -0.007039
       Atomic Center    6 is at   2.356750 -1.879132  0.009911
       Atomic Center    7 is at   3.262341  0.084997 -0.003769
       Atomic Center    8 is at  -0.608407  2.019271 -0.002819
       Atomic Center    9 is at  -0.949724  4.229651  0.007571
     969 points will be used for fitting atomic charges
 Fitting point charges to eletrostatic potential
 Charges from ESP fit, RMS=   0.00520 RRMS=   0.03611:
 Charge=   1.00000 Dipole=     9.2313     2.0618    -0.0574 Tot=     9.4590
              1
     1  O   -0.598885
     2  P    0.555176
     3  Ca   1.709869
     4  O   -0.739496
     5  O   -1.555745
     6  O   -1.173492
     7  Ca   1.709647
     8  Ca   1.673032
     9  O   -0.580106
 -----------------------------------------------------------------

              Electrostatic Properties (Atomic Units)

 -----------------------------------------------------------------
    Center     Electric         -------- Electric Field --------
               Potential          X             Y             Z
 -----------------------------------------------------------------
    1 Atom    -22.189246
    2 Atom    -53.913096
    3 Atom    -80.066303
    4 Atom    -22.174321
    5 Atom    -22.268459
    6 Atom    -22.303782
    7 Atom    -80.012901
    8 Atom    -80.048059
    9 Atom    -22.141553
 -----------------------------------------------------------------
 1\1\GINC-N028\SP\RB3LYP\6-31+G(d,p)\Ca3O5P1(1+)\TIMN\12-Jun-2015\0\\# 
 b3lyp/6-31+G(d,p) int=ultrafine pop=(ReadRadii,MK)\\mol_17.23.48.pdbcc
 cc_plusQ.z58249.zip.xyz\\1,1\O,0,-2.08453,-2.36367,-0.00669\P,0,-2.942
 4,-1.09436,-0.00306\Ca,0,0.15229,-1.55572,0.00439\O,0,-1.93025,0.10465
 ,0.00747\O,0,1.10919,0.58905,-0.00704\O,0,2.35675,-1.87913,0.00991\Ca,
 0,3.26234,0.085,-0.00377\Ca,0,-0.60841,2.01927,-0.00282\O,0,-0.94973,4
 .22965,0.00757\\Version=EM64T-G03RevE.01\State=1-A\HF=-2750.0664705\RM
 SD=5.274e-05\Thermal=0.\Dipole=3.6520134,0.8096999,-0.0216617\PG=C01 [
 X(Ca3O5P1)]\\@


 WE LEARN WISDOM FROM FAILURE MUCH MORE THAN FROM SUCCESS.
 WE DISCOVER WHAT WILL DO BY FINDING OUT WHAT WILL NOT DO...
 AND HE WHO NEVER MADE A MISTAKE NEVER MADE A DISCOVERY
 Job cpu time:  0 days  0 hours  4 minutes 29.3 seconds.
 File lengths (MBytes):  RWF=     36 Int=      0 D2E=      0 Chk=     11 Scr=      1
 Normal termination of Gaussian 03 at Fri Jun 12 17:55:52 2015.
