 Entering Gaussian System, Link 0=/home/timn/tmp/g03.e01/g03
 Input=mol_17.26.49.pdbc_plusQ.z58460.zip.xyz.gjf
 Output=mol_17.26.49.pdbc_plusQ.z58460.zip.xyz.out
 Initial command:
 /home/timn/tmp/g03.e01/l1.exe /home/timn/tmp/g03.e01/Gau-20415.inp -scrdir=/home/timn/tmp/g03.e01/
 Default is to use a total of   2 processors:
                                2 via shared-memory
                                1 via Linda
 Entering Link 1 = /home/timn/tmp/g03.e01/l1.exe PID=     20416.
  
 Copyright (c) 1988,1990,1992,1993,1995,1998,2003,2004,2007, Gaussian, Inc.
                  All Rights Reserved.
  
 This is the Gaussian(R) 03 program.  It is based on the
 the Gaussian(R) 98 system (copyright 1998, Gaussian, Inc.),
 the Gaussian(R) 94 system (copyright 1995, Gaussian, Inc.),
 the Gaussian 92(TM) system (copyright 1992, Gaussian, Inc.),
 the Gaussian 90(TM) system (copyright 1990, Gaussian, Inc.),
 the Gaussian 88(TM) system (copyright 1988, Gaussian, Inc.),
 the Gaussian 86(TM) system (copyright 1986, Carnegie Mellon
 University), and the Gaussian 82(TM) system (copyright 1983,
 Carnegie Mellon University). Gaussian is a federally registered
 trademark of Gaussian, Inc.
  
 This software contains proprietary and confidential information,
 including trade secrets, belonging to Gaussian, Inc.
  
 This software is provided under written license and may be
 used, copied, transmitted, or stored only in accord with that
 written license.
  
 The following legend is applicable only to US Government
 contracts under FAR:
  
                    RESTRICTED RIGHTS LEGEND
  
 Use, reproduction and disclosure by the US Government is
 subject to restrictions as set forth in subparagraphs (a)
 and (c) of the Commercial Computer Software - Restricted
 Rights clause in FAR 52.227-19.
  
 Gaussian, Inc.
 340 Quinnipiac St., Bldg. 40, Wallingford CT 06492
  
  
 ---------------------------------------------------------------
 Warning -- This program may not be used in any manner that
 competes with the business of Gaussian, Inc. or will provide
 assistance to any competitor of Gaussian, Inc.  The licensee
 of this program is prohibited from giving any competitor of
 Gaussian, Inc. access to this program.  By using this program,
 the user acknowledges that Gaussian, Inc. is engaged in the
 business of creating and licensing software in the field of
 computational chemistry and represents and warrants to the
 licensee that it is not a competitor of Gaussian, Inc. and that
 it will not use this program in any manner prohibited above.
 ---------------------------------------------------------------
  

 Cite this work as:
 Gaussian 03, Revision E.01,
 M. J. Frisch, G. W. Trucks, H. B. Schlegel, G. E. Scuseria, 
 M. A. Robb, J. R. Cheeseman, J. A. Montgomery, Jr., T. Vreven, 
 K. N. Kudin, J. C. Burant, J. M. Millam, S. S. Iyengar, J. Tomasi, 
 V. Barone, B. Mennucci, M. Cossi, G. Scalmani, N. Rega, 
 G. A. Petersson, H. Nakatsuji, M. Hada, M. Ehara, K. Toyota, 
 R. Fukuda, J. Hasegawa, M. Ishida, T. Nakajima, Y. Honda, O. Kitao, 
 H. Nakai, M. Klene, X. Li, J. E. Knox, H. P. Hratchian, J. B. Cross, 
 V. Bakken, C. Adamo, J. Jaramillo, R. Gomperts, R. E. Stratmann, 
 O. Yazyev, A. J. Austin, R. Cammi, C. Pomelli, J. W. Ochterski, 
 P. Y. Ayala, K. Morokuma, G. A. Voth, P. Salvador, J. J. Dannenberg, 
 V. G. Zakrzewski, S. Dapprich, A. D. Daniels, M. C. Strain, 
 O. Farkas, D. K. Malick, A. D. Rabuck, K. Raghavachari, 
 J. B. Foresman, J. V. Ortiz, Q. Cui, A. G. Baboul, S. Clifford, 
 J. Cioslowski, B. B. Stefanov, G. Liu, A. Liashenko, P. Piskorz, 
 I. Komaromi, R. L. Martin, D. J. Fox, T. Keith, M. A. Al-Laham, 
 C. Y. Peng, A. Nanayakkara, M. Challacombe, P. M. W. Gill, 
 B. Johnson, W. Chen, M. W. Wong, C. Gonzalez, and J. A. Pople, 
 Gaussian, Inc., Wallingford CT, 2004.
 
 ******************************************
 Gaussian 03:  EM64T-G03RevE.01 11-Sep-2007
                12-Jun-2015 
 ******************************************
 %nproc=2
 Will use up to    2 processors via shared memory.
 Default route:  MP2=Direct MaxDisk=2000MB
 ----------------------------------------------------
 # b3lyp/6-31+G(d,p) int=ultrafine pop=(ReadRadii,MK)
 ----------------------------------------------------

 Warning!  SCF SP cutoffs with diffuse functions may be unreliable.
 Consider SCF=Tight

 1/38=1/1;
 2/17=6,18=5,40=1/2;
 3/5=1,6=6,7=111,11=2,16=1,25=1,30=1,74=-5,75=5/1,2,3;
 4//1;
 5/5=2,32=1,38=5/2;
 6/7=2,8=2,9=2,10=2,15=8,20=101,28=1/1,2;
 99/5=1,9=1/99;
 --------------------------------------
 mol_17.26.49.pdbc_plusQ.z58460.zip.xyz
 --------------------------------------
 Symbolic Z-matrix:
 Charge =  1 Multiplicity = 1
 O                    -0.89706  -1.71912  -0.67843 
 O                     0.72832   0.25877  -0.94057 
 O                     1.47737   1.35198  -0.17992 
 Ca                    2.97101  -0.37237  -0.11039 
 O                     1.24161  -1.45724   0.8669 
 P                     0.0033   -0.85532   0.19916 
 O                    -0.91745   0.09625   1.03494 
 Ca                   -2.94358  -0.65036  -0.15876 
 Ca                   -0.68302   2.25196   0.0786 
 
                          Input orientation:                          
 ---------------------------------------------------------------------
 Center     Atomic     Atomic              Coordinates (Angstroms)
 Number     Number      Type              X           Y           Z
 ---------------------------------------------------------------------
    1          8             0       -0.897060   -1.719120   -0.678430
    2          8             0        0.728320    0.258770   -0.940570
    3          8             0        1.477370    1.351980   -0.179920
    4         20             0        2.971010   -0.372370   -0.110390
    5          8             0        1.241610   -1.457240    0.866900
    6         15             0        0.003300   -0.855320    0.199160
    7          8             0       -0.917450    0.096250    1.034940
    8         20             0       -2.943580   -0.650360   -0.158760
    9         20             0       -0.683020    2.251960    0.078600
 ---------------------------------------------------------------------
                    Distance matrix (angstroms):
                    1          2          3          4          5
     1  O    0.000000
     2  O    2.573446   0.000000
     3  O    3.913833   1.527996   0.000000
     4  Ca   4.135018   2.473296   2.282362   0.000000
     5  O    2.651516   2.544623   3.007180   2.263374   0.000000
     6  P    1.525439   1.750953   2.681186   3.022642   1.530227
     7  O    2.496321   2.576356   2.964440   4.080626   2.665166
     8  Ca   2.366548   3.862718   4.853309   5.921317   4.383931
     9  Ca   4.048257   2.646393   2.354587   4.502750   4.252503
                    6          7          8          9
     6  P    0.000000
     7  O    1.565821   0.000000
     8  Ca   2.975604   2.467296   0.000000
     9  Ca   3.184456   2.369943   3.686453   0.000000
 Stoichiometry    Ca3O5P(1+)
 Framework group  C1[X(Ca3O5P)]
 Deg. of freedom    21
 Full point group                 C1
 Largest Abelian subgroup         C1      NOp   1
 Largest concise Abelian subgroup C1      NOp   1
                         Standard orientation:                         
 ---------------------------------------------------------------------
 Center     Atomic     Atomic              Coordinates (Angstroms)
 Number     Number      Type              X           Y           Z
 ---------------------------------------------------------------------
    1          8             0       -0.897055   -1.719122   -0.678428
    2          8             0        0.728319    0.258773   -0.940568
    3          8             0        1.477366    1.351985   -0.179918
    4         20             0        2.971011   -0.372361   -0.110388
    5          8             0        1.241614   -1.457236    0.866902
    6         15             0        0.003302   -0.855319    0.199162
    7          8             0       -0.917450    0.096248    1.034942
    8         20             0       -2.943578   -0.650368   -0.158758
    9         20             0       -0.683027    2.251959    0.078602
 ---------------------------------------------------------------------
 Rotational constants (GHZ):      1.2218789      0.5834497      0.4313965
 Standard basis: 6-31+G(d,p) (6D, 7F)
 There are   199 symmetry adapted basis functions of A   symmetry.
 Integral buffers will be    131072 words long.
 Raffenetti 2 integral format.
 Two-electron integral symmetry is turned on.
   199 basis functions,   456 primitive gaussians,   199 cartesian basis functions
    57 alpha electrons       57 beta electrons
       nuclear repulsion energy      1034.9366391192 Hartrees.
 NAtoms=    9 NActive=    9 NUniq=    9 SFac= 7.50D-01 NAtFMM=   80 NAOKFM=F Big=F
 One-electron integrals computed using PRISM.
 NBasis=   199 RedAO= T  NBF=   199
 NBsUse=   199 1.00D-06 NBFU=   199
 Harris functional with IExCor=  402 diagonalized for initial guess.
 ExpMin= 7.10D-03 ExpMax= 3.53D+04 ExpMxC= 5.30D+03 IAcc=3 IRadAn=         5 AccDes= 0.00D+00
 HarFok:  IExCor= 402 AccDes= 0.00D+00 IRadAn=         5 IDoV=1
 ScaDFX=  1.000000  1.000000  1.000000  1.000000
 Initial guess orbital symmetries:
       Occupied  (A) (A) (A) (A) (A) (A) (A) (A) (A) (A) (A) (A)
                 (A) (A) (A) (A) (A) (A) (A) (A) (A) (A) (A) (A)
                 (A) (A) (A) (A) (A) (A) (A) (A) (A) (A) (A) (A)
                 (A) (A) (A) (A) (A) (A) (A) (A) (A) (A) (A) (A)
                 (A) (A) (A) (A) (A) (A) (A) (A) (A)
       Virtual   (A) (A) (A) (A) (A) (A) (A) (A) (A) (A) (A) (A)
                 (A) (A) (A) (A) (A) (A) (A) (A) (A) (A) (A) (A)
                 (A) (A) (A) (A) (A) (A) (A) (A) (A) (A) (A) (A)
                 (A) (A) (A) (A) (A) (A) (A) (A) (A) (A) (A) (A)
                 (A) (A) (A) (A) (A) (A) (A) (A) (A) (A) (A) (A)
                 (A) (A) (A) (A) (A) (A) (A) (A) (A) (A) (A) (A)
                 (A) (A) (A) (A) (A) (A) (A) (A) (A) (A) (A) (A)
                 (A) (A) (A) (A) (A) (A) (A) (A) (A) (A) (A) (A)
                 (A) (A) (A) (A) (A) (A) (A) (A) (A) (A) (A) (A)
                 (A) (A) (A) (A) (A) (A) (A) (A) (A) (A) (A) (A)
                 (A) (A) (A) (A) (A) (A) (A) (A) (A) (A) (A) (A)
                 (A) (A) (A) (A) (A) (A) (A) (A) (A) (A)
 The electronic state of the initial guess is 1-A.
 Requested convergence on RMS density matrix=1.00D-04 within 128 cycles.
 Requested convergence on MAX density matrix=1.00D-02.
 Requested convergence on             energy=1.00D-02.
 No special actions if energy rises.
 EnCoef did     9 forward-backward iterations
 EnCoef did     7 forward-backward iterations
 EnCoef did     9 forward-backward iterations
 EnCoef did     9 forward-backward iterations
 EnCoef did     3 forward-backward iterations
 EnCoef did     1 forward-backward iterations
 Rare condition: small coef for last iteration:  0.000D+00
 SCF Done:  E(RB+HF-LYP) =  -2750.16900932     A.U. after   14 cycles
             Convg  =    0.7096D-04             -V/T =  2.0029
             S**2   =   0.0000

 **********************************************************************

            Population analysis using the SCF density.

 **********************************************************************

 Orbital symmetries:
       Occupied  (A) (A) (A) (A) (A) (A) (A) (A) (A) (A) (A) (A)
                 (A) (A) (A) (A) (A) (A) (A) (A) (A) (A) (A) (A)
                 (A) (A) (A) (A) (A) (A) (A) (A) (A) (A) (A) (A)
                 (A) (A) (A) (A) (A) (A) (A) (A) (A) (A) (A) (A)
                 (A) (A) (A) (A) (A) (A) (A) (A) (A)
       Virtual   (A) (A) (A) (A) (A) (A) (A) (A) (A) (A) (A) (A)
                 (A) (A) (A) (A) (A) (A) (A) (A) (A) (A) (A) (A)
                 (A) (A) (A) (A) (A) (A) (A) (A) (A) (A) (A) (A)
                 (A) (A) (A) (A) (A) (A) (A) (A) (A) (A) (A) (A)
                 (A) (A) (A) (A) (A) (A) (A) (A) (A) (A) (A) (A)
                 (A) (A) (A) (A) (A) (A) (A) (A) (A) (A) (A) (A)
                 (A) (A) (A) (A) (A) (A) (A) (A) (A) (A) (A) (A)
                 (A) (A) (A) (A) (A) (A) (A) (A) (A) (A) (A) (A)
                 (A) (A) (A) (A) (A) (A) (A) (A) (A) (A) (A) (A)
                 (A) (A) (A) (A) (A) (A) (A) (A) (A) (A) (A) (A)
                 (A) (A) (A) (A) (A) (A) (A) (A) (A) (A) (A) (A)
                 (A) (A) (A) (A) (A) (A) (A) (A) (A) (A)
 The electronic state is 1-A.
 Alpha  occ. eigenvalues -- -145.55395-145.51930-145.51331 -77.34442 -19.34006
 Alpha  occ. eigenvalues --  -19.30108 -19.25590 -19.24949 -19.24257 -15.62210
 Alpha  occ. eigenvalues --  -15.58840 -15.58227 -12.75444 -12.75361 -12.75355
 Alpha  occ. eigenvalues --  -12.72050 -12.72012 -12.71947 -12.71448 -12.71387
 Alpha  occ. eigenvalues --  -12.71340  -6.78927  -4.95452  -4.95193  -4.95136
 Alpha  occ. eigenvalues --   -1.99192  -1.95854  -1.95312  -1.27398  -1.26738
 Alpha  occ. eigenvalues --   -1.26491  -1.23753  -1.23317  -1.23162  -1.23100
 Alpha  occ. eigenvalues --   -1.22756  -1.22657  -1.18926  -1.13389  -1.07790
 Alpha  occ. eigenvalues --   -1.06518  -0.97049  -0.66831  -0.59798  -0.57396
 Alpha  occ. eigenvalues --   -0.56799  -0.53844  -0.52815  -0.47738  -0.46981
 Alpha  occ. eigenvalues --   -0.45288  -0.45024  -0.42673  -0.40941  -0.40356
 Alpha  occ. eigenvalues --   -0.40270  -0.25220
 Alpha virt. eigenvalues --   -0.22439  -0.19374  -0.16276  -0.13617  -0.13169
 Alpha virt. eigenvalues --   -0.12652  -0.12037  -0.10985  -0.10549  -0.09319
 Alpha virt. eigenvalues --   -0.08508  -0.07235  -0.06721  -0.06238  -0.05338
 Alpha virt. eigenvalues --   -0.05231  -0.04960  -0.04684  -0.04452  -0.04226
 Alpha virt. eigenvalues --   -0.04162  -0.03641  -0.03426  -0.03301  -0.03191
 Alpha virt. eigenvalues --   -0.01840  -0.01696  -0.00703  -0.00352   0.00147
 Alpha virt. eigenvalues --    0.00482   0.01029   0.02408   0.02768   0.03595
 Alpha virt. eigenvalues --    0.03745   0.03774   0.03990   0.04515   0.04931
 Alpha virt. eigenvalues --    0.05309   0.06241   0.06292   0.06633   0.07219
 Alpha virt. eigenvalues --    0.07416   0.07873   0.08085   0.08557   0.08907
 Alpha virt. eigenvalues --    0.09693   0.10123   0.12233   0.13161   0.14894
 Alpha virt. eigenvalues --    0.15533   0.16042   0.18076   0.18663   0.19287
 Alpha virt. eigenvalues --    0.20212   0.20598   0.21333   0.21815   0.23286
 Alpha virt. eigenvalues --    0.24202   0.25604   0.26750   0.27587   0.28592
 Alpha virt. eigenvalues --    0.30196   0.31071   0.32263   0.32675   0.36293
 Alpha virt. eigenvalues --    0.39070   0.40445   0.41174   0.49341   0.53659
 Alpha virt. eigenvalues --    0.54736   0.55460   0.55717   0.57537   0.69404
 Alpha virt. eigenvalues --    0.71973   0.79786   0.87013   0.88844   0.95124
 Alpha virt. eigenvalues --    0.98155   1.06903   1.08017   1.11833   1.14612
 Alpha virt. eigenvalues --    1.14999   1.17677   1.18686   1.19253   1.21128
 Alpha virt. eigenvalues --    1.21691   1.22590   1.25462   1.26124   1.28353
 Alpha virt. eigenvalues --    1.29989   1.44184   1.47127   1.50394   1.51596
 Alpha virt. eigenvalues --    1.56157   1.62252   1.66129   1.67793   1.69350
 Alpha virt. eigenvalues --    1.70434   1.71486   1.72403   1.73114   1.77171
 Alpha virt. eigenvalues --    1.81361   1.84222   1.85267   1.88057   1.93877
 Alpha virt. eigenvalues --    1.97819   2.02665   2.13523   2.15069   2.19042
 Alpha virt. eigenvalues --    2.21027   2.33135   2.64548   2.73195   2.77120
 Alpha virt. eigenvalues --    3.03646   3.45024   3.96989   4.05353   4.10059
 Alpha virt. eigenvalues --    4.14403   4.21216
          Condensed to atoms (all electrons):
              1          2          3          4          5          6
     1  O    8.783898   0.090621   0.012037  -0.010752  -0.111484   0.183032
     2  O    0.090621   8.493505   0.044319  -0.004564  -0.073601  -0.024199
     3  O    0.012037   0.044319   8.489178   0.073381   0.023781  -0.033070
     4  Ca  -0.010752  -0.004564   0.073381  18.526810   0.050588   0.047792
     5  O   -0.111484  -0.073601   0.023781   0.050588   8.862821   0.120613
     6  P    0.183032  -0.024199  -0.033070   0.047792   0.120613  12.727496
     7  O   -0.097284   0.081707   0.003675  -0.022534  -0.006249  -0.020787
     8  Ca  -0.021698  -0.039122  -0.008289   0.059538  -0.014482   0.133840
     9  Ca  -0.033470  -0.027487   0.032928   0.017458  -0.016650   0.082888
              7          8          9
     1  O   -0.097284  -0.021698  -0.033470
     2  O    0.081707  -0.039122  -0.027487
     3  O    0.003675  -0.008289   0.032928
     4  Ca  -0.022534   0.059538   0.017458
     5  O   -0.006249  -0.014482  -0.016650
     6  P   -0.020787   0.133840   0.082888
     7  O    9.214222  -0.139999  -0.096360
     8  Ca  -0.139999  19.023940   0.263073
     9  Ca  -0.096360   0.263073  18.839752
 Mulliken atomic charges:
              1
     1  O   -0.794901
     2  O   -0.541180
     3  O   -0.637939
     4  Ca   1.262283
     5  O   -0.835337
     6  P    1.782396
     7  O   -0.916391
     8  Ca   0.743199
     9  Ca   0.937869
 Sum of Mulliken charges=   1.00000
 Atomic charges with hydrogens summed into heavy atoms:
              1
     1  O   -0.794901
     2  O   -0.541180
     3  O   -0.637939
     4  Ca   1.262283
     5  O   -0.835337
     6  P    1.782396
     7  O   -0.916391
     8  Ca   0.743199
     9  Ca   0.937869
 Sum of Mulliken charges=   1.00000
 Electronic spatial extent (au):  <R**2>=  2326.2692
 Charge=     1.0000 electrons
 Dipole moment (field-independent basis, Debye):
    X=     4.7439    Y=     2.5768    Z=    -0.4827  Tot=     5.4201
 Quadrupole moment (field-independent basis, Debye-Ang):
   XX=   -17.6549   YY=   -75.5676   ZZ=   -91.6472
   XY=     3.1366   XZ=    -3.1427   YZ=     3.9680
 Traceless Quadrupole moment (field-independent basis, Debye-Ang):
   XX=    43.9683   YY=   -13.9444   ZZ=   -30.0239
   XY=     3.1366   XZ=    -3.1427   YZ=     3.9680
 Octapole moment (field-independent basis, Debye-Ang**2):
  XXX=   137.0055  YYY=    41.7309  ZZZ=     1.1338  XYY=     1.7542
  XXY=   -80.4850  XXZ=    -7.0351  XZZ=    19.4924  YZZ=    -2.7778
  YYZ=     8.6328  XYZ=     6.7514
 Hexadecapole moment (field-independent basis, Debye-Ang**3):
 XXXX= -1224.5364 YYYY=  -887.9761 ZZZZ=  -280.4677 XXXY=   124.4100
 XXXZ=   -26.0278 YYYX=    33.4159 YYYZ=    18.5162 ZZZX=   -13.2896
 ZZZY=    10.8627 XXYY=  -488.6589 XXZZ=  -367.6164 YYZZ=  -210.8276
 XXYZ=    23.8754 YYXZ=   -18.9045 ZZXY=    17.9586
 N-N= 1.034936639119D+03 E-N=-8.566224761265D+03  KE= 2.742222454094D+03
 Merz-Kollman atomic radii used.
 Read replacement radii for each type of atom:
 Rad(20) =   1.188000000000D+00
 Atom Element Radius
    1     8    1.40
    2     8    1.40
    3     8    1.40
    4    20    1.19
    5     8    1.40
    6    15    1.80
    7     8    1.40
    8    20    1.19
    9    20    1.19

 **********************************************************************

            Electrostatic Properties Using The SCF Density

 **********************************************************************

       Atomic Center    1 is at  -0.897055 -1.719122 -0.678428
       Atomic Center    2 is at   0.728319  0.258773 -0.940568
       Atomic Center    3 is at   1.477366  1.351985 -0.179918
       Atomic Center    4 is at   2.971011 -0.372361 -0.110388
       Atomic Center    5 is at   1.241614 -1.457236  0.866902
       Atomic Center    6 is at   0.003302 -0.855319  0.199162
       Atomic Center    7 is at  -0.917450  0.096248  1.034942
       Atomic Center    8 is at  -2.943578 -0.650368 -0.158758
       Atomic Center    9 is at  -0.683027  2.251959  0.078602
     715 points will be used for fitting atomic charges
 Fitting point charges to eletrostatic potential
 Charges from ESP fit, RMS=   0.02631 RRMS=   0.16325:
 Charge=   1.00000 Dipole=     2.2254     5.2433    -1.5155 Tot=     5.8942
              1
     1  O   -0.755407
     2  O   -0.790917
     3  O   -0.393441
     4  Ca   1.399503
     5  O   -0.948325
     6  P    1.812796
     7  O   -0.931918
     8  Ca   0.796433
     9  Ca   0.811277
 -----------------------------------------------------------------

              Electrostatic Properties (Atomic Units)

 -----------------------------------------------------------------
    Center     Electric         -------- Electric Field --------
               Potential          X             Y             Z
 -----------------------------------------------------------------
    1 Atom    -22.224837
    2 Atom    -22.132074
    3 Atom    -22.172177
    4 Atom    -79.984692
    5 Atom    -22.210992
    6 Atom    -53.861679
    7 Atom    -22.211424
    8 Atom    -80.025382
    9 Atom    -80.030638
 -----------------------------------------------------------------
 1\1\GINC-N022\SP\RB3LYP\6-31+G(d,p)\Ca3O5P1(1+)\TIMN\12-Jun-2015\0\\# 
 b3lyp/6-31+G(d,p) int=ultrafine pop=(ReadRadii,MK)\\mol_17.26.49.pdbc_
 plusQ.z58460.zip.xyz\\1,1\O,0,-0.89706,-1.71912,-0.67843\O,0,0.72832,0
 .25877,-0.94057\O,0,1.47737,1.35198,-0.17992\Ca,0,2.97101,-0.37237,-0.
 11039\O,0,1.24161,-1.45724,0.8669\P,0,0.0033,-0.85532,0.19916\O,0,-0.9
 1745,0.09625,1.03494\Ca,0,-2.94358,-0.65036,-0.15876\Ca,0,-0.68302,2.2
 5196,0.0786\\Version=EM64T-G03RevE.01\State=1-A\HF=-2750.1690093\RMSD=
 7.096e-05\Thermal=0.\Dipole=1.8664138,1.013782,-0.1899146\PG=C01 [X(Ca
 3O5P1)]\\@


 IF I HAVE SEEN FARTHER, IT IS BY STANDING ON THE
 SHOULDERS OF GIANTS. -- SIR ISAAC NEWTON
 Job cpu time:  0 days  0 hours  3 minutes 41.0 seconds.
 File lengths (MBytes):  RWF=     36 Int=      0 D2E=      0 Chk=     11 Scr=      1
 Normal termination of Gaussian 03 at Fri Jun 12 18:02:38 2015.
