 Entering Gaussian System, Link 0=/home/timn/tmp/g03.e01/g03
 Input=mol_16.5.8.pdbc_plusQ.out.z51633.zip.xyz.gjf
 Output=mol_16.5.8.pdbc_plusQ.out.z51633.zip.xyz.out
 Initial command:
 /home/timn/tmp/g03.e01/l1.exe /home/timn/tmp/g03.e01/Gau-14460.inp -scrdir=/home/timn/tmp/g03.e01/
 Default is to use a total of   2 processors:
                                2 via shared-memory
                                1 via Linda
 Entering Link 1 = /home/timn/tmp/g03.e01/l1.exe PID=     14461.
  
 Copyright (c) 1988,1990,1992,1993,1995,1998,2003,2004,2007, Gaussian, Inc.
                  All Rights Reserved.
  
 This is the Gaussian(R) 03 program.  It is based on the
 the Gaussian(R) 98 system (copyright 1998, Gaussian, Inc.),
 the Gaussian(R) 94 system (copyright 1995, Gaussian, Inc.),
 the Gaussian 92(TM) system (copyright 1992, Gaussian, Inc.),
 the Gaussian 90(TM) system (copyright 1990, Gaussian, Inc.),
 the Gaussian 88(TM) system (copyright 1988, Gaussian, Inc.),
 the Gaussian 86(TM) system (copyright 1986, Carnegie Mellon
 University), and the Gaussian 82(TM) system (copyright 1983,
 Carnegie Mellon University). Gaussian is a federally registered
 trademark of Gaussian, Inc.
  
 This software contains proprietary and confidential information,
 including trade secrets, belonging to Gaussian, Inc.
  
 This software is provided under written license and may be
 used, copied, transmitted, or stored only in accord with that
 written license.
  
 The following legend is applicable only to US Government
 contracts under FAR:
  
                    RESTRICTED RIGHTS LEGEND
  
 Use, reproduction and disclosure by the US Government is
 subject to restrictions as set forth in subparagraphs (a)
 and (c) of the Commercial Computer Software - Restricted
 Rights clause in FAR 52.227-19.
  
 Gaussian, Inc.
 340 Quinnipiac St., Bldg. 40, Wallingford CT 06492
  
  
 ---------------------------------------------------------------
 Warning -- This program may not be used in any manner that
 competes with the business of Gaussian, Inc. or will provide
 assistance to any competitor of Gaussian, Inc.  The licensee
 of this program is prohibited from giving any competitor of
 Gaussian, Inc. access to this program.  By using this program,
 the user acknowledges that Gaussian, Inc. is engaged in the
 business of creating and licensing software in the field of
 computational chemistry and represents and warrants to the
 licensee that it is not a competitor of Gaussian, Inc. and that
 it will not use this program in any manner prohibited above.
 ---------------------------------------------------------------
  

 Cite this work as:
 Gaussian 03, Revision E.01,
 M. J. Frisch, G. W. Trucks, H. B. Schlegel, G. E. Scuseria, 
 M. A. Robb, J. R. Cheeseman, J. A. Montgomery, Jr., T. Vreven, 
 K. N. Kudin, J. C. Burant, J. M. Millam, S. S. Iyengar, J. Tomasi, 
 V. Barone, B. Mennucci, M. Cossi, G. Scalmani, N. Rega, 
 G. A. Petersson, H. Nakatsuji, M. Hada, M. Ehara, K. Toyota, 
 R. Fukuda, J. Hasegawa, M. Ishida, T. Nakajima, Y. Honda, O. Kitao, 
 H. Nakai, M. Klene, X. Li, J. E. Knox, H. P. Hratchian, J. B. Cross, 
 V. Bakken, C. Adamo, J. Jaramillo, R. Gomperts, R. E. Stratmann, 
 O. Yazyev, A. J. Austin, R. Cammi, C. Pomelli, J. W. Ochterski, 
 P. Y. Ayala, K. Morokuma, G. A. Voth, P. Salvador, J. J. Dannenberg, 
 V. G. Zakrzewski, S. Dapprich, A. D. Daniels, M. C. Strain, 
 O. Farkas, D. K. Malick, A. D. Rabuck, K. Raghavachari, 
 J. B. Foresman, J. V. Ortiz, Q. Cui, A. G. Baboul, S. Clifford, 
 J. Cioslowski, B. B. Stefanov, G. Liu, A. Liashenko, P. Piskorz, 
 I. Komaromi, R. L. Martin, D. J. Fox, T. Keith, M. A. Al-Laham, 
 C. Y. Peng, A. Nanayakkara, M. Challacombe, P. M. W. Gill, 
 B. Johnson, W. Chen, M. W. Wong, C. Gonzalez, and J. A. Pople, 
 Gaussian, Inc., Wallingford CT, 2004.
 
 ******************************************
 Gaussian 03:  EM64T-G03RevE.01 11-Sep-2007
                12-Jun-2015 
 ******************************************
 %nproc=2
 Will use up to    2 processors via shared memory.
 Default route:  MP2=Direct MaxDisk=2000MB
 ----------------------------------------------------
 # b3lyp/6-31+G(d,p) int=ultrafine pop=(ReadRadii,MK)
 ----------------------------------------------------

 Warning!  SCF SP cutoffs with diffuse functions may be unreliable.
 Consider SCF=Tight

 1/38=1/1;
 2/17=6,18=5,40=1/2;
 3/5=1,6=6,7=111,11=2,16=1,25=1,30=1,74=-5,75=5/1,2,3;
 4//1;
 5/5=2,32=1,38=5/2;
 6/7=2,8=2,9=2,10=2,15=8,20=101,28=1/1,2;
 99/5=1,9=1/99;
 ----------------------------------------
 mol_16.5.8.pdbc_plusQ.out.z51633.zip.xyz
 ----------------------------------------
 Symbolic Z-matrix:
 Charge =  1 Multiplicity = 1
 O                    -1.44631   1.2706   -0.00119 
 O                    -1.43901  -1.2764   -0.00005 
 P                    -2.32002  -0.00547   0.00036 
 Ca                    0.76592  -1.85593  -0.00007 
 O                     1.71387   0.00396   0.78635 
 O                     1.71481   0.00395  -0.78623 
 Ca                    0.75675   1.85919   0.00024 
 
                          Input orientation:                          
 ---------------------------------------------------------------------
 Center     Atomic     Atomic              Coordinates (Angstroms)
 Number     Number      Type              X           Y           Z
 ---------------------------------------------------------------------
    1          8             0       -1.446310    1.270600   -0.001190
    2          8             0       -1.439010   -1.276400   -0.000050
    3         15             0       -2.320020   -0.005470    0.000360
    4         20             0        0.765920   -1.855930   -0.000070
    5          8             0        1.713870    0.003960    0.786350
    6          8             0        1.714810    0.003950   -0.786230
    7         20             0        0.756750    1.859190    0.000240
 ---------------------------------------------------------------------
                    Distance matrix (angstroms):
                    1          2          3          4          5
     1  O    0.000000
     2  O    2.547011   0.000000
     3  P    1.546521   1.546429   0.000000
     4  Ca   3.830033   2.279818   3.598226   0.000000
     5  O    3.494472   3.492621   4.109761   2.230752   0.000000
     6  O    3.494763   3.493416   4.110799   2.231052   1.572580
     7  Ca   2.280332   3.827961   3.597704   3.715131   2.230678
                    6          7
     6  O    0.000000
     7  Ca   2.231217   0.000000
 Stoichiometry    Ca2O4P(1+)
 Framework group  C1[X(Ca2O4P)]
 Deg. of freedom    15
 Full point group                 C1
 Largest Abelian subgroup         C1      NOp   1
 Largest concise Abelian subgroup C1      NOp   1
                         Standard orientation:                         
 ---------------------------------------------------------------------
 Center     Atomic     Atomic              Coordinates (Angstroms)
 Number     Number      Type              X           Y           Z
 ---------------------------------------------------------------------
    1          8             0       -1.446287    1.270626   -0.001188
    2          8             0       -1.439033   -1.276374   -0.000048
    3         15             0       -2.320020   -0.005428    0.000362
    4         20             0        0.765886   -1.855944   -0.000068
    5          8             0        1.713870    0.003928    0.786352
    6          8             0        1.714810    0.003918   -0.786228
    7         20             0        0.756784    1.859176    0.000242
 ---------------------------------------------------------------------
 Rotational constants (GHZ):      1.4545581      1.2846813      0.7206542
 Standard basis: 6-31+G(d,p) (6D, 7F)
 There are   153 symmetry adapted basis functions of A   symmetry.
 Integral buffers will be    131072 words long.
 Raffenetti 2 integral format.
 Two-electron integral symmetry is turned on.
   153 basis functions,   344 primitive gaussians,   153 cartesian basis functions
    43 alpha electrons       43 beta electrons
       nuclear repulsion energy       602.1525530383 Hartrees.
 NAtoms=    7 NActive=    7 NUniq=    7 SFac= 7.50D-01 NAtFMM=   80 NAOKFM=F Big=F
 One-electron integrals computed using PRISM.
 NBasis=   153 RedAO= T  NBF=   153
 NBsUse=   153 1.00D-06 NBFU=   153
 Harris functional with IExCor=  402 diagonalized for initial guess.
 ExpMin= 7.10D-03 ExpMax= 3.53D+04 ExpMxC= 5.30D+03 IAcc=3 IRadAn=         5 AccDes= 0.00D+00
 HarFok:  IExCor= 402 AccDes= 0.00D+00 IRadAn=         5 IDoV=1
 ScaDFX=  1.000000  1.000000  1.000000  1.000000
 Initial guess orbital symmetries:
       Occupied  (A) (A) (A) (A) (A) (A) (A) (A) (A) (A) (A) (A)
                 (A) (A) (A) (A) (A) (A) (A) (A) (A) (A) (A) (A)
                 (A) (A) (A) (A) (A) (A) (A) (A) (A) (A) (A) (A)
                 (A) (A) (A) (A) (A) (A) (A)
       Virtual   (A) (A) (A) (A) (A) (A) (A) (A) (A) (A) (A) (A)
                 (A) (A) (A) (A) (A) (A) (A) (A) (A) (A) (A) (A)
                 (A) (A) (A) (A) (A) (A) (A) (A) (A) (A) (A) (A)
                 (A) (A) (A) (A) (A) (A) (A) (A) (A) (A) (A) (A)
                 (A) (A) (A) (A) (A) (A) (A) (A) (A) (A) (A) (A)
                 (A) (A) (A) (A) (A) (A) (A) (A) (A) (A) (A) (A)
                 (A) (A) (A) (A) (A) (A) (A) (A) (A) (A) (A) (A)
                 (A) (A) (A) (A) (A) (A) (A) (A) (A) (A) (A) (A)
                 (A) (A) (A) (A) (A) (A) (A) (A) (A) (A) (A) (A)
                 (A) (A)
 The electronic state of the initial guess is 1-A.
 Requested convergence on RMS density matrix=1.00D-04 within 128 cycles.
 Requested convergence on MAX density matrix=1.00D-02.
 Requested convergence on             energy=1.00D-02.
 No special actions if energy rises.
 SCF Done:  E(RB+HF-LYP) =  -1997.33372435     A.U. after    6 cycles
             Convg  =    0.4411D-04             -V/T =  2.0031
             S**2   =   0.0000

 **********************************************************************

            Population analysis using the SCF density.

 **********************************************************************

 Orbital symmetries:
       Occupied  (A) (A) (A) (A) (A) (A) (A) (A) (A) (A) (A) (A)
                 (A) (A) (A) (A) (A) (A) (A) (A) (A) (A) (A) (A)
                 (A) (A) (A) (A) (A) (A) (A) (A) (A) (A) (A) (A)
                 (A) (A) (A) (A) (A) (A) (A)
       Virtual   (A) (A) (A) (A) (A) (A) (A) (A) (A) (A) (A) (A)
                 (A) (A) (A) (A) (A) (A) (A) (A) (A) (A) (A) (A)
                 (A) (A) (A) (A) (A) (A) (A) (A) (A) (A) (A) (A)
                 (A) (A) (A) (A) (A) (A) (A) (A) (A) (A) (A) (A)
                 (A) (A) (A) (A) (A) (A) (A) (A) (A) (A) (A) (A)
                 (A) (A) (A) (A) (A) (A) (A) (A) (A) (A) (A) (A)
                 (A) (A) (A) (A) (A) (A) (A) (A) (A) (A) (A) (A)
                 (A) (A) (A) (A) (A) (A) (A) (A) (A) (A) (A) (A)
                 (A) (A) (A) (A) (A) (A) (A) (A) (A) (A) (A) (A)
                 (A) (A)
 The electronic state is 1-A.
 Alpha  occ. eigenvalues -- -145.53249-145.53248 -77.30168 -19.27962 -19.27960
 Alpha  occ. eigenvalues --  -19.25614 -19.25574 -15.60096 -15.60095 -12.73311
 Alpha  occ. eigenvalues --  -12.73310 -12.73293 -12.73292 -12.73211 -12.73208
 Alpha  occ. eigenvalues --   -6.75649  -4.92089  -4.91874  -4.91429  -1.97239
 Alpha  occ. eigenvalues --   -1.97213  -1.25768  -1.24809  -1.24796  -1.24729
 Alpha  occ. eigenvalues --   -1.24728  -1.24305  -1.13937  -1.08568  -1.08250
 Alpha  occ. eigenvalues --   -0.89528  -0.67713  -0.57292  -0.52834  -0.52612
 Alpha  occ. eigenvalues --   -0.48995  -0.47945  -0.46123  -0.45774  -0.43913
 Alpha  occ. eigenvalues --   -0.40706  -0.37194  -0.34175
 Alpha virt. eigenvalues --   -0.20457  -0.19857  -0.19631  -0.14487  -0.11368
 Alpha virt. eigenvalues --   -0.11282  -0.10318  -0.09669  -0.09051  -0.07375
 Alpha virt. eigenvalues --   -0.07217  -0.06432  -0.05962  -0.05216  -0.04858
 Alpha virt. eigenvalues --   -0.04432  -0.04391  -0.04083  -0.04003  -0.03876
 Alpha virt. eigenvalues --   -0.03337  -0.02380   0.00220   0.01103   0.02011
 Alpha virt. eigenvalues --    0.02947   0.03318   0.03642   0.04212   0.05046
 Alpha virt. eigenvalues --    0.05133   0.05190   0.06777   0.07029   0.07274
 Alpha virt. eigenvalues --    0.07473   0.08125   0.08213   0.12231   0.13582
 Alpha virt. eigenvalues --    0.14146   0.14763   0.16271   0.16812   0.16922
 Alpha virt. eigenvalues --    0.18689   0.20330   0.21712   0.24401   0.26750
 Alpha virt. eigenvalues --    0.28309   0.29462   0.31793   0.32125   0.32482
 Alpha virt. eigenvalues --    0.36017   0.36741   0.40461   0.43974   0.45541
 Alpha virt. eigenvalues --    0.48007   0.56595   0.57813   0.60222   0.65650
 Alpha virt. eigenvalues --    0.71293   0.87006   0.90199   0.94368   1.03574
 Alpha virt. eigenvalues --    1.05857   1.07983   1.08398   1.12004   1.12346
 Alpha virt. eigenvalues --    1.14808   1.15155   1.17876   1.20699   1.23932
 Alpha virt. eigenvalues --    1.28628   1.38333   1.42987   1.46775   1.50556
 Alpha virt. eigenvalues --    1.50918   1.58098   1.66222   1.67994   1.70588
 Alpha virt. eigenvalues --    1.71262   1.75719   1.80025   1.81185   1.82362
 Alpha virt. eigenvalues --    1.84419   1.85979   1.86049   1.92972   2.09470
 Alpha virt. eigenvalues --    2.16173   2.16943   2.53552   2.67521   3.00283
 Alpha virt. eigenvalues --    3.38462   3.83787   3.90568   3.97494   4.05844
          Condensed to atoms (all electrons):
              1          2          3          4          5          6
     1  O    8.814922  -0.085854  -0.094207   0.002353   0.002526   0.002559
     2  O   -0.085854   8.815638  -0.094943   0.067445   0.002544   0.002539
     3  P   -0.094207  -0.094943  14.567442  -0.019121  -0.004312  -0.004460
     4  Ca   0.002353   0.067445  -0.019121  18.210188   0.105862   0.106035
     5  O    0.002526   0.002544  -0.004312   0.105862   8.516218  -0.059813
     6  O    0.002559   0.002539  -0.004460   0.106035  -0.059813   8.515228
     7  Ca   0.067471   0.002330  -0.019103  -0.016667   0.105954   0.105980
              7
     1  O    0.067471
     2  O    0.002330
     3  P   -0.019103
     4  Ca  -0.016667
     5  O    0.105954
     6  O    0.105980
     7  Ca  18.210129
 Mulliken atomic charges:
              1
     1  O   -0.709768
     2  O   -0.709698
     3  P    0.668703
     4  Ca   1.543904
     5  O   -0.668978
     6  O   -0.668068
     7  Ca   1.543906
 Sum of Mulliken charges=   1.00000
 Atomic charges with hydrogens summed into heavy atoms:
              1
     1  O   -0.709768
     2  O   -0.709698
     3  P    0.668703
     4  Ca   1.543904
     5  O   -0.668978
     6  O   -0.668068
     7  Ca   1.543906
 Sum of Mulliken charges=   1.00000
 Electronic spatial extent (au):  <R**2>=  1378.2391
 Charge=     1.0000 electrons
 Dipole moment (field-independent basis, Debye):
    X=     3.1325    Y=     0.0030    Z=     0.0007  Tot=     3.1325
 Quadrupole moment (field-independent basis, Debye-Ang):
   XX=   -66.5320   YY=    -8.9162   ZZ=   -58.2533
   XY=    -0.1337   XZ=    -0.0058   YZ=     0.0103
 Traceless Quadrupole moment (field-independent basis, Debye-Ang):
   XX=   -21.9648   YY=    35.6510   ZZ=   -13.6861
   XY=    -0.1337   XZ=    -0.0058   YZ=     0.0103
 Octapole moment (field-independent basis, Debye-Ang**2):
  XXX=    -6.9851  YYY=     0.4444  ZZZ=    -0.0014  XYY=    70.8143
  XXY=    -0.3751  XXZ=    -0.0081  XZZ=    -1.4262  YZZ=    -0.0056
  YYZ=     0.0155  XYZ=    -0.0040
 Hexadecapole moment (field-independent basis, Debye-Ang**3):
 XXXX=  -943.3457 YYYY=  -329.5581 ZZZZ=  -103.9678 XXXY=    -0.5565
 XXXZ=     0.0496 YYYX=    -0.6962 YYYZ=     0.0415 ZZZX=    -0.0026
 ZZZY=     0.0158 XXYY=  -220.7910 XXZZ=  -174.5479 YYZZ=  -103.3492
 XXYZ=     0.0170 YYXZ=    -0.0001 ZZXY=    -0.1362
 N-N= 6.021525530383D+02 E-N=-5.923735135877D+03  KE= 1.991111142601D+03
 Merz-Kollman atomic radii used.
 Read replacement radii for each type of atom:
 Rad(20) =   1.188000000000D+00
 Atom Element Radius
    1     8    1.40
    2     8    1.40
    3    15    1.80
    4    20    1.19
    5     8    1.40
    6     8    1.40
    7    20    1.19

 **********************************************************************

            Electrostatic Properties Using The SCF Density

 **********************************************************************

       Atomic Center    1 is at  -1.446287  1.270626 -0.001188
       Atomic Center    2 is at  -1.439033 -1.276374 -0.000048
       Atomic Center    3 is at  -2.320020 -0.005428  0.000362
       Atomic Center    4 is at   0.765886 -1.855944 -0.000068
       Atomic Center    5 is at   1.713870  0.003928  0.786352
       Atomic Center    6 is at   1.714810  0.003918 -0.786228
       Atomic Center    7 is at   0.756784  1.859176  0.000242
     710 points will be used for fitting atomic charges
 Fitting point charges to eletrostatic potential
 Charges from ESP fit, RMS=   0.00427 RRMS=   0.02791:
 Charge=   1.00000 Dipole=     2.9934     0.0109     0.0022 Tot=     2.9934
              1
     1  O   -0.751451
     2  O   -0.755442
     3  P    0.635627
     4  Ca   1.723819
     5  O   -0.787933
     6  O   -0.786783
     7  Ca   1.722163
 -----------------------------------------------------------------

              Electrostatic Properties (Atomic Units)

 -----------------------------------------------------------------
    Center     Electric         -------- Electric Field --------
               Potential          X             Y             Z
 -----------------------------------------------------------------
    1 Atom    -22.184036
    2 Atom    -22.184034
    3 Atom    -53.916302
    4 Atom    -80.007934
    5 Atom    -22.214586
    6 Atom    -22.213397
    7 Atom    -80.007918
 -----------------------------------------------------------------
 1\1\GINC-N030\SP\RB3LYP\6-31+G(d,p)\Ca2O4P1(1+)\TIMN\12-Jun-2015\0\\# 
 b3lyp/6-31+G(d,p) int=ultrafine pop=(ReadRadii,MK)\\mol_16.5.8.pdbc_pl
 usQ.out.z51633.zip.xyz\\1,1\O,0,-1.44631,1.2706,-0.00119\O,0,-1.43901,
 -1.2764,-0.00005\P,0,-2.32002,-0.00547,0.00036\Ca,0,0.76592,-1.85593,-
 0.00007\O,0,1.71387,0.00396,0.78635\O,0,1.71481,0.00395,-0.78623\Ca,0,
 0.75675,1.85919,0.00024\\Version=EM64T-G03RevE.01\State=1-A\HF=-1997.3
 337243\RMSD=4.411e-05\Thermal=0.\Dipole=1.2324229,0.001186,0.0002746\P
 G=C01 [X(Ca2O4P1)]\\@


 WE HAVE SEEN THAT MAN ON THE AVERAGE DOES NOT LIVE ABOVE
 TWO-AND-TWENTY YEARS.  DURING THESE TWO AND TWENTY
 YEARS HE IS LIABLE TO TWO AND TWENTY THOUSAND EVILS,
 MANY OF WHICH ARE INCURABLE.  YET EVEN IN THIS DREADFUL STATE
 MEN STILL STRUT AND POSE ON THE STAGE OF LIFE.
 THEY MAKE LOVE AT THE RISK OF DESTRUCTION,
 INTRIGUE, CARRY ON WAR, AND FORM PROJECTS, JUST AS IF THEY
 WERE TO LIVE IN LUXURY AND HAPPINESS FOR A THOUSAND
 AGES.

                                              -- VOLTAIRE
 Job cpu time:  0 days  0 hours  0 minutes 44.0 seconds.
 File lengths (MBytes):  RWF=     28 Int=      0 D2E=      0 Chk=     10 Scr=      1
 Normal termination of Gaussian 03 at Fri Jun 12 17:49:33 2015.
