 Entering Gaussian System, Link 0=/home/timn/tmp/g03.e01/g03
 Input=mol_17.27.30.pdbc_plusQ.z58498.zip.xyz.gjf
 Output=mol_17.27.30.pdbc_plusQ.z58498.zip.xyz.out
 Initial command:
 /home/timn/tmp/g03.e01/l1.exe /home/timn/tmp/g03.e01/Gau-19625.inp -scrdir=/home/timn/tmp/g03.e01/
 Default is to use a total of   2 processors:
                                2 via shared-memory
                                1 via Linda
 Entering Link 1 = /home/timn/tmp/g03.e01/l1.exe PID=     19628.
  
 Copyright (c) 1988,1990,1992,1993,1995,1998,2003,2004,2007, Gaussian, Inc.
                  All Rights Reserved.
  
 This is the Gaussian(R) 03 program.  It is based on the
 the Gaussian(R) 98 system (copyright 1998, Gaussian, Inc.),
 the Gaussian(R) 94 system (copyright 1995, Gaussian, Inc.),
 the Gaussian 92(TM) system (copyright 1992, Gaussian, Inc.),
 the Gaussian 90(TM) system (copyright 1990, Gaussian, Inc.),
 the Gaussian 88(TM) system (copyright 1988, Gaussian, Inc.),
 the Gaussian 86(TM) system (copyright 1986, Carnegie Mellon
 University), and the Gaussian 82(TM) system (copyright 1983,
 Carnegie Mellon University). Gaussian is a federally registered
 trademark of Gaussian, Inc.
  
 This software contains proprietary and confidential information,
 including trade secrets, belonging to Gaussian, Inc.
  
 This software is provided under written license and may be
 used, copied, transmitted, or stored only in accord with that
 written license.
  
 The following legend is applicable only to US Government
 contracts under FAR:
  
                    RESTRICTED RIGHTS LEGEND
  
 Use, reproduction and disclosure by the US Government is
 subject to restrictions as set forth in subparagraphs (a)
 and (c) of the Commercial Computer Software - Restricted
 Rights clause in FAR 52.227-19.
  
 Gaussian, Inc.
 340 Quinnipiac St., Bldg. 40, Wallingford CT 06492
  
  
 ---------------------------------------------------------------
 Warning -- This program may not be used in any manner that
 competes with the business of Gaussian, Inc. or will provide
 assistance to any competitor of Gaussian, Inc.  The licensee
 of this program is prohibited from giving any competitor of
 Gaussian, Inc. access to this program.  By using this program,
 the user acknowledges that Gaussian, Inc. is engaged in the
 business of creating and licensing software in the field of
 computational chemistry and represents and warrants to the
 licensee that it is not a competitor of Gaussian, Inc. and that
 it will not use this program in any manner prohibited above.
 ---------------------------------------------------------------
  

 Cite this work as:
 Gaussian 03, Revision E.01,
 M. J. Frisch, G. W. Trucks, H. B. Schlegel, G. E. Scuseria, 
 M. A. Robb, J. R. Cheeseman, J. A. Montgomery, Jr., T. Vreven, 
 K. N. Kudin, J. C. Burant, J. M. Millam, S. S. Iyengar, J. Tomasi, 
 V. Barone, B. Mennucci, M. Cossi, G. Scalmani, N. Rega, 
 G. A. Petersson, H. Nakatsuji, M. Hada, M. Ehara, K. Toyota, 
 R. Fukuda, J. Hasegawa, M. Ishida, T. Nakajima, Y. Honda, O. Kitao, 
 H. Nakai, M. Klene, X. Li, J. E. Knox, H. P. Hratchian, J. B. Cross, 
 V. Bakken, C. Adamo, J. Jaramillo, R. Gomperts, R. E. Stratmann, 
 O. Yazyev, A. J. Austin, R. Cammi, C. Pomelli, J. W. Ochterski, 
 P. Y. Ayala, K. Morokuma, G. A. Voth, P. Salvador, J. J. Dannenberg, 
 V. G. Zakrzewski, S. Dapprich, A. D. Daniels, M. C. Strain, 
 O. Farkas, D. K. Malick, A. D. Rabuck, K. Raghavachari, 
 J. B. Foresman, J. V. Ortiz, Q. Cui, A. G. Baboul, S. Clifford, 
 J. Cioslowski, B. B. Stefanov, G. Liu, A. Liashenko, P. Piskorz, 
 I. Komaromi, R. L. Martin, D. J. Fox, T. Keith, M. A. Al-Laham, 
 C. Y. Peng, A. Nanayakkara, M. Challacombe, P. M. W. Gill, 
 B. Johnson, W. Chen, M. W. Wong, C. Gonzalez, and J. A. Pople, 
 Gaussian, Inc., Wallingford CT, 2004.
 
 ******************************************
 Gaussian 03:  EM64T-G03RevE.01 11-Sep-2007
                12-Jun-2015 
 ******************************************
 %nproc=2
 Will use up to    2 processors via shared memory.
 Default route:  MP2=Direct MaxDisk=2000MB
 ----------------------------------------------------
 # b3lyp/6-31+G(d,p) int=ultrafine pop=(ReadRadii,MK)
 ----------------------------------------------------

 Warning!  SCF SP cutoffs with diffuse functions may be unreliable.
 Consider SCF=Tight

 1/38=1/1;
 2/17=6,18=5,40=1/2;
 3/5=1,6=6,7=111,11=2,16=1,25=1,30=1,74=-5,75=5/1,2,3;
 4//1;
 5/5=2,32=1,38=5/2;
 6/7=2,8=2,9=2,10=2,15=8,20=101,28=1/1,2;
 99/5=1,9=1/99;
 --------------------------------------
 mol_17.27.30.pdbc_plusQ.z58498.zip.xyz
 --------------------------------------
 Symbolic Z-matrix:
 Charge =  1 Multiplicity = 1
 O                    -1.31972  -0.94237  -0.22005 
 P                    -1.73321   0.67864  -0.9232 
 Ca                   -3.42695  -0.79437   0.53708 
 Ca                    0.92746  -1.24215  -0.39368 
 O                     2.96463  -1.33096   0.85302 
 O                     3.31522  -1.11743  -0.3599 
 O                     1.97381   0.82179  -0.43677 
 O                     1.62753   0.53505   0.93732 
 Ca                    0.37481   2.34111   0.23955 
 
                          Input orientation:                          
 ---------------------------------------------------------------------
 Center     Atomic     Atomic              Coordinates (Angstroms)
 Number     Number      Type              X           Y           Z
 ---------------------------------------------------------------------
    1          8             0       -1.319720   -0.942370   -0.220050
    2         15             0       -1.733210    0.678640   -0.923200
    3         20             0       -3.426950   -0.794370    0.537080
    4         20             0        0.927460   -1.242150   -0.393680
    5          8             0        2.964630   -1.330960    0.853020
    6          8             0        3.315220   -1.117430   -0.359900
    7          8             0        1.973810    0.821790   -0.436770
    8          8             0        1.627530    0.535050    0.937320
    9         20             0        0.374810    2.341110    0.239550
 ---------------------------------------------------------------------
                    Distance matrix (angstroms):
                    1          2          3          4          5
     1  O    0.000000
     2  P    1.814681   0.000000
     3  Ca   2.244007   2.677859   0.000000
     4  Ca   2.273727   3.324002   4.475233   0.000000
     5  O    4.433750   5.409543   6.421841   2.390023   0.000000
     6  O    4.640353   5.387933   6.809244   2.391254   1.280501
     7  O    3.742535   3.741538   5.720889   2.314423   2.698076
     8  O    3.494075   3.844051   5.241690   2.328111   2.297158
     9  Ca   3.723427   2.925670   4.936916   3.680510   4.535153
                    6          7          8          9
     6  O    0.000000
     7  O    2.359208   0.000000
     8  O    2.694767   1.445771   0.000000
     9  Ca   4.578957   2.307064   2.306088   0.000000
 Stoichiometry    Ca3O5P(1+)
 Framework group  C1[X(Ca3O5P)]
 Deg. of freedom    21
 Full point group                 C1
 Largest Abelian subgroup         C1      NOp   1
 Largest concise Abelian subgroup C1      NOp   1
                         Standard orientation:                         
 ---------------------------------------------------------------------
 Center     Atomic     Atomic              Coordinates (Angstroms)
 Number     Number      Type              X           Y           Z
 ---------------------------------------------------------------------
    1          8             0       -1.319720   -0.942370   -0.220050
    2         15             0       -1.733210    0.678640   -0.923200
    3         20             0       -3.426950   -0.794369    0.537080
    4         20             0        0.927460   -1.242151   -0.393680
    5          8             0        2.964630   -1.330961    0.853020
    6          8             0        3.315220   -1.117431   -0.359900
    7          8             0        1.973810    0.821789   -0.436770
    8          8             0        1.627530    0.535049    0.937320
    9         20             0        0.374811    2.341110    0.239550
 ---------------------------------------------------------------------
 Rotational constants (GHZ):      1.0616044      0.4475318      0.3487004
 Standard basis: 6-31+G(d,p) (6D, 7F)
 There are   199 symmetry adapted basis functions of A   symmetry.
 Integral buffers will be    131072 words long.
 Raffenetti 2 integral format.
 Two-electron integral symmetry is turned on.
   199 basis functions,   456 primitive gaussians,   199 cartesian basis functions
    57 alpha electrons       57 beta electrons
       nuclear repulsion energy       947.4088693400 Hartrees.
 NAtoms=    9 NActive=    9 NUniq=    9 SFac= 7.50D-01 NAtFMM=   80 NAOKFM=F Big=F
 One-electron integrals computed using PRISM.
 NBasis=   199 RedAO= T  NBF=   199
 NBsUse=   199 1.00D-06 NBFU=   199
 Harris functional with IExCor=  402 diagonalized for initial guess.
 ExpMin= 7.10D-03 ExpMax= 3.53D+04 ExpMxC= 5.30D+03 IAcc=3 IRadAn=         5 AccDes= 0.00D+00
 HarFok:  IExCor= 402 AccDes= 0.00D+00 IRadAn=         5 IDoV=1
 ScaDFX=  1.000000  1.000000  1.000000  1.000000
 Initial guess orbital symmetries:
       Occupied  (A) (A) (A) (A) (A) (A) (A) (A) (A) (A) (A) (A)
                 (A) (A) (A) (A) (A) (A) (A) (A) (A) (A) (A) (A)
                 (A) (A) (A) (A) (A) (A) (A) (A) (A) (A) (A) (A)
                 (A) (A) (A) (A) (A) (A) (A) (A) (A) (A) (A) (A)
                 (A) (A) (A) (A) (A) (A) (A) (A) (A)
       Virtual   (A) (A) (A) (A) (A) (A) (A) (A) (A) (A) (A) (A)
                 (A) (A) (A) (A) (A) (A) (A) (A) (A) (A) (A) (A)
                 (A) (A) (A) (A) (A) (A) (A) (A) (A) (A) (A) (A)
                 (A) (A) (A) (A) (A) (A) (A) (A) (A) (A) (A) (A)
                 (A) (A) (A) (A) (A) (A) (A) (A) (A) (A) (A) (A)
                 (A) (A) (A) (A) (A) (A) (A) (A) (A) (A) (A) (A)
                 (A) (A) (A) (A) (A) (A) (A) (A) (A) (A) (A) (A)
                 (A) (A) (A) (A) (A) (A) (A) (A) (A) (A) (A) (A)
                 (A) (A) (A) (A) (A) (A) (A) (A) (A) (A) (A) (A)
                 (A) (A) (A) (A) (A) (A) (A) (A) (A) (A) (A) (A)
                 (A) (A) (A) (A) (A) (A) (A) (A) (A) (A) (A) (A)
                 (A) (A) (A) (A) (A) (A) (A) (A) (A) (A)
 The electronic state of the initial guess is 1-A.
 Requested convergence on RMS density matrix=1.00D-04 within 128 cycles.
 Requested convergence on MAX density matrix=1.00D-02.
 Requested convergence on             energy=1.00D-02.
 No special actions if energy rises.
 Rare condition: small coef for last iteration:  0.000D+00
 EnCoef did   100 forward-backward iterations
 EnCoef did   100 forward-backward iterations
 EnCoef did   100 forward-backward iterations
 EnCoef did   100 forward-backward iterations
 EnCoef did     9 forward-backward iterations
 EnCoef did   100 forward-backward iterations
 EnCoef did   100 forward-backward iterations
 EnCoef did     2 forward-backward iterations
 SCF Done:  E(RB+HF-LYP) =  -2749.87660949     A.U. after   15 cycles
             Convg  =    0.8561D-04             -V/T =  2.0028
             S**2   =   0.0000

 **********************************************************************

            Population analysis using the SCF density.

 **********************************************************************

 Orbital symmetries:
       Occupied  (A) (A) (A) (A) (A) (A) (A) (A) (A) (A) (A) (A)
                 (A) (A) (A) (A) (A) (A) (A) (A) (A) (A) (A) (A)
                 (A) (A) (A) (A) (A) (A) (A) (A) (A) (A) (A) (A)
                 (A) (A) (A) (A) (A) (A) (A) (A) (A) (A) (A) (A)
                 (A) (A) (A) (A) (A) (A) (A) (A) (A)
       Virtual   (A) (A) (A) (A) (A) (A) (A) (A) (A) (A) (A) (A)
                 (A) (A) (A) (A) (A) (A) (A) (A) (A) (A) (A) (A)
                 (A) (A) (A) (A) (A) (A) (A) (A) (A) (A) (A) (A)
                 (A) (A) (A) (A) (A) (A) (A) (A) (A) (A) (A) (A)
                 (A) (A) (A) (A) (A) (A) (A) (A) (A) (A) (A) (A)
                 (A) (A) (A) (A) (A) (A) (A) (A) (A) (A) (A) (A)
                 (A) (A) (A) (A) (A) (A) (A) (A) (A) (A) (A) (A)
                 (A) (A) (A) (A) (A) (A) (A) (A) (A) (A) (A) (A)
                 (A) (A) (A) (A) (A) (A) (A) (A) (A) (A) (A) (A)
                 (A) (A) (A) (A) (A) (A) (A) (A) (A) (A) (A) (A)
                 (A) (A) (A) (A) (A) (A) (A) (A) (A) (A) (A) (A)
                 (A) (A) (A) (A) (A) (A) (A) (A) (A) (A)
 The electronic state is 1-A.
 Alpha  occ. eigenvalues -- -145.55186-145.51702-145.47635 -77.16851 -19.33819
 Alpha  occ. eigenvalues --  -19.33294 -19.27229 -19.27052 -19.22210 -15.62065
 Alpha  occ. eigenvalues --  -15.58619 -15.54493 -12.75285 -12.75240 -12.75170
 Alpha  occ. eigenvalues --  -12.71823 -12.71805 -12.71720 -12.67725 -12.67711
 Alpha  occ. eigenvalues --  -12.67577  -6.63417  -4.79927  -4.79379  -4.79188
 Alpha  occ. eigenvalues --   -1.99055  -1.95773  -1.91823  -1.28255  -1.26590
 Alpha  occ. eigenvalues --   -1.26296  -1.26241  -1.24075  -1.23294  -1.22890
 Alpha  occ. eigenvalues --   -1.20273  -1.19490  -1.18580  -1.12991  -1.00634
 Alpha  occ. eigenvalues --   -0.88258  -0.85518  -0.62556  -0.57589  -0.55935
 Alpha  occ. eigenvalues --   -0.54714  -0.50866  -0.48726  -0.45927  -0.44819
 Alpha  occ. eigenvalues --   -0.43535  -0.42241  -0.35982  -0.33368  -0.32162
 Alpha  occ. eigenvalues --   -0.30045  -0.27361
 Alpha virt. eigenvalues --   -0.22986  -0.22704  -0.19022  -0.16114  -0.14644
 Alpha virt. eigenvalues --   -0.13743  -0.12564  -0.11106  -0.10804  -0.09321
 Alpha virt. eigenvalues --   -0.07802  -0.07446  -0.07315  -0.06165  -0.05758
 Alpha virt. eigenvalues --   -0.05398  -0.05086  -0.04840  -0.04609  -0.04289
 Alpha virt. eigenvalues --   -0.04121  -0.03794  -0.03761  -0.03465  -0.03226
 Alpha virt. eigenvalues --   -0.02922  -0.02460  -0.01601  -0.00827  -0.00359
 Alpha virt. eigenvalues --   -0.00089   0.00760   0.02810   0.03096   0.03394
 Alpha virt. eigenvalues --    0.03722   0.03953   0.04379   0.04954   0.05141
 Alpha virt. eigenvalues --    0.05496   0.05711   0.06227   0.06985   0.07106
 Alpha virt. eigenvalues --    0.07552   0.08877   0.09453   0.09803   0.10592
 Alpha virt. eigenvalues --    0.12277   0.13002   0.13131   0.14286   0.14838
 Alpha virt. eigenvalues --    0.15399   0.16145   0.16851   0.17784   0.18754
 Alpha virt. eigenvalues --    0.20677   0.22127   0.23404   0.24300   0.24716
 Alpha virt. eigenvalues --    0.25707   0.26649   0.27037   0.28997   0.30653
 Alpha virt. eigenvalues --    0.32073   0.34855   0.36648   0.37600   0.39005
 Alpha virt. eigenvalues --    0.40710   0.41341   0.42355   0.42836   0.44606
 Alpha virt. eigenvalues --    0.50192   0.52249   0.56344   0.60960   0.63744
 Alpha virt. eigenvalues --    0.68141   0.73957   0.79924   0.85623   0.88547
 Alpha virt. eigenvalues --    0.95843   1.01858   1.04128   1.06384   1.08841
 Alpha virt. eigenvalues --    1.09403   1.11437   1.13441   1.14909   1.16660
 Alpha virt. eigenvalues --    1.18336   1.22104   1.26419   1.27896   1.29368
 Alpha virt. eigenvalues --    1.31781   1.44316   1.44855   1.44958   1.46624
 Alpha virt. eigenvalues --    1.48644   1.53342   1.58893   1.62883   1.66014
 Alpha virt. eigenvalues --    1.69254   1.71148   1.77923   1.79574   1.79600
 Alpha virt. eigenvalues --    1.82863   1.86066   1.86440   1.89315   1.92744
 Alpha virt. eigenvalues --    1.96656   2.00095   2.03465   2.22678   2.27718
 Alpha virt. eigenvalues --    2.30839   2.34875   2.47503   2.55025   2.98700
 Alpha virt. eigenvalues --    3.12323   3.41905   3.96108   4.00569   4.06566
 Alpha virt. eigenvalues --    4.16006   4.37177
          Condensed to atoms (all electrons):
              1          2          3          4          5          6
     1  O    9.175580  -0.445914   0.007317   0.105450   0.004524  -0.004073
     2  P   -0.445914  15.626452   0.341771  -0.040823  -0.005192   0.003413
     3  Ca   0.007317   0.341771  18.426585  -0.013679  -0.000757   0.000945
     4  Ca   0.105450  -0.040823  -0.013679  18.316329   0.077472   0.066195
     5  O    0.004524  -0.005192  -0.000757   0.077472   8.160517  -0.081356
     6  O   -0.004073   0.003413   0.000945   0.066195  -0.081356   8.138948
     7  O    0.009187  -0.036309   0.002462   0.090133   0.106138  -0.093913
     8  O    0.009149  -0.014929  -0.001252   0.038368  -0.109511   0.110835
     9  Ca  -0.021559   0.277218   0.006808  -0.044744  -0.006575   0.005144
              7          8          9
     1  O    0.009187   0.009149  -0.021559
     2  P   -0.036309  -0.014929   0.277218
     3  Ca   0.002462  -0.001252   0.006808
     4  Ca   0.090133   0.038368  -0.044744
     5  O    0.106138  -0.109511  -0.006575
     6  O   -0.093913   0.110835   0.005144
     7  O    8.488531  -0.104749   0.055832
     8  O   -0.104749   8.470646   0.088221
     9  Ca   0.055832   0.088221  18.433920
 Mulliken atomic charges:
              1
     1  O   -0.839660
     2  P   -0.705687
     3  Ca   1.229800
     4  Ca   1.405299
     5  O   -0.145260
     6  O   -0.146138
     7  O   -0.517312
     8  O   -0.486778
     9  Ca   1.205735
 Sum of Mulliken charges=   1.00000
 Atomic charges with hydrogens summed into heavy atoms:
              1
     1  O   -0.839660
     2  P   -0.705687
     3  Ca   1.229800
     4  Ca   1.405299
     5  O   -0.145260
     6  O   -0.146138
     7  O   -0.517312
     8  O   -0.486778
     9  Ca   1.205735
 Sum of Mulliken charges=   1.00000
 Electronic spatial extent (au):  <R**2>=  2854.3145
 Charge=     1.0000 electrons
 Dipole moment (field-independent basis, Debye):
    X=   -12.0043    Y=    -0.2331    Z=     2.8766  Tot=    12.3463
 Quadrupole moment (field-independent basis, Debye-Ang):
   XX=   -56.5544   YY=   -38.7446   ZZ=   -83.5958
   XY=    19.5289   XZ=   -19.0538   YZ=     4.9719
 Traceless Quadrupole moment (field-independent basis, Debye-Ang):
   XX=     3.0772   YY=    20.8870   ZZ=   -23.9642
   XY=    19.5289   XZ=   -19.0538   YZ=     4.9719
 Octapole moment (field-independent basis, Debye-Ang**2):
  XXX=  -235.6197  YYY=    54.5217  ZZZ=    15.1098  XYY=    22.5816
  XXY=   -72.8596  XXZ=    42.1517  XZZ=     6.1065  YZZ=   -11.4534
  YYZ=     8.0561  XYZ=    16.9303
 Hexadecapole moment (field-independent basis, Debye-Ang**3):
 XXXX= -1781.3507 YYYY=  -578.4109 ZZZZ=  -313.3868 XXXY=   309.2375
 XXXZ=  -175.7580 YYYX=    85.8265 YYYZ=    34.4525 ZZZX=   -57.8135
 ZZZY=    18.1246 XXYY=  -495.9748 XXZZ=  -450.1477 YYZZ=  -182.1323
 XXYZ=   -18.9028 YYXZ=   -17.3161 ZZXY=    22.7462
 N-N= 9.474088693400D+02 E-N=-8.394395953701D+03  KE= 2.742114765867D+03
 Merz-Kollman atomic radii used.
 Read replacement radii for each type of atom:
 Rad(20) =   1.188000000000D+00
 Atom Element Radius
    1     8    1.40
    2    15    1.80
    3    20    1.19
    4    20    1.19
    5     8    1.40
    6     8    1.40
    7     8    1.40
    8     8    1.40
    9    20    1.19

 **********************************************************************

            Electrostatic Properties Using The SCF Density

 **********************************************************************

       Atomic Center    1 is at  -1.319720 -0.942370 -0.220050
       Atomic Center    2 is at  -1.733210  0.678640 -0.923200
       Atomic Center    3 is at  -3.426950 -0.794369  0.537080
       Atomic Center    4 is at   0.927460 -1.242151 -0.393680
       Atomic Center    5 is at   2.964630 -1.330961  0.853020
       Atomic Center    6 is at   3.315220 -1.117431 -0.359900
       Atomic Center    7 is at   1.973810  0.821789 -0.436770
       Atomic Center    8 is at   1.627530  0.535049  0.937320
       Atomic Center    9 is at   0.374811  2.341110  0.239550
     871 points will be used for fitting atomic charges
 Fitting point charges to eletrostatic potential
 Charges from ESP fit, RMS=   0.01423 RRMS=   0.09478:
 Charge=   1.00000 Dipole=   -13.1656     0.3449     4.3872 Tot=    13.8816
              1
     1  O   -0.736735
     2  P   -0.989344
     3  Ca   1.261074
     4  Ca   1.546279
     5  O   -0.150914
     6  O   -0.248372
     7  O   -0.323002
     8  O   -0.696410
     9  Ca   1.337423
 -----------------------------------------------------------------

              Electrostatic Properties (Atomic Units)

 -----------------------------------------------------------------
    Center     Electric         -------- Electric Field --------
               Potential          X             Y             Z
 -----------------------------------------------------------------
    1 Atom    -22.237242
    2 Atom    -54.041185
    3 Atom    -79.994174
    4 Atom    -80.063034
    5 Atom    -22.141361
    6 Atom    -22.138381
    7 Atom    -22.202825
    8 Atom    -22.202702
    9 Atom    -80.021808
 -----------------------------------------------------------------
 1\1\GINC-N027\SP\RB3LYP\6-31+G(d,p)\Ca3O5P1(1+)\TIMN\12-Jun-2015\0\\# 
 b3lyp/6-31+G(d,p) int=ultrafine pop=(ReadRadii,MK)\\mol_17.27.30.pdbc_
 plusQ.z58498.zip.xyz\\1,1\O,0,-1.31972,-0.94237,-0.22005\P,0,-1.73321,
 0.67864,-0.9232\Ca,0,-3.42695,-0.79437,0.53708\Ca,0,0.92746,-1.24215,-
 0.39368\O,0,2.96463,-1.33096,0.85302\O,0,3.31522,-1.11743,-0.3599\O,0,
 1.97381,0.82179,-0.43677\O,0,1.62753,0.53505,0.93732\Ca,0,0.37481,2.34
 111,0.23955\\Version=EM64T-G03RevE.01\State=1-A\HF=-2749.8766095\RMSD=
 8.561e-05\Thermal=0.\Dipole=-4.7228551,-0.0916916,1.13174\PG=C01 [X(Ca
 3O5P1)]\\@


 The earth never tires,
 The earth is rude, silent, incomprehensible at first,
 Nature is rude and incomprehensible at first,
 Be not discouraged, keep on,
 There are divine things well envelop'd,
 I swear to you there are divine things more beautiful than words can tell.
                                 -- Walt Whitman
 Job cpu time:  0 days  0 hours  3 minutes 30.0 seconds.
 File lengths (MBytes):  RWF=     36 Int=      0 D2E=      0 Chk=     11 Scr=      1
 Normal termination of Gaussian 03 at Fri Jun 12 18:07:48 2015.
