 Entering Gaussian System, Link 0=/home/timn/tmp/g03.e01/g03
 Input=mol_17.28.22.pdbcccc_plusQ.z58545.zip.xyz.gjf
 Output=mol_17.28.22.pdbcccc_plusQ.z58545.zip.xyz.out
 Initial command:
 /home/timn/tmp/g03.e01/l1.exe /home/timn/tmp/g03.e01/Gau-17775.inp -scrdir=/home/timn/tmp/g03.e01/
 Default is to use a total of   2 processors:
                                2 via shared-memory
                                1 via Linda
 Entering Link 1 = /home/timn/tmp/g03.e01/l1.exe PID=     17776.
  
 Copyright (c) 1988,1990,1992,1993,1995,1998,2003,2004,2007, Gaussian, Inc.
                  All Rights Reserved.
  
 This is the Gaussian(R) 03 program.  It is based on the
 the Gaussian(R) 98 system (copyright 1998, Gaussian, Inc.),
 the Gaussian(R) 94 system (copyright 1995, Gaussian, Inc.),
 the Gaussian 92(TM) system (copyright 1992, Gaussian, Inc.),
 the Gaussian 90(TM) system (copyright 1990, Gaussian, Inc.),
 the Gaussian 88(TM) system (copyright 1988, Gaussian, Inc.),
 the Gaussian 86(TM) system (copyright 1986, Carnegie Mellon
 University), and the Gaussian 82(TM) system (copyright 1983,
 Carnegie Mellon University). Gaussian is a federally registered
 trademark of Gaussian, Inc.
  
 This software contains proprietary and confidential information,
 including trade secrets, belonging to Gaussian, Inc.
  
 This software is provided under written license and may be
 used, copied, transmitted, or stored only in accord with that
 written license.
  
 The following legend is applicable only to US Government
 contracts under FAR:
  
                    RESTRICTED RIGHTS LEGEND
  
 Use, reproduction and disclosure by the US Government is
 subject to restrictions as set forth in subparagraphs (a)
 and (c) of the Commercial Computer Software - Restricted
 Rights clause in FAR 52.227-19.
  
 Gaussian, Inc.
 340 Quinnipiac St., Bldg. 40, Wallingford CT 06492
  
  
 ---------------------------------------------------------------
 Warning -- This program may not be used in any manner that
 competes with the business of Gaussian, Inc. or will provide
 assistance to any competitor of Gaussian, Inc.  The licensee
 of this program is prohibited from giving any competitor of
 Gaussian, Inc. access to this program.  By using this program,
 the user acknowledges that Gaussian, Inc. is engaged in the
 business of creating and licensing software in the field of
 computational chemistry and represents and warrants to the
 licensee that it is not a competitor of Gaussian, Inc. and that
 it will not use this program in any manner prohibited above.
 ---------------------------------------------------------------
  

 Cite this work as:
 Gaussian 03, Revision E.01,
 M. J. Frisch, G. W. Trucks, H. B. Schlegel, G. E. Scuseria, 
 M. A. Robb, J. R. Cheeseman, J. A. Montgomery, Jr., T. Vreven, 
 K. N. Kudin, J. C. Burant, J. M. Millam, S. S. Iyengar, J. Tomasi, 
 V. Barone, B. Mennucci, M. Cossi, G. Scalmani, N. Rega, 
 G. A. Petersson, H. Nakatsuji, M. Hada, M. Ehara, K. Toyota, 
 R. Fukuda, J. Hasegawa, M. Ishida, T. Nakajima, Y. Honda, O. Kitao, 
 H. Nakai, M. Klene, X. Li, J. E. Knox, H. P. Hratchian, J. B. Cross, 
 V. Bakken, C. Adamo, J. Jaramillo, R. Gomperts, R. E. Stratmann, 
 O. Yazyev, A. J. Austin, R. Cammi, C. Pomelli, J. W. Ochterski, 
 P. Y. Ayala, K. Morokuma, G. A. Voth, P. Salvador, J. J. Dannenberg, 
 V. G. Zakrzewski, S. Dapprich, A. D. Daniels, M. C. Strain, 
 O. Farkas, D. K. Malick, A. D. Rabuck, K. Raghavachari, 
 J. B. Foresman, J. V. Ortiz, Q. Cui, A. G. Baboul, S. Clifford, 
 J. Cioslowski, B. B. Stefanov, G. Liu, A. Liashenko, P. Piskorz, 
 I. Komaromi, R. L. Martin, D. J. Fox, T. Keith, M. A. Al-Laham, 
 C. Y. Peng, A. Nanayakkara, M. Challacombe, P. M. W. Gill, 
 B. Johnson, W. Chen, M. W. Wong, C. Gonzalez, and J. A. Pople, 
 Gaussian, Inc., Wallingford CT, 2004.
 
 ******************************************
 Gaussian 03:  EM64T-G03RevE.01 11-Sep-2007
                12-Jun-2015 
 ******************************************
 %nproc=2
 Will use up to    2 processors via shared memory.
 Default route:  MP2=Direct MaxDisk=2000MB
 ----------------------------------------------------
 # b3lyp/6-31+G(d,p) int=ultrafine pop=(ReadRadii,MK)
 ----------------------------------------------------

 Warning!  SCF SP cutoffs with diffuse functions may be unreliable.
 Consider SCF=Tight

 1/38=1/1;
 2/17=6,18=5,40=1/2;
 3/5=1,6=6,7=111,11=2,16=1,25=1,30=1,74=-5,75=5/1,2,3;
 4//1;
 5/5=2,32=1,38=5/2;
 6/7=2,8=2,9=2,10=2,15=8,20=101,28=1/1,2;
 99/5=1,9=1/99;
 -----------------------------------------
 mol_17.28.22.pdbcccc_plusQ.z58545.zip.xyz
 -----------------------------------------
 Symbolic Z-matrix:
 Charge =  1 Multiplicity = 1
 O                    -0.58894  -0.00022  -1.65662 
 O                     1.23805   1.28509  -0.44057 
 Ca                    1.62573   0.0001    1.39033 
 P                     1.06583  -0.00037  -1.53043 
 Ca                   -1.0541    1.67195  -0.13887 
 O                     1.23781  -1.28545  -0.44017 
 O                    -0.60907   0.00028   1.52131 
 Ca                   -1.05452  -1.67182  -0.13833 
 O                    -2.06902   0.00041   1.10278 
 
                          Input orientation:                          
 ---------------------------------------------------------------------
 Center     Atomic     Atomic              Coordinates (Angstroms)
 Number     Number      Type              X           Y           Z
 ---------------------------------------------------------------------
    1          8             0       -0.588940   -0.000220   -1.656620
    2          8             0        1.238050    1.285090   -0.440570
    3         20             0        1.625730    0.000100    1.390330
    4         15             0        1.065830   -0.000370   -1.530430
    5         20             0       -1.054100    1.671950   -0.138870
    6          8             0        1.237810   -1.285450   -0.440170
    7          8             0       -0.609070    0.000280    1.521310
    8         20             0       -1.054520   -1.671820   -0.138330
    9          8             0       -2.069020    0.000410    1.102780
 ---------------------------------------------------------------------
                    Distance matrix (angstroms):
                    1          2          3          4          5
     1  O    0.000000
     2  O    2.543362   0.000000
     3  Ca   3.766785   2.270174   0.000000
     4  P    1.659575   1.694067   2.973941   0.000000
     5  Ca   2.305665   2.344064   3.509277   3.037630   0.000000
     6  O    2.543341   2.570540   2.270209   1.694011   3.753645
     7  O    3.177994   2.985224   2.238635   3.481150   2.397651
     8  Ca   2.305692   3.753737   3.509396   3.037692   3.343770
     9  O    3.131282   3.868985   3.705923   4.094030   2.316420
                    6          7          8          9
     6  O    0.000000
     7  O    2.985209   0.000000
     8  Ca   2.344177   2.397655   0.000000
     9  O    3.869012   1.518757   2.316445   0.000000
 Stoichiometry    Ca3O5P(1+)
 Framework group  C1[X(Ca3O5P)]
 Deg. of freedom    21
 Full point group                 C1
 Largest Abelian subgroup         C1      NOp   1
 Largest concise Abelian subgroup C1      NOp   1
                         Standard orientation:                         
 ---------------------------------------------------------------------
 Center     Atomic     Atomic              Coordinates (Angstroms)
 Number     Number      Type              X           Y           Z
 ---------------------------------------------------------------------
    1          8             0       -0.588943   -0.000213   -1.656620
    2          8             0        1.238061    1.285078   -0.440570
    3         20             0        1.625727    0.000084    1.390330
    4         15             0        1.065827   -0.000381   -1.530430
    5         20             0       -1.054085    1.671962   -0.138870
    6          8             0        1.237794   -1.285462   -0.440170
    7          8             0       -0.609073    0.000287    1.521310
    8         20             0       -1.054540   -1.671808   -0.138330
    9          8             0       -2.069023    0.000432    1.102780
 ---------------------------------------------------------------------
 Rotational constants (GHZ):      0.9461988      0.8197390      0.7959978
 Standard basis: 6-31+G(d,p) (6D, 7F)
 There are   199 symmetry adapted basis functions of A   symmetry.
 Integral buffers will be    131072 words long.
 Raffenetti 2 integral format.
 Two-electron integral symmetry is turned on.
   199 basis functions,   456 primitive gaussians,   199 cartesian basis functions
    57 alpha electrons       57 beta electrons
       nuclear repulsion energy      1104.8629529390 Hartrees.
 NAtoms=    9 NActive=    9 NUniq=    9 SFac= 7.50D-01 NAtFMM=   80 NAOKFM=F Big=F
 One-electron integrals computed using PRISM.
 NBasis=   199 RedAO= T  NBF=   199
 NBsUse=   199 1.00D-06 NBFU=   199
 Harris functional with IExCor=  402 diagonalized for initial guess.
 ExpMin= 7.10D-03 ExpMax= 3.53D+04 ExpMxC= 5.30D+03 IAcc=3 IRadAn=         5 AccDes= 0.00D+00
 HarFok:  IExCor= 402 AccDes= 0.00D+00 IRadAn=         5 IDoV=1
 ScaDFX=  1.000000  1.000000  1.000000  1.000000
 Initial guess orbital symmetries:
       Occupied  (A) (A) (A) (A) (A) (A) (A) (A) (A) (A) (A) (A)
                 (A) (A) (A) (A) (A) (A) (A) (A) (A) (A) (A) (A)
                 (A) (A) (A) (A) (A) (A) (A) (A) (A) (A) (A) (A)
                 (A) (A) (A) (A) (A) (A) (A) (A) (A) (A) (A) (A)
                 (A) (A) (A) (A) (A) (A) (A) (A) (A)
       Virtual   (A) (A) (A) (A) (A) (A) (A) (A) (A) (A) (A) (A)
                 (A) (A) (A) (A) (A) (A) (A) (A) (A) (A) (A) (A)
                 (A) (A) (A) (A) (A) (A) (A) (A) (A) (A) (A) (A)
                 (A) (A) (A) (A) (A) (A) (A) (A) (A) (A) (A) (A)
                 (A) (A) (A) (A) (A) (A) (A) (A) (A) (A) (A) (A)
                 (A) (A) (A) (A) (A) (A) (A) (A) (A) (A) (A) (A)
                 (A) (A) (A) (A) (A) (A) (A) (A) (A) (A) (A) (A)
                 (A) (A) (A) (A) (A) (A) (A) (A) (A) (A) (A) (A)
                 (A) (A) (A) (A) (A) (A) (A) (A) (A) (A) (A) (A)
                 (A) (A) (A) (A) (A) (A) (A) (A) (A) (A) (A) (A)
                 (A) (A) (A) (A) (A) (A) (A) (A) (A) (A) (A) (A)
                 (A) (A) (A) (A) (A) (A) (A) (A) (A) (A)
 The electronic state of the initial guess is 1-A.
 Requested convergence on RMS density matrix=1.00D-04 within 128 cycles.
 Requested convergence on MAX density matrix=1.00D-02.
 Requested convergence on             energy=1.00D-02.
 No special actions if energy rises.
 SCF Done:  E(RB+HF-LYP) =  -2750.24881686     A.U. after    7 cycles
             Convg  =    0.5404D-04             -V/T =  2.0029
             S**2   =   0.0000

 **********************************************************************

            Population analysis using the SCF density.

 **********************************************************************

 Orbital symmetries:
       Occupied  (A) (A) (A) (A) (A) (A) (A) (A) (A) (A) (A) (A)
                 (A) (A) (A) (A) (A) (A) (A) (A) (A) (A) (A) (A)
                 (A) (A) (A) (A) (A) (A) (A) (A) (A) (A) (A) (A)
                 (A) (A) (A) (A) (A) (A) (A) (A) (A) (A) (A) (A)
                 (A) (A) (A) (A) (A) (A) (A) (A) (A)
       Virtual   (A) (A) (A) (A) (A) (A) (A) (A) (A) (A) (A) (A)
                 (A) (A) (A) (A) (A) (A) (A) (A) (A) (A) (A) (A)
                 (A) (A) (A) (A) (A) (A) (A) (A) (A) (A) (A) (A)
                 (A) (A) (A) (A) (A) (A) (A) (A) (A) (A) (A) (A)
                 (A) (A) (A) (A) (A) (A) (A) (A) (A) (A) (A) (A)
                 (A) (A) (A) (A) (A) (A) (A) (A) (A) (A) (A) (A)
                 (A) (A) (A) (A) (A) (A) (A) (A) (A) (A) (A) (A)
                 (A) (A) (A) (A) (A) (A) (A) (A) (A) (A) (A) (A)
                 (A) (A) (A) (A) (A) (A) (A) (A) (A) (A) (A) (A)
                 (A) (A) (A) (A) (A) (A) (A) (A) (A) (A) (A) (A)
                 (A) (A) (A) (A) (A) (A) (A) (A) (A) (A) (A) (A)
                 (A) (A) (A) (A) (A) (A) (A) (A) (A) (A)
 The electronic state is 1-A.
 Alpha  occ. eigenvalues -- -145.52377-145.50187-145.50181 -77.25156 -19.25913
 Alpha  occ. eigenvalues --  -19.25468 -19.21784 -19.21784 -19.21338 -15.59136
 Alpha  occ. eigenvalues --  -15.56985 -15.56981 -12.72324 -12.72320 -12.72294
 Alpha  occ. eigenvalues --  -12.70193 -12.70191 -12.70184 -12.70183 -12.70105
 Alpha  occ. eigenvalues --  -12.70103  -6.70244  -4.86598  -4.86590  -4.86029
 Alpha  occ. eigenvalues --   -1.96315  -1.94236  -1.94170  -1.24341  -1.23871
 Alpha  occ. eigenvalues --   -1.23774  -1.22785  -1.22081  -1.21722  -1.21646
 Alpha  occ. eigenvalues --   -1.21528  -1.21229  -1.10028  -1.07329  -1.00859
 Alpha  occ. eigenvalues --   -1.00726  -0.89081  -0.63094  -0.51342  -0.51078
 Alpha  occ. eigenvalues --   -0.50980  -0.49233  -0.48448  -0.46044  -0.43791
 Alpha  occ. eigenvalues --   -0.43558  -0.38833  -0.38645  -0.38610  -0.35304
 Alpha  occ. eigenvalues --   -0.33994  -0.31700
 Alpha virt. eigenvalues --   -0.20297  -0.18391  -0.17634  -0.12782  -0.12605
 Alpha virt. eigenvalues --   -0.10902  -0.09921  -0.09098  -0.08255  -0.07953
 Alpha virt. eigenvalues --   -0.07351  -0.06562  -0.06019  -0.05818  -0.04927
 Alpha virt. eigenvalues --   -0.04868  -0.04855  -0.04686  -0.04487  -0.04309
 Alpha virt. eigenvalues --   -0.04013  -0.03911  -0.03218  -0.02973  -0.02948
 Alpha virt. eigenvalues --   -0.02713  -0.01825  -0.00968   0.00846   0.01989
 Alpha virt. eigenvalues --    0.02246   0.03416   0.04332   0.04541   0.04867
 Alpha virt. eigenvalues --    0.05220   0.05245   0.06159   0.06286   0.07051
 Alpha virt. eigenvalues --    0.07070   0.07101   0.07500   0.07554   0.07792
 Alpha virt. eigenvalues --    0.08501   0.09367   0.10324   0.11201   0.11841
 Alpha virt. eigenvalues --    0.12314   0.14917   0.14935   0.16115   0.17401
 Alpha virt. eigenvalues --    0.18780   0.20644   0.21074   0.21100   0.23267
 Alpha virt. eigenvalues --    0.23556   0.23710   0.24622   0.25777   0.27280
 Alpha virt. eigenvalues --    0.27996   0.29797   0.31564   0.33549   0.33939
 Alpha virt. eigenvalues --    0.34434   0.36039   0.36678   0.38768   0.39282
 Alpha virt. eigenvalues --    0.41202   0.45563   0.46007   0.53538   0.54384
 Alpha virt. eigenvalues --    0.55427   0.62683   0.63181   0.63527   0.66204
 Alpha virt. eigenvalues --    0.81576   0.85394   0.90503   0.93082   0.99265
 Alpha virt. eigenvalues --    1.11592   1.11887   1.15489   1.16008   1.17641
 Alpha virt. eigenvalues --    1.18028   1.19908   1.19989   1.20436   1.22324
 Alpha virt. eigenvalues --    1.22902   1.27532   1.31246   1.33925   1.38921
 Alpha virt. eigenvalues --    1.45491   1.46502   1.49258   1.57008   1.58131
 Alpha virt. eigenvalues --    1.60024   1.64334   1.68044   1.71387   1.73211
 Alpha virt. eigenvalues --    1.76841   1.78158   1.78944   1.81289   1.84874
 Alpha virt. eigenvalues --    1.86383   1.87063   1.89495   1.90268   1.91241
 Alpha virt. eigenvalues --    1.92847   1.93654   1.99364   2.00501   2.11306
 Alpha virt. eigenvalues --    2.21640   2.24604   2.36563   2.52300   2.56822
 Alpha virt. eigenvalues --    3.07035   3.54028   4.03167   4.09900   4.14248
 Alpha virt. eigenvalues --    4.19203   4.32864
          Condensed to atoms (all electrons):
              1          2          3          4          5          6
     1  O    8.936379   0.050118   0.013864  -0.171785   0.065827   0.050108
     2  O    0.050118   8.964577   0.074833  -0.177569   0.060495   0.043492
     3  Ca   0.013864   0.074833  18.362214   0.026182  -0.045064   0.074833
     4  P   -0.171785  -0.177569   0.026182  14.404058   0.017372  -0.177562
     5  Ca   0.065827   0.060495  -0.045064   0.017372  18.339330   0.004948
     6  O    0.050108   0.043492   0.074833  -0.177562   0.004948   8.964557
     7  O    0.022388   0.029634   0.088561  -0.024588   0.038152   0.029635
     8  Ca   0.065821   0.004944  -0.045054   0.017380  -0.047891   0.060486
     9  O    0.002011  -0.006644  -0.033247   0.003311   0.104093  -0.006647
              7          8          9
     1  O    0.022388   0.065821   0.002011
     2  O    0.029634   0.004944  -0.006644
     3  Ca   0.088561  -0.045054  -0.033247
     4  P   -0.024588   0.017380   0.003311
     5  Ca   0.038152  -0.047891   0.104093
     6  O    0.029635   0.060486  -0.006647
     7  O    8.604596   0.038156  -0.100999
     8  Ca   0.038156  18.339286   0.104093
     9  O   -0.100999   0.104093   8.577629
 Mulliken atomic charges:
              1
     1  O   -1.034731
     2  O   -1.043879
     3  Ca   1.482879
     4  P    1.083201
     5  Ca   1.462738
     6  O   -1.043851
     7  O   -0.725534
     8  Ca   1.462778
     9  O   -0.643601
 Sum of Mulliken charges=   1.00000
 Atomic charges with hydrogens summed into heavy atoms:
              1
     1  O   -1.034731
     2  O   -1.043879
     3  Ca   1.482879
     4  P    1.083201
     5  Ca   1.462738
     6  O   -1.043851
     7  O   -0.725534
     8  Ca   1.462778
     9  O   -0.643601
 Sum of Mulliken charges=   1.00000
 Electronic spatial extent (au):  <R**2>=  1729.1589
 Charge=     1.0000 electrons
 Dipole moment (field-independent basis, Debye):
    X=    -0.9499    Y=     0.0006    Z=     6.1990  Tot=     6.2713
 Quadrupole moment (field-independent basis, Debye-Ang):
   XX=   -63.7494   YY=   -44.2182   ZZ=   -80.5085
   XY=     0.0083   XZ=    28.3322   YZ=    -0.0084
 Traceless Quadrupole moment (field-independent basis, Debye-Ang):
   XX=    -0.9240   YY=    18.6072   ZZ=   -17.6832
   XY=     0.0083   XZ=    28.3322   YZ=    -0.0084
 Octapole moment (field-independent basis, Debye-Ang**2):
  XXX=    20.0959  YYY=     0.0222  ZZZ=    45.2592  XYY=   -73.8327
  XXY=    -0.0170  XXZ=    28.1208  XZZ=    39.2259  YZZ=     0.0019
  YYZ=     4.8566  XYZ=     0.0165
 Hexadecapole moment (field-independent basis, Debye-Ang**3):
 XXXX=  -746.4069 YYYY=  -401.4562 ZZZZ=  -673.8020 XXXY=     0.0475
 XXXZ=   157.8306 YYYX=     0.0321 YYYZ=    -0.0405 ZZZX=   109.9346
 ZZZY=    -0.0302 XXYY=  -182.4555 XXZZ=  -218.9052 YYZZ=  -189.6666
 XXYZ=    -0.0150 YYXZ=    34.9975 ZZXY=     0.0085
 N-N= 1.104862952939D+03 E-N=-8.710380626570D+03  KE= 2.742230813459D+03
 Merz-Kollman atomic radii used.
 Read replacement radii for each type of atom:
 Rad(20) =   1.188000000000D+00
 Atom Element Radius
    1     8    1.40
    2     8    1.40
    3    20    1.19
    4    15    1.80
    5    20    1.19
    6     8    1.40
    7     8    1.40
    8    20    1.19
    9     8    1.40

 **********************************************************************

            Electrostatic Properties Using The SCF Density

 **********************************************************************

       Atomic Center    1 is at  -0.588943 -0.000213 -1.656620
       Atomic Center    2 is at   1.238061  1.285078 -0.440570
       Atomic Center    3 is at   1.625727  0.000084  1.390330
       Atomic Center    4 is at   1.065827 -0.000381 -1.530430
       Atomic Center    5 is at  -1.054085  1.671962 -0.138870
       Atomic Center    6 is at   1.237794 -1.285462 -0.440170
       Atomic Center    7 is at  -0.609073  0.000287  1.521310
       Atomic Center    8 is at  -1.054540 -1.671808 -0.138330
       Atomic Center    9 is at  -2.069023  0.000432  1.102780
     736 points will be used for fitting atomic charges
 Fitting point charges to eletrostatic potential
 Charges from ESP fit, RMS=   0.00664 RRMS=   0.04145:
 Charge=   1.00000 Dipole=    -0.8015     0.0006     6.0414 Tot=     6.0943
              1
     1  O   -0.944990
     2  O   -0.990321
     3  Ca   1.651084
     4  P    0.545301
     5  Ca   1.674916
     6  O   -0.990268
     7  O   -0.930418
     8  Ca   1.674922
     9  O   -0.690226
 -----------------------------------------------------------------

              Electrostatic Properties (Atomic Units)

 -----------------------------------------------------------------
    Center     Electric         -------- Electric Field --------
               Potential          X             Y             Z
 -----------------------------------------------------------------
    1 Atom    -22.248538
    2 Atom    -22.248595
    3 Atom    -80.016358
    4 Atom    -53.962542
    5 Atom    -80.038944
    6 Atom    -22.248572
    7 Atom    -22.204661
    8 Atom    -80.038927
    9 Atom    -22.216132
 -----------------------------------------------------------------
 1\1\GINC-N028\SP\RB3LYP\6-31+G(d,p)\Ca3O5P1(1+)\TIMN\12-Jun-2015\0\\# 
 b3lyp/6-31+G(d,p) int=ultrafine pop=(ReadRadii,MK)\\mol_17.28.22.pdbcc
 cc_plusQ.z58545.zip.xyz\\1,1\O,0,-0.58894,-0.00022,-1.65662\O,0,1.2380
 5,1.28509,-0.44057\Ca,0,1.62573,0.0001,1.39033\P,0,1.06583,-0.00037,-1
 .53043\Ca,0,-1.0541,1.67195,-0.13887\O,0,1.23781,-1.28545,-0.44017\O,0
 ,-0.60907,0.00028,1.52131\Ca,0,-1.05452,-1.67182,-0.13833\O,0,-2.06902
 ,0.00041,1.10278\\Version=EM64T-G03RevE.01\State=1-A\HF=-2750.2488169\
 RMSD=5.404e-05\Thermal=0.\Dipole=-0.3737272,0.0002311,2.4388557\PG=C01
  [X(Ca3O5P1)]\\@


       THE DEATH-KNELL OF THE ATOM

 SO THE ATOMS IN TURN, WE NOW CLEARLY DISCERN,
 FLY TO BITS WITH THE UTMOST FACILITY;
 THEY WEND ON THEIR WAY, AND, IN SPLITTING, DISPLAY
 AN ABSOLUTE LACK OF STABILITY.

          SIR WM. RAMSAY, 1905
 Job cpu time:  0 days  0 hours  1 minutes 57.7 seconds.
 File lengths (MBytes):  RWF=     36 Int=      0 D2E=      0 Chk=     11 Scr=      1
 Normal termination of Gaussian 03 at Fri Jun 12 18:08:33 2015.
