 Entering Gaussian System, Link 0=/home/timn/tmp/g03.e01/g03
 Input=mol_17.26.24.pdbccc_plusQ.z58383.zip.xyz.gjf
 Output=mol_17.26.24.pdbccc_plusQ.z58383.zip.xyz.out
 Initial command:
 /home/timn/tmp/g03.e01/l1.exe /home/timn/tmp/g03.e01/Gau-15050.inp -scrdir=/home/timn/tmp/g03.e01/
 Default is to use a total of   2 processors:
                                2 via shared-memory
                                1 via Linda
 Entering Link 1 = /home/timn/tmp/g03.e01/l1.exe PID=     15051.
  
 Copyright (c) 1988,1990,1992,1993,1995,1998,2003,2004,2007, Gaussian, Inc.
                  All Rights Reserved.
  
 This is the Gaussian(R) 03 program.  It is based on the
 the Gaussian(R) 98 system (copyright 1998, Gaussian, Inc.),
 the Gaussian(R) 94 system (copyright 1995, Gaussian, Inc.),
 the Gaussian 92(TM) system (copyright 1992, Gaussian, Inc.),
 the Gaussian 90(TM) system (copyright 1990, Gaussian, Inc.),
 the Gaussian 88(TM) system (copyright 1988, Gaussian, Inc.),
 the Gaussian 86(TM) system (copyright 1986, Carnegie Mellon
 University), and the Gaussian 82(TM) system (copyright 1983,
 Carnegie Mellon University). Gaussian is a federally registered
 trademark of Gaussian, Inc.
  
 This software contains proprietary and confidential information,
 including trade secrets, belonging to Gaussian, Inc.
  
 This software is provided under written license and may be
 used, copied, transmitted, or stored only in accord with that
 written license.
  
 The following legend is applicable only to US Government
 contracts under FAR:
  
                    RESTRICTED RIGHTS LEGEND
  
 Use, reproduction and disclosure by the US Government is
 subject to restrictions as set forth in subparagraphs (a)
 and (c) of the Commercial Computer Software - Restricted
 Rights clause in FAR 52.227-19.
  
 Gaussian, Inc.
 340 Quinnipiac St., Bldg. 40, Wallingford CT 06492
  
  
 ---------------------------------------------------------------
 Warning -- This program may not be used in any manner that
 competes with the business of Gaussian, Inc. or will provide
 assistance to any competitor of Gaussian, Inc.  The licensee
 of this program is prohibited from giving any competitor of
 Gaussian, Inc. access to this program.  By using this program,
 the user acknowledges that Gaussian, Inc. is engaged in the
 business of creating and licensing software in the field of
 computational chemistry and represents and warrants to the
 licensee that it is not a competitor of Gaussian, Inc. and that
 it will not use this program in any manner prohibited above.
 ---------------------------------------------------------------
  

 Cite this work as:
 Gaussian 03, Revision E.01,
 M. J. Frisch, G. W. Trucks, H. B. Schlegel, G. E. Scuseria, 
 M. A. Robb, J. R. Cheeseman, J. A. Montgomery, Jr., T. Vreven, 
 K. N. Kudin, J. C. Burant, J. M. Millam, S. S. Iyengar, J. Tomasi, 
 V. Barone, B. Mennucci, M. Cossi, G. Scalmani, N. Rega, 
 G. A. Petersson, H. Nakatsuji, M. Hada, M. Ehara, K. Toyota, 
 R. Fukuda, J. Hasegawa, M. Ishida, T. Nakajima, Y. Honda, O. Kitao, 
 H. Nakai, M. Klene, X. Li, J. E. Knox, H. P. Hratchian, J. B. Cross, 
 V. Bakken, C. Adamo, J. Jaramillo, R. Gomperts, R. E. Stratmann, 
 O. Yazyev, A. J. Austin, R. Cammi, C. Pomelli, J. W. Ochterski, 
 P. Y. Ayala, K. Morokuma, G. A. Voth, P. Salvador, J. J. Dannenberg, 
 V. G. Zakrzewski, S. Dapprich, A. D. Daniels, M. C. Strain, 
 O. Farkas, D. K. Malick, A. D. Rabuck, K. Raghavachari, 
 J. B. Foresman, J. V. Ortiz, Q. Cui, A. G. Baboul, S. Clifford, 
 J. Cioslowski, B. B. Stefanov, G. Liu, A. Liashenko, P. Piskorz, 
 I. Komaromi, R. L. Martin, D. J. Fox, T. Keith, M. A. Al-Laham, 
 C. Y. Peng, A. Nanayakkara, M. Challacombe, P. M. W. Gill, 
 B. Johnson, W. Chen, M. W. Wong, C. Gonzalez, and J. A. Pople, 
 Gaussian, Inc., Wallingford CT, 2004.
 
 ******************************************
 Gaussian 03:  EM64T-G03RevE.01 11-Sep-2007
                12-Jun-2015 
 ******************************************
 %nproc=2
 Will use up to    2 processors via shared memory.
 Default route:  MP2=Direct MaxDisk=2000MB
 ----------------------------------------------------
 # b3lyp/6-31+G(d,p) int=ultrafine pop=(ReadRadii,MK)
 ----------------------------------------------------

 Warning!  SCF SP cutoffs with diffuse functions may be unreliable.
 Consider SCF=Tight

 1/38=1/1;
 2/17=6,18=5,40=1/2;
 3/5=1,6=6,7=111,11=2,16=1,25=1,30=1,74=-5,75=5/1,2,3;
 4//1;
 5/5=2,32=1,38=5/2;
 6/7=2,8=2,9=2,10=2,15=8,20=101,28=1/1,2;
 99/5=1,9=1/99;
 ----------------------------------------
 mol_17.26.24.pdbccc_plusQ.z58383.zip.xyz
 ----------------------------------------
 Symbolic Z-matrix:
 Charge =  1 Multiplicity = 1
 O                    -0.66818  -1.25884   0.97605 
 O                     2.06056   0.00031  -0.10131 
 O                     1.62824  -0.00323   1.36483 
 Ca                    0.72133  -1.68303  -0.84845 
 O                    -0.51128   0.004    -1.75451 
 Ca                   -2.16472   0.00062  -0.27899 
 O                    -0.66811   1.25434   0.98179 
 P                    -0.01913  -0.00424   1.84208 
 Ca                    0.72125   1.68695  -0.84086 
 
                          Input orientation:                          
 ---------------------------------------------------------------------
 Center     Atomic     Atomic              Coordinates (Angstroms)
 Number     Number      Type              X           Y           Z
 ---------------------------------------------------------------------
    1          8             0       -0.668180   -1.258840    0.976050
    2          8             0        2.060560    0.000310   -0.101310
    3          8             0        1.628240   -0.003230    1.364830
    4         20             0        0.721330   -1.683030   -0.848450
    5          8             0       -0.511280    0.004000   -1.754510
    6         20             0       -2.164720    0.000620   -0.278990
    7          8             0       -0.668110    1.254340    0.981790
    8         15             0       -0.019130   -0.004240    1.842080
    9         20             0        0.721250    1.686950   -0.840860
 ---------------------------------------------------------------------
                    Distance matrix (angstroms):
                    1          2          3          4          5
     1  O    0.000000
     2  O    3.192520   0.000000
     3  O    2.645988   1.528555   0.000000
     4  Ca   2.332268   2.277145   2.922811   0.000000
     5  O    3.012531   3.057359   3.782576   2.277354   0.000000
     6  Ca   2.324004   4.229014   4.133849   3.389432   2.216085
     7  O    2.513187   3.192387   2.646021   3.729405   3.012521
     8  P    1.656893   2.846383   1.715108   3.256619   3.630116
     9  Ca   3.729525   2.277156   2.923082   3.369989   2.277325
                    6          7          8          9
     6  Ca   0.000000
     7  O    2.324053   0.000000
     8  P    3.017038   1.656894   0.000000
     9  Ca   3.389429   2.332279   3.256755   0.000000
 Stoichiometry    Ca3O5P(1+)
 Framework group  C1[X(Ca3O5P)]
 Deg. of freedom    21
 Full point group                 C1
 Largest Abelian subgroup         C1      NOp   1
 Largest concise Abelian subgroup C1      NOp   1
                         Standard orientation:                         
 ---------------------------------------------------------------------
 Center     Atomic     Atomic              Coordinates (Angstroms)
 Number     Number      Type              X           Y           Z
 ---------------------------------------------------------------------
    1          8             0       -0.668170   -1.258844    0.976050
    2          8             0        2.060559    0.000329   -0.101310
    3          8             0        1.628239   -0.003215    1.364830
    4         20             0        0.721343   -1.683022   -0.848450
    5          8             0       -0.511281    0.003997   -1.754510
    6         20             0       -2.164721    0.000603   -0.278990
    7          8             0       -0.668121    1.254336    0.981790
    8         15             0       -0.019131   -0.004239    1.842080
    9         20             0        0.721235    1.686958   -0.840860
 ---------------------------------------------------------------------
 Rotational constants (GHZ):      0.9146978      0.7987520      0.7957780
 Standard basis: 6-31+G(d,p) (6D, 7F)
 There are   199 symmetry adapted basis functions of A   symmetry.
 Integral buffers will be    131072 words long.
 Raffenetti 2 integral format.
 Two-electron integral symmetry is turned on.
   199 basis functions,   456 primitive gaussians,   199 cartesian basis functions
    57 alpha electrons       57 beta electrons
       nuclear repulsion energy      1092.5025560073 Hartrees.
 NAtoms=    9 NActive=    9 NUniq=    9 SFac= 7.50D-01 NAtFMM=   80 NAOKFM=F Big=F
 One-electron integrals computed using PRISM.
 NBasis=   199 RedAO= T  NBF=   199
 NBsUse=   199 1.00D-06 NBFU=   199
 Harris functional with IExCor=  402 diagonalized for initial guess.
 ExpMin= 7.10D-03 ExpMax= 3.53D+04 ExpMxC= 5.30D+03 IAcc=3 IRadAn=         5 AccDes= 0.00D+00
 HarFok:  IExCor= 402 AccDes= 0.00D+00 IRadAn=         5 IDoV=1
 ScaDFX=  1.000000  1.000000  1.000000  1.000000
 Initial guess orbital symmetries:
       Occupied  (A) (A) (A) (A) (A) (A) (A) (A) (A) (A) (A) (A)
                 (A) (A) (A) (A) (A) (A) (A) (A) (A) (A) (A) (A)
                 (A) (A) (A) (A) (A) (A) (A) (A) (A) (A) (A) (A)
                 (A) (A) (A) (A) (A) (A) (A) (A) (A) (A) (A) (A)
                 (A) (A) (A) (A) (A) (A) (A) (A) (A)
       Virtual   (A) (A) (A) (A) (A) (A) (A) (A) (A) (A) (A) (A)
                 (A) (A) (A) (A) (A) (A) (A) (A) (A) (A) (A) (A)
                 (A) (A) (A) (A) (A) (A) (A) (A) (A) (A) (A) (A)
                 (A) (A) (A) (A) (A) (A) (A) (A) (A) (A) (A) (A)
                 (A) (A) (A) (A) (A) (A) (A) (A) (A) (A) (A) (A)
                 (A) (A) (A) (A) (A) (A) (A) (A) (A) (A) (A) (A)
                 (A) (A) (A) (A) (A) (A) (A) (A) (A) (A) (A) (A)
                 (A) (A) (A) (A) (A) (A) (A) (A) (A) (A) (A) (A)
                 (A) (A) (A) (A) (A) (A) (A) (A) (A) (A) (A) (A)
                 (A) (A) (A) (A) (A) (A) (A) (A) (A) (A) (A) (A)
                 (A) (A) (A) (A) (A) (A) (A) (A) (A) (A) (A) (A)
                 (A) (A) (A) (A) (A) (A) (A) (A) (A) (A)
 The electronic state of the initial guess is 1-A.
 Requested convergence on RMS density matrix=1.00D-04 within 128 cycles.
 Requested convergence on MAX density matrix=1.00D-02.
 Requested convergence on             energy=1.00D-02.
 No special actions if energy rises.
 SCF Done:  E(RB+HF-LYP) =  -2750.21013002     A.U. after    8 cycles
             Convg  =    0.7988D-04             -V/T =  2.0029
             S**2   =   0.0000

 **********************************************************************

            Population analysis using the SCF density.

 **********************************************************************

 Orbital symmetries:
       Occupied  (A) (A) (A) (A) (A) (A) (A) (A) (A) (A) (A) (A)
                 (A) (A) (A) (A) (A) (A) (A) (A) (A) (A) (A) (A)
                 (A) (A) (A) (A) (A) (A) (A) (A) (A) (A) (A) (A)
                 (A) (A) (A) (A) (A) (A) (A) (A) (A) (A) (A) (A)
                 (A) (A) (A) (A) (A) (A) (A) (A) (A)
       Virtual   (A) (A) (A) (A) (A) (A) (A) (A) (A) (A) (A) (A)
                 (A) (A) (A) (A) (A) (A) (A) (A) (A) (A) (A) (A)
                 (A) (A) (A) (A) (A) (A) (A) (A) (A) (A) (A) (A)
                 (A) (A) (A) (A) (A) (A) (A) (A) (A) (A) (A) (A)
                 (A) (A) (A) (A) (A) (A) (A) (A) (A) (A) (A) (A)
                 (A) (A) (A) (A) (A) (A) (A) (A) (A) (A) (A) (A)
                 (A) (A) (A) (A) (A) (A) (A) (A) (A) (A) (A) (A)
                 (A) (A) (A) (A) (A) (A) (A) (A) (A) (A) (A) (A)
                 (A) (A) (A) (A) (A) (A) (A) (A) (A) (A) (A) (A)
                 (A) (A) (A) (A) (A) (A) (A) (A) (A) (A) (A) (A)
                 (A) (A) (A) (A) (A) (A) (A) (A) (A) (A) (A) (A)
                 (A) (A) (A) (A) (A) (A) (A) (A) (A) (A)
 The electronic state is 1-A.
 Alpha  occ. eigenvalues -- -145.50884-145.49976-145.49972 -77.26615 -19.28663
 Alpha  occ. eigenvalues --  -19.25250 -19.22900 -19.22900 -19.16862 -15.57721
 Alpha  occ. eigenvalues --  -15.56794 -15.56791 -12.70927 -12.70892 -12.70847
 Alpha  occ. eigenvalues --  -12.69992 -12.69992 -12.69964 -12.69964 -12.69939
 Alpha  occ. eigenvalues --  -12.69938  -6.71713  -4.88132  -4.88009  -4.87486
 Alpha  occ. eigenvalues --   -1.95029  -1.94084  -1.94029  -1.23114  -1.22779
 Alpha  occ. eigenvalues --   -1.22390  -1.22275  -1.21604  -1.21582  -1.21354
 Alpha  occ. eigenvalues --   -1.21290  -1.20980  -1.13416  -1.06849  -1.02233
 Alpha  occ. eigenvalues --   -0.93401  -0.91718  -0.65001  -0.55628  -0.52565
 Alpha  occ. eigenvalues --   -0.51437  -0.48107  -0.46970  -0.44014  -0.42107
 Alpha  occ. eigenvalues --   -0.39435  -0.38483  -0.37012  -0.36055  -0.35625
 Alpha  occ. eigenvalues --   -0.35475  -0.32663
 Alpha virt. eigenvalues --   -0.20696  -0.18356  -0.17805  -0.13794  -0.12910
 Alpha virt. eigenvalues --   -0.11311  -0.10839  -0.09447  -0.09264  -0.08194
 Alpha virt. eigenvalues --   -0.07390  -0.06436  -0.06182  -0.05880  -0.04928
 Alpha virt. eigenvalues --   -0.04871  -0.04853  -0.04719  -0.04374  -0.04014
 Alpha virt. eigenvalues --   -0.03938  -0.03680  -0.03235  -0.03051  -0.02635
 Alpha virt. eigenvalues --   -0.01960  -0.01940  -0.00642   0.01045   0.01710
 Alpha virt. eigenvalues --    0.01807   0.02569   0.03689   0.04000   0.04403
 Alpha virt. eigenvalues --    0.05328   0.05874   0.06017   0.06112   0.06217
 Alpha virt. eigenvalues --    0.06917   0.07103   0.07178   0.07465   0.07989
 Alpha virt. eigenvalues --    0.09563   0.09838   0.10624   0.10641   0.11490
 Alpha virt. eigenvalues --    0.12559   0.14081   0.14995   0.15602   0.16927
 Alpha virt. eigenvalues --    0.19366   0.20481   0.20808   0.21231   0.22495
 Alpha virt. eigenvalues --    0.23380   0.23814   0.24449   0.25307   0.26123
 Alpha virt. eigenvalues --    0.27600   0.30175   0.32487   0.32747   0.34302
 Alpha virt. eigenvalues --    0.34551   0.35389   0.36504   0.38357   0.38832
 Alpha virt. eigenvalues --    0.38840   0.42807   0.43594   0.46630   0.51112
 Alpha virt. eigenvalues --    0.53780   0.60041   0.61912   0.62216   0.65531
 Alpha virt. eigenvalues --    0.79111   0.86459   0.87049   0.92121   0.95124
 Alpha virt. eigenvalues --    1.10622   1.12082   1.13853   1.14928   1.16138
 Alpha virt. eigenvalues --    1.18850   1.18953   1.20636   1.21331   1.22922
 Alpha virt. eigenvalues --    1.23565   1.24919   1.26488   1.32076   1.32187
 Alpha virt. eigenvalues --    1.38037   1.49646   1.51836   1.55785   1.57811
 Alpha virt. eigenvalues --    1.61546   1.67707   1.69661   1.70082   1.71654
 Alpha virt. eigenvalues --    1.76314   1.78348   1.79826   1.84531   1.85769
 Alpha virt. eigenvalues --    1.87737   1.88694   1.90845   1.92752   1.93596
 Alpha virt. eigenvalues --    1.95976   1.96560   1.99113   2.01821   2.09524
 Alpha virt. eigenvalues --    2.17169   2.20381   2.36263   2.52201   2.57209
 Alpha virt. eigenvalues --    3.06305   3.51488   4.01891   4.10222   4.14152
 Alpha virt. eigenvalues --    4.21347   4.38510
          Condensed to atoms (all electrons):
              1          2          3          4          5          6
     1  O    8.964747   0.009216   0.025341   0.037839   0.020356   0.093126
     2  O    0.009216   8.470336  -0.087903   0.104473   0.023435  -0.023488
     3  O    0.025341  -0.087903   8.634478  -0.025981  -0.011800   0.062781
     4  Ca   0.037839   0.104473  -0.025981  18.350571   0.116707  -0.059925
     5  O    0.020356   0.023435  -0.011800   0.116707   8.854582   0.142456
     6  Ca   0.093126  -0.023488   0.062781  -0.059925   0.142456  18.396958
     7  O    0.031543   0.009204   0.025344   0.005392   0.020350   0.093124
     8  P   -0.138841   0.040646  -0.151959   0.019671  -0.024206  -0.065786
     9  Ca   0.005391   0.104478  -0.025994  -0.038591   0.116716  -0.059917
              7          8          9
     1  O    0.031543  -0.138841   0.005391
     2  O    0.009204   0.040646   0.104478
     3  O    0.025344  -0.151959  -0.025994
     4  Ca   0.005392   0.019671  -0.038591
     5  O    0.020350  -0.024206   0.116716
     6  Ca   0.093124  -0.065786  -0.059917
     7  O    8.964744  -0.138810   0.037828
     8  P   -0.138810  14.389274   0.019651
     9  Ca   0.037828   0.019651  18.350571
 Mulliken atomic charges:
              1
     1  O   -1.048719
     2  O   -0.650398
     3  O   -0.444307
     4  Ca   1.489843
     5  O   -1.258597
     6  Ca   1.420671
     7  O   -1.048720
     8  P    1.050359
     9  Ca   1.489867
 Sum of Mulliken charges=   1.00000
 Atomic charges with hydrogens summed into heavy atoms:
              1
     1  O   -1.048719
     2  O   -0.650398
     3  O   -0.444307
     4  Ca   1.489843
     5  O   -1.258597
     6  Ca   1.420671
     7  O   -1.048720
     8  P    1.050359
     9  Ca   1.489867
 Sum of Mulliken charges=   1.00000
 Electronic spatial extent (au):  <R**2>=  1758.1148
 Charge=     1.0000 electrons
 Dipole moment (field-independent basis, Debye):
    X=    -5.1175    Y=     0.0193    Z=    -8.2826  Tot=     9.7360
 Quadrupole moment (field-independent basis, Debye-Ang):
   XX=   -52.5681   YY=   -42.2637   ZZ=   -90.5997
   XY=     0.0190   XZ=    -8.8415   YZ=     0.1090
 Traceless Quadrupole moment (field-independent basis, Debye-Ang):
   XX=     9.2424   YY=    19.5468   ZZ=   -28.7892
   XY=     0.0190   XZ=    -8.8415   YZ=     0.1090
 Octapole moment (field-independent basis, Debye-Ang**2):
  XXX=  -119.0116  YYY=     0.4314  ZZZ=    -9.5683  XYY=    43.0078
  XXY=     0.0658  XXZ=   -30.3044  XZZ=    17.2518  YZZ=    -0.2573
  YYZ=   -61.9916  XYZ=     0.0587
 Hexadecapole moment (field-independent basis, Debye-Ang**3):
 XXXX=  -580.3486 YYYY=  -389.6250 ZZZZ=  -821.8049 XXXY=     0.0030
 XXXZ=    -2.7814 YYYX=     0.1703 YYYZ=     0.3585 ZZZX=   -49.2478
 ZZZY=     0.6409 XXYY=  -182.6661 XXZZ=  -244.1694 YYZZ=  -181.6714
 XXYZ=     0.1470 YYXZ=   -25.4361 ZZXY=    -0.0022
 N-N= 1.092502556007D+03 E-N=-8.686001783036D+03  KE= 2.742246092531D+03
 Merz-Kollman atomic radii used.
 Read replacement radii for each type of atom:
 Rad(20) =   1.188000000000D+00
 Atom Element Radius
    1     8    1.40
    2     8    1.40
    3     8    1.40
    4    20    1.19
    5     8    1.40
    6    20    1.19
    7     8    1.40
    8    15    1.80
    9    20    1.19

 **********************************************************************

            Electrostatic Properties Using The SCF Density

 **********************************************************************

       Atomic Center    1 is at  -0.668170 -1.258844  0.976050
       Atomic Center    2 is at   2.060559  0.000329 -0.101310
       Atomic Center    3 is at   1.628239 -0.003215  1.364830
       Atomic Center    4 is at   0.721343 -1.683022 -0.848450
       Atomic Center    5 is at  -0.511281  0.003997 -1.754510
       Atomic Center    6 is at  -2.164721  0.000603 -0.278990
       Atomic Center    7 is at  -0.668121  1.254336  0.981790
       Atomic Center    8 is at  -0.019131 -0.004239  1.842080
       Atomic Center    9 is at   0.721235  1.686958 -0.840860
     733 points will be used for fitting atomic charges
 Fitting point charges to eletrostatic potential
 Charges from ESP fit, RMS=   0.00503 RRMS=   0.03143:
 Charge=   1.00000 Dipole=    -5.1514     0.0174    -8.3774 Tot=     9.8345
              1
     1  O   -0.910038
     2  O   -0.768298
     3  O   -0.227833
     4  Ca   1.694771
     5  O   -1.636284
     6  Ca   1.667418
     7  O   -0.911142
     8  P    0.396060
     9  Ca   1.695346
 -----------------------------------------------------------------

              Electrostatic Properties (Atomic Units)

 -----------------------------------------------------------------
    Center     Electric         -------- Electric Field --------
               Potential          X             Y             Z
 -----------------------------------------------------------------
    1 Atom    -22.238451
    2 Atom    -22.209759
    3 Atom    -22.182530
    4 Atom    -80.040663
    5 Atom    -22.309257
    6 Atom    -80.032489
    7 Atom    -22.238447
    8 Atom    -53.952857
    9 Atom    -80.040662
 -----------------------------------------------------------------
 1\1\GINC-N035\SP\RB3LYP\6-31+G(d,p)\Ca3O5P1(1+)\TIMN\12-Jun-2015\0\\# 
 b3lyp/6-31+G(d,p) int=ultrafine pop=(ReadRadii,MK)\\mol_17.26.24.pdbcc
 c_plusQ.z58383.zip.xyz\\1,1\O,0,-0.66818,-1.25884,0.97605\O,0,2.06056,
 0.00031,-0.10131\O,0,1.62824,-0.00323,1.36483\Ca,0,0.72133,-1.68303,-0
 .84845\O,0,-0.51128,0.004,-1.75451\Ca,0,-2.16472,0.00062,-0.27899\O,0,
 -0.66811,1.25434,0.98179\P,0,-0.01913,-0.00424,1.84208\Ca,0,0.72125,1.
 68695,-0.84086\\Version=EM64T-G03RevE.01\State=1-A\HF=-2750.21013\RMSD
 =7.988e-05\Thermal=0.\Dipole=-2.01337,0.0076093,-3.258609\PG=C01 [X(Ca
 3O5P1)]\\@


 IF I AM NOT FOR MYSELF, WHO WILL BE?
 BUT IF I AM ONLY FOR MYSELF, WHAT AM I?
 THOUGH A SEEKER SINCE MY BIRTH,
 HERE IS ALL I'VE LEARNED ON EARTH,
 THIS IS THE GIST OF WHAT I KNOW:
 GIVE ADVICE AND BUY A FOE.

 PRESSED FOR RULES AND VERITIES,
 ALL I RECOLLECT ARE THESE:
 FEED A COLD TO STARVE A FEVER,
 ARGUE WITH NO TRUE-BELIEVER.
 THINK-TOO-LONG IS NEVER-ACT,
 SCRATCH A MYTH AND FIND A FACT.

 STITCH IN TIME SAVES TWENTY STITCHES,
 GIVE THE RICH TO PLEASE THEM, RICHES.
 GIVE TO LOVE YOU HEARTH AND HALL,
 BUT DO NOT GIVE ADVICE AT ALL.

                                  -- HILLEL
 Job cpu time:  0 days  0 hours  2 minutes 13.4 seconds.
 File lengths (MBytes):  RWF=     36 Int=      0 D2E=      0 Chk=     11 Scr=      1
 Normal termination of Gaussian 03 at Fri Jun 12 18:00:37 2015.
