 Entering Gaussian System, Link 0=/home/timn/tmp/g03.e01/g03
 Input=mol_17.22.49.pdbcc_plusQ.z58199.zip.xyz.gjf
 Output=mol_17.22.49.pdbcc_plusQ.z58199.zip.xyz.out
 Initial command:
 /home/timn/tmp/g03.e01/l1.exe /home/timn/tmp/g03.e01/Gau-18030.inp -scrdir=/home/timn/tmp/g03.e01/
 Default is to use a total of   2 processors:
                                2 via shared-memory
                                1 via Linda
 Entering Link 1 = /home/timn/tmp/g03.e01/l1.exe PID=     18031.
  
 Copyright (c) 1988,1990,1992,1993,1995,1998,2003,2004,2007, Gaussian, Inc.
                  All Rights Reserved.
  
 This is the Gaussian(R) 03 program.  It is based on the
 the Gaussian(R) 98 system (copyright 1998, Gaussian, Inc.),
 the Gaussian(R) 94 system (copyright 1995, Gaussian, Inc.),
 the Gaussian 92(TM) system (copyright 1992, Gaussian, Inc.),
 the Gaussian 90(TM) system (copyright 1990, Gaussian, Inc.),
 the Gaussian 88(TM) system (copyright 1988, Gaussian, Inc.),
 the Gaussian 86(TM) system (copyright 1986, Carnegie Mellon
 University), and the Gaussian 82(TM) system (copyright 1983,
 Carnegie Mellon University). Gaussian is a federally registered
 trademark of Gaussian, Inc.
  
 This software contains proprietary and confidential information,
 including trade secrets, belonging to Gaussian, Inc.
  
 This software is provided under written license and may be
 used, copied, transmitted, or stored only in accord with that
 written license.
  
 The following legend is applicable only to US Government
 contracts under FAR:
  
                    RESTRICTED RIGHTS LEGEND
  
 Use, reproduction and disclosure by the US Government is
 subject to restrictions as set forth in subparagraphs (a)
 and (c) of the Commercial Computer Software - Restricted
 Rights clause in FAR 52.227-19.
  
 Gaussian, Inc.
 340 Quinnipiac St., Bldg. 40, Wallingford CT 06492
  
  
 ---------------------------------------------------------------
 Warning -- This program may not be used in any manner that
 competes with the business of Gaussian, Inc. or will provide
 assistance to any competitor of Gaussian, Inc.  The licensee
 of this program is prohibited from giving any competitor of
 Gaussian, Inc. access to this program.  By using this program,
 the user acknowledges that Gaussian, Inc. is engaged in the
 business of creating and licensing software in the field of
 computational chemistry and represents and warrants to the
 licensee that it is not a competitor of Gaussian, Inc. and that
 it will not use this program in any manner prohibited above.
 ---------------------------------------------------------------
  

 Cite this work as:
 Gaussian 03, Revision E.01,
 M. J. Frisch, G. W. Trucks, H. B. Schlegel, G. E. Scuseria, 
 M. A. Robb, J. R. Cheeseman, J. A. Montgomery, Jr., T. Vreven, 
 K. N. Kudin, J. C. Burant, J. M. Millam, S. S. Iyengar, J. Tomasi, 
 V. Barone, B. Mennucci, M. Cossi, G. Scalmani, N. Rega, 
 G. A. Petersson, H. Nakatsuji, M. Hada, M. Ehara, K. Toyota, 
 R. Fukuda, J. Hasegawa, M. Ishida, T. Nakajima, Y. Honda, O. Kitao, 
 H. Nakai, M. Klene, X. Li, J. E. Knox, H. P. Hratchian, J. B. Cross, 
 V. Bakken, C. Adamo, J. Jaramillo, R. Gomperts, R. E. Stratmann, 
 O. Yazyev, A. J. Austin, R. Cammi, C. Pomelli, J. W. Ochterski, 
 P. Y. Ayala, K. Morokuma, G. A. Voth, P. Salvador, J. J. Dannenberg, 
 V. G. Zakrzewski, S. Dapprich, A. D. Daniels, M. C. Strain, 
 O. Farkas, D. K. Malick, A. D. Rabuck, K. Raghavachari, 
 J. B. Foresman, J. V. Ortiz, Q. Cui, A. G. Baboul, S. Clifford, 
 J. Cioslowski, B. B. Stefanov, G. Liu, A. Liashenko, P. Piskorz, 
 I. Komaromi, R. L. Martin, D. J. Fox, T. Keith, M. A. Al-Laham, 
 C. Y. Peng, A. Nanayakkara, M. Challacombe, P. M. W. Gill, 
 B. Johnson, W. Chen, M. W. Wong, C. Gonzalez, and J. A. Pople, 
 Gaussian, Inc., Wallingford CT, 2004.
 
 ******************************************
 Gaussian 03:  EM64T-G03RevE.01 11-Sep-2007
                12-Jun-2015 
 ******************************************
 %nproc=2
 Will use up to    2 processors via shared memory.
 Default route:  MP2=Direct MaxDisk=2000MB
 ----------------------------------------------------
 # b3lyp/6-31+G(d,p) int=ultrafine pop=(ReadRadii,MK)
 ----------------------------------------------------

 Warning!  SCF SP cutoffs with diffuse functions may be unreliable.
 Consider SCF=Tight

 1/38=1/1;
 2/17=6,18=5,40=1/2;
 3/5=1,6=6,7=111,11=2,16=1,25=1,30=1,74=-5,75=5/1,2,3;
 4//1;
 5/5=2,32=1,38=5/2;
 6/7=2,8=2,9=2,10=2,15=8,20=101,28=1/1,2;
 99/5=1,9=1/99;
 ---------------------------------------
 mol_17.22.49.pdbcc_plusQ.z58199.zip.xyz
 ---------------------------------------
 Symbolic Z-matrix:
 Charge =  1 Multiplicity = 1
 Ca                    2.94324  -0.65014  -0.16014 
 O                     0.89641  -1.71976  -0.67745 
 P                    -0.0035   -0.85596   0.20058 
 O                    -1.24288  -1.45733   0.86691 
 O                    -0.72773   0.25934  -0.93918 
 O                    -1.47678   1.35225  -0.1785 
 O                     0.9173    0.09531   1.0364 
 Ca                    0.68363   2.25162   0.07852 
 Ca                   -2.97078  -0.37144  -0.11209 
 
                          Input orientation:                          
 ---------------------------------------------------------------------
 Center     Atomic     Atomic              Coordinates (Angstroms)
 Number     Number      Type              X           Y           Z
 ---------------------------------------------------------------------
    1         20             0        2.943240   -0.650140   -0.160140
    2          8             0        0.896410   -1.719760   -0.677450
    3         15             0       -0.003500   -0.855960    0.200580
    4          8             0       -1.242880   -1.457330    0.866910
    5          8             0       -0.727730    0.259340   -0.939180
    6          8             0       -1.476780    1.352250   -0.178500
    7          8             0        0.917300    0.095310    1.036400
    8         20             0        0.683630    2.251620    0.078520
    9         20             0       -2.970780   -0.371440   -0.112090
 ---------------------------------------------------------------------
                    Distance matrix (angstroms):
                    1          2          3          4          5
     1  Ca   0.000000
     2  O    2.366687   0.000000
     3  P    2.975862   1.525426   0.000000
     4  O    4.385201   2.651505   1.530263   0.000000
     5  O    3.861357   2.573552   1.751415   2.544464   0.000000
     6  O    4.852471   3.913851   2.681501   3.006881   1.527797
     7  O    2.468165   2.496437   1.565689   2.665670   2.576033
     8  Ca   3.685513   4.048287   3.184980   4.253153   2.645152
     9  Ca   5.920778   4.134339   3.022792   2.263457   2.472496
                    6          7          8          9
     6  O    0.000000
     7  O    2.964372   0.000000
     8  Ca   2.354208   2.371035   0.000000
     9  Ca   2.282006   4.080938   4.502387   0.000000
 Stoichiometry    Ca3O5P(1+)
 Framework group  C1[X(Ca3O5P)]
 Deg. of freedom    21
 Full point group                 C1
 Largest Abelian subgroup         C1      NOp   1
 Largest concise Abelian subgroup C1      NOp   1
                         Standard orientation:                         
 ---------------------------------------------------------------------
 Center     Atomic     Atomic              Coordinates (Angstroms)
 Number     Number      Type              X           Y           Z
 ---------------------------------------------------------------------
    1         20             0        2.943240   -0.650147   -0.160139
    2          8             0        0.896407   -1.719761   -0.677449
    3         15             0       -0.003501   -0.855959    0.200581
    4          8             0       -1.242883   -1.457326    0.866911
    5          8             0       -0.727728    0.259343   -0.939179
    6          8             0       -1.476775    1.352255   -0.178499
    7          8             0        0.917301    0.095309    1.036401
    8         20             0        0.683637    2.251619    0.078521
    9         20             0       -2.970780   -0.371431   -0.112089
 ---------------------------------------------------------------------
 Rotational constants (GHZ):      1.2218381      0.5835091      0.4314439
 Standard basis: 6-31+G(d,p) (6D, 7F)
 There are   199 symmetry adapted basis functions of A   symmetry.
 Integral buffers will be    131072 words long.
 Raffenetti 2 integral format.
 Two-electron integral symmetry is turned on.
   199 basis functions,   456 primitive gaussians,   199 cartesian basis functions
    57 alpha electrons       57 beta electrons
       nuclear repulsion energy      1034.9458609908 Hartrees.
 NAtoms=    9 NActive=    9 NUniq=    9 SFac= 7.50D-01 NAtFMM=   80 NAOKFM=F Big=F
 One-electron integrals computed using PRISM.
 NBasis=   199 RedAO= T  NBF=   199
 NBsUse=   199 1.00D-06 NBFU=   199
 Harris functional with IExCor=  402 diagonalized for initial guess.
 ExpMin= 7.10D-03 ExpMax= 3.53D+04 ExpMxC= 5.30D+03 IAcc=3 IRadAn=         5 AccDes= 0.00D+00
 HarFok:  IExCor= 402 AccDes= 0.00D+00 IRadAn=         5 IDoV=1
 ScaDFX=  1.000000  1.000000  1.000000  1.000000
 Initial guess orbital symmetries:
       Occupied  (A) (A) (A) (A) (A) (A) (A) (A) (A) (A) (A) (A)
                 (A) (A) (A) (A) (A) (A) (A) (A) (A) (A) (A) (A)
                 (A) (A) (A) (A) (A) (A) (A) (A) (A) (A) (A) (A)
                 (A) (A) (A) (A) (A) (A) (A) (A) (A) (A) (A) (A)
                 (A) (A) (A) (A) (A) (A) (A) (A) (A)
       Virtual   (A) (A) (A) (A) (A) (A) (A) (A) (A) (A) (A) (A)
                 (A) (A) (A) (A) (A) (A) (A) (A) (A) (A) (A) (A)
                 (A) (A) (A) (A) (A) (A) (A) (A) (A) (A) (A) (A)
                 (A) (A) (A) (A) (A) (A) (A) (A) (A) (A) (A) (A)
                 (A) (A) (A) (A) (A) (A) (A) (A) (A) (A) (A) (A)
                 (A) (A) (A) (A) (A) (A) (A) (A) (A) (A) (A) (A)
                 (A) (A) (A) (A) (A) (A) (A) (A) (A) (A) (A) (A)
                 (A) (A) (A) (A) (A) (A) (A) (A) (A) (A) (A) (A)
                 (A) (A) (A) (A) (A) (A) (A) (A) (A) (A) (A) (A)
                 (A) (A) (A) (A) (A) (A) (A) (A) (A) (A) (A) (A)
                 (A) (A) (A) (A) (A) (A) (A) (A) (A) (A) (A) (A)
                 (A) (A) (A) (A) (A) (A) (A) (A) (A) (A)
 The electronic state of the initial guess is 1-A.
 Requested convergence on RMS density matrix=1.00D-04 within 128 cycles.
 Requested convergence on MAX density matrix=1.00D-02.
 Requested convergence on             energy=1.00D-02.
 No special actions if energy rises.
 EnCoef did     9 forward-backward iterations
 EnCoef did     7 forward-backward iterations
 EnCoef did     9 forward-backward iterations
 EnCoef did     9 forward-backward iterations
 EnCoef did     3 forward-backward iterations
 EnCoef did     1 forward-backward iterations
 Rare condition: small coef for last iteration:  0.000D+00
 SCF Done:  E(RB+HF-LYP) =  -2750.16900889     A.U. after   14 cycles
             Convg  =    0.7172D-04             -V/T =  2.0029
             S**2   =   0.0000

 **********************************************************************

            Population analysis using the SCF density.

 **********************************************************************

 Orbital symmetries:
       Occupied  (A) (A) (A) (A) (A) (A) (A) (A) (A) (A) (A) (A)
                 (A) (A) (A) (A) (A) (A) (A) (A) (A) (A) (A) (A)
                 (A) (A) (A) (A) (A) (A) (A) (A) (A) (A) (A) (A)
                 (A) (A) (A) (A) (A) (A) (A) (A) (A) (A) (A) (A)
                 (A) (A) (A) (A) (A) (A) (A) (A) (A)
       Virtual   (A) (A) (A) (A) (A) (A) (A) (A) (A) (A) (A) (A)
                 (A) (A) (A) (A) (A) (A) (A) (A) (A) (A) (A) (A)
                 (A) (A) (A) (A) (A) (A) (A) (A) (A) (A) (A) (A)
                 (A) (A) (A) (A) (A) (A) (A) (A) (A) (A) (A) (A)
                 (A) (A) (A) (A) (A) (A) (A) (A) (A) (A) (A) (A)
                 (A) (A) (A) (A) (A) (A) (A) (A) (A) (A) (A) (A)
                 (A) (A) (A) (A) (A) (A) (A) (A) (A) (A) (A) (A)
                 (A) (A) (A) (A) (A) (A) (A) (A) (A) (A) (A) (A)
                 (A) (A) (A) (A) (A) (A) (A) (A) (A) (A) (A) (A)
                 (A) (A) (A) (A) (A) (A) (A) (A) (A) (A) (A) (A)
                 (A) (A) (A) (A) (A) (A) (A) (A) (A) (A) (A) (A)
                 (A) (A) (A) (A) (A) (A) (A) (A) (A) (A)
 The electronic state is 1-A.
 Alpha  occ. eigenvalues -- -145.55397-145.51928-145.51329 -77.34440 -19.34001
 Alpha  occ. eigenvalues --  -19.30104 -19.25586 -19.24949 -19.24257 -15.62212
 Alpha  occ. eigenvalues --  -15.58838 -15.58226 -12.75446 -12.75363 -12.75357
 Alpha  occ. eigenvalues --  -12.72048 -12.72010 -12.71945 -12.71447 -12.71386
 Alpha  occ. eigenvalues --  -12.71338  -6.78924  -4.95450  -4.95190  -4.95133
 Alpha  occ. eigenvalues --   -1.99194  -1.95852  -1.95310  -1.27402  -1.26740
 Alpha  occ. eigenvalues --   -1.26493  -1.23750  -1.23314  -1.23161  -1.23097
 Alpha  occ. eigenvalues --   -1.22754  -1.22655  -1.18922  -1.13389  -1.07789
 Alpha  occ. eigenvalues --   -1.06516  -0.97040  -0.66826  -0.59795  -0.57392
 Alpha  occ. eigenvalues --   -0.56796  -0.53845  -0.52815  -0.47734  -0.46976
 Alpha  occ. eigenvalues --   -0.45287  -0.45021  -0.42670  -0.40939  -0.40351
 Alpha  occ. eigenvalues --   -0.40267  -0.25222
 Alpha virt. eigenvalues --   -0.22441  -0.19370  -0.16268  -0.13614  -0.13169
 Alpha virt. eigenvalues --   -0.12651  -0.12037  -0.10984  -0.10545  -0.09318
 Alpha virt. eigenvalues --   -0.08506  -0.07236  -0.06719  -0.06238  -0.05338
 Alpha virt. eigenvalues --   -0.05230  -0.04960  -0.04685  -0.04452  -0.04227
 Alpha virt. eigenvalues --   -0.04162  -0.03641  -0.03429  -0.03301  -0.03191
 Alpha virt. eigenvalues --   -0.01842  -0.01695  -0.00699  -0.00352   0.00142
 Alpha virt. eigenvalues --    0.00483   0.01025   0.02409   0.02768   0.03594
 Alpha virt. eigenvalues --    0.03746   0.03774   0.03990   0.04517   0.04932
 Alpha virt. eigenvalues --    0.05309   0.06244   0.06293   0.06633   0.07223
 Alpha virt. eigenvalues --    0.07419   0.07876   0.08083   0.08559   0.08909
 Alpha virt. eigenvalues --    0.09699   0.10125   0.12240   0.13166   0.14895
 Alpha virt. eigenvalues --    0.15533   0.16050   0.18074   0.18653   0.19289
 Alpha virt. eigenvalues --    0.20218   0.20601   0.21331   0.21820   0.23285
 Alpha virt. eigenvalues --    0.24204   0.25616   0.26755   0.27583   0.28613
 Alpha virt. eigenvalues --    0.30189   0.31073   0.32261   0.32660   0.36292
 Alpha virt. eigenvalues --    0.39063   0.40448   0.41173   0.49345   0.53652
 Alpha virt. eigenvalues --    0.54746   0.55450   0.55719   0.57544   0.69401
 Alpha virt. eigenvalues --    0.71981   0.79766   0.87033   0.88873   0.95118
 Alpha virt. eigenvalues --    0.98153   1.06906   1.08021   1.11841   1.14611
 Alpha virt. eigenvalues --    1.15003   1.17682   1.18686   1.19261   1.21146
 Alpha virt. eigenvalues --    1.21695   1.22603   1.25460   1.26119   1.28349
 Alpha virt. eigenvalues --    1.29985   1.44191   1.47124   1.50388   1.51597
 Alpha virt. eigenvalues --    1.56159   1.62257   1.66131   1.67799   1.69352
 Alpha virt. eigenvalues --    1.70448   1.71500   1.72414   1.73107   1.77159
 Alpha virt. eigenvalues --    1.81359   1.84221   1.85275   1.88060   1.93875
 Alpha virt. eigenvalues --    1.97819   2.02659   2.13537   2.15084   2.19058
 Alpha virt. eigenvalues --    2.21018   2.33104   2.64565   2.73190   2.77116
 Alpha virt. eigenvalues --    3.03664   3.45023   3.97012   4.05346   4.10059
 Alpha virt. eigenvalues --    4.14421   4.21248
          Condensed to atoms (all electrons):
              1          2          3          4          5          6
     1  Ca  19.024100  -0.021682   0.133829  -0.014511  -0.039155  -0.008258
     2  O   -0.021682   8.783914   0.182859  -0.111494   0.090683   0.012050
     3  P    0.133829   0.182859  12.727657   0.120517  -0.024432  -0.033165
     4  O   -0.014511  -0.111494   0.120517   8.863085  -0.073467   0.023798
     5  O   -0.039155   0.090683  -0.024432  -0.073467   8.494016   0.044074
     6  O   -0.008258   0.012050  -0.033165   0.023798   0.044074   8.489395
     7  O   -0.140065  -0.097339  -0.020466  -0.006542   0.081910   0.003610
     8  Ca   0.263370  -0.033441   0.082977  -0.016659  -0.027581   0.033016
     9  Ca   0.059445  -0.010743   0.047930   0.050704  -0.004516   0.073562
              7          8          9
     1  Ca  -0.140065   0.263370   0.059445
     2  O   -0.097339  -0.033441  -0.010743
     3  P   -0.020466   0.082977   0.047930
     4  O   -0.006542  -0.016659   0.050704
     5  O    0.081910  -0.027581  -0.004516
     6  O    0.003610   0.033016   0.073562
     7  O    9.213858  -0.096449  -0.022541
     8  Ca  -0.096449  18.839749   0.017390
     9  Ca  -0.022541   0.017390  18.525790
 Mulliken atomic charges:
              1
     1  Ca   0.742927
     2  O   -0.794806
     3  P    1.782294
     4  O   -0.835431
     5  O   -0.541533
     6  O   -0.638083
     7  O   -0.915976
     8  Ca   0.937628
     9  Ca   1.262980
 Sum of Mulliken charges=   1.00000
 Atomic charges with hydrogens summed into heavy atoms:
              1
     1  Ca   0.742927
     2  O   -0.794806
     3  P    1.782294
     4  O   -0.835431
     5  O   -0.541533
     6  O   -0.638083
     7  O   -0.915976
     8  Ca   0.937628
     9  Ca   1.262980
 Sum of Mulliken charges=   1.00000
 Electronic spatial extent (au):  <R**2>=  2326.0723
 Charge=     1.0000 electrons
 Dipole moment (field-independent basis, Debye):
    X=    -4.7497    Y=     2.5813    Z=    -0.4991  Tot=     5.4288
 Quadrupole moment (field-independent basis, Debye-Ang):
   XX=   -17.6424   YY=   -75.5715   ZZ=   -91.6393
   XY=    -3.1513   XZ=     3.1717   YZ=     3.9799
 Traceless Quadrupole moment (field-independent basis, Debye-Ang):
   XX=    43.9753   YY=   -13.9538   ZZ=   -30.0216
   XY=    -3.1513   XZ=     3.1717   YZ=     3.9799
 Octapole moment (field-independent basis, Debye-Ang**2):
  XXX=  -137.1576  YYY=    41.7755  ZZZ=     1.1189  XYY=    -1.7330
  XXY=   -80.4114  XXZ=    -7.1802  XZZ=   -19.5210  YZZ=    -2.7815
  YYZ=     8.6413  XYZ=    -6.7220
 Hexadecapole moment (field-independent basis, Debye-Ang**3):
 XXXX= -1223.7442 YYYY=  -887.8028 ZZZZ=  -280.5202 XXXY=  -124.6049
 XXXZ=    26.3419 YYYX=   -33.3813 YYYZ=    18.5774 ZZZX=    13.3896
 ZZZY=    10.9207 XXYY=  -488.6106 XXZZ=  -367.5122 YYZZ=  -210.7871
 XXYZ=    24.0050 YYXZ=    18.9580 ZZXY=   -17.9873
 N-N= 1.034945860991D+03 E-N=-8.566244770352D+03  KE= 2.742222225970D+03
 Merz-Kollman atomic radii used.
 Read replacement radii for each type of atom:
 Rad(20) =   1.188000000000D+00
 Atom Element Radius
    1    20    1.19
    2     8    1.40
    3    15    1.80
    4     8    1.40
    5     8    1.40
    6     8    1.40
    7     8    1.40
    8    20    1.19
    9    20    1.19

 **********************************************************************

            Electrostatic Properties Using The SCF Density

 **********************************************************************

       Atomic Center    1 is at   2.943240 -0.650147 -0.160139
       Atomic Center    2 is at   0.896407 -1.719761 -0.677449
       Atomic Center    3 is at  -0.003501 -0.855959  0.200581
       Atomic Center    4 is at  -1.242883 -1.457326  0.866911
       Atomic Center    5 is at  -0.727728  0.259343 -0.939179
       Atomic Center    6 is at  -1.476775  1.352255 -0.178499
       Atomic Center    7 is at   0.917301  0.095309  1.036401
       Atomic Center    8 is at   0.683637  2.251619  0.078521
       Atomic Center    9 is at  -2.970780 -0.371431 -0.112089
     709 points will be used for fitting atomic charges
 Fitting point charges to eletrostatic potential
 Charges from ESP fit, RMS=   0.02667 RRMS=   0.16525:
 Charge=   1.00000 Dipole=    -2.1310     5.1843    -1.6512 Tot=     5.8433
              1
     1  Ca   0.799420
     2  O   -0.735137
     3  P    1.741247
     4  O   -0.935708
     5  O   -0.759620
     6  O   -0.402832
     7  O   -0.910317
     8  Ca   0.803784
     9  Ca   1.399162
 -----------------------------------------------------------------

              Electrostatic Properties (Atomic Units)

 -----------------------------------------------------------------
    Center     Electric         -------- Electric Field --------
               Potential          X             Y             Z
 -----------------------------------------------------------------
    1 Atom    -80.025401
    2 Atom    -22.224835
    3 Atom    -53.861706
    4 Atom    -22.210992
    5 Atom    -22.132119
    6 Atom    -22.172212
    7 Atom    -22.211458
    8 Atom    -80.030648
    9 Atom    -79.984677
 -----------------------------------------------------------------
 1\1\GINC-N021\SP\RB3LYP\6-31+G(d,p)\Ca3O5P1(1+)\TIMN\12-Jun-2015\0\\# 
 b3lyp/6-31+G(d,p) int=ultrafine pop=(ReadRadii,MK)\\mol_17.22.49.pdbcc
 _plusQ.z58199.zip.xyz\\1,1\Ca,0,2.94324,-0.65014,-0.16014\O,0,0.89641,
 -1.71976,-0.67745\P,0,-0.0035,-0.85596,0.20058\O,0,-1.24288,-1.45733,0
 .86691\O,0,-0.72773,0.25934,-0.93918\O,0,-1.47678,1.35225,-0.1785\O,0,
 0.9173,0.09531,1.0364\Ca,0,0.68363,2.25162,0.07852\Ca,0,-2.97078,-0.37
 144,-0.11209\\Version=EM64T-G03RevE.01\State=1-A\HF=-2750.1690089\RMSD
 =7.172e-05\Thermal=0.\Dipole=-1.8686673,1.0155568,-0.1963492\PG=C01 [X
 (Ca3O5P1)]\\@


 MORNING PEOPLE ARE USUALLY ADMIRED AS EARLY BIRDS.
 RECALL BEN FRANKLIN'S APHORISM THAT THE EARLY BIRD GETS THE WORM.
 I IDENTIFY WITH THE WORM. --  CRAIG JAGGER, MINNEAPOLIS, KS.
 Job cpu time:  0 days  0 hours  3 minutes 40.1 seconds.
 File lengths (MBytes):  RWF=     36 Int=      0 D2E=      0 Chk=     11 Scr=      1
 Normal termination of Gaussian 03 at Fri Jun 12 17:52:12 2015.
