 Entering Gaussian System, Link 0=/home/timn/tmp/g03.e01/g03
 Input=mol_16.5.15.pdbc_plusQ.out.z51621.zip.xyz.gjf
 Output=mol_16.5.15.pdbc_plusQ.out.z51621.zip.xyz.out
 Initial command:
 /home/timn/tmp/g03.e01/l1.exe /home/timn/tmp/g03.e01/Gau-12430.inp -scrdir=/home/timn/tmp/g03.e01/
 Default is to use a total of   2 processors:
                                2 via shared-memory
                                1 via Linda
 Entering Link 1 = /home/timn/tmp/g03.e01/l1.exe PID=     12431.
  
 Copyright (c) 1988,1990,1992,1993,1995,1998,2003,2004,2007, Gaussian, Inc.
                  All Rights Reserved.
  
 This is the Gaussian(R) 03 program.  It is based on the
 the Gaussian(R) 98 system (copyright 1998, Gaussian, Inc.),
 the Gaussian(R) 94 system (copyright 1995, Gaussian, Inc.),
 the Gaussian 92(TM) system (copyright 1992, Gaussian, Inc.),
 the Gaussian 90(TM) system (copyright 1990, Gaussian, Inc.),
 the Gaussian 88(TM) system (copyright 1988, Gaussian, Inc.),
 the Gaussian 86(TM) system (copyright 1986, Carnegie Mellon
 University), and the Gaussian 82(TM) system (copyright 1983,
 Carnegie Mellon University). Gaussian is a federally registered
 trademark of Gaussian, Inc.
  
 This software contains proprietary and confidential information,
 including trade secrets, belonging to Gaussian, Inc.
  
 This software is provided under written license and may be
 used, copied, transmitted, or stored only in accord with that
 written license.
  
 The following legend is applicable only to US Government
 contracts under FAR:
  
                    RESTRICTED RIGHTS LEGEND
  
 Use, reproduction and disclosure by the US Government is
 subject to restrictions as set forth in subparagraphs (a)
 and (c) of the Commercial Computer Software - Restricted
 Rights clause in FAR 52.227-19.
  
 Gaussian, Inc.
 340 Quinnipiac St., Bldg. 40, Wallingford CT 06492
  
  
 ---------------------------------------------------------------
 Warning -- This program may not be used in any manner that
 competes with the business of Gaussian, Inc. or will provide
 assistance to any competitor of Gaussian, Inc.  The licensee
 of this program is prohibited from giving any competitor of
 Gaussian, Inc. access to this program.  By using this program,
 the user acknowledges that Gaussian, Inc. is engaged in the
 business of creating and licensing software in the field of
 computational chemistry and represents and warrants to the
 licensee that it is not a competitor of Gaussian, Inc. and that
 it will not use this program in any manner prohibited above.
 ---------------------------------------------------------------
  

 Cite this work as:
 Gaussian 03, Revision E.01,
 M. J. Frisch, G. W. Trucks, H. B. Schlegel, G. E. Scuseria, 
 M. A. Robb, J. R. Cheeseman, J. A. Montgomery, Jr., T. Vreven, 
 K. N. Kudin, J. C. Burant, J. M. Millam, S. S. Iyengar, J. Tomasi, 
 V. Barone, B. Mennucci, M. Cossi, G. Scalmani, N. Rega, 
 G. A. Petersson, H. Nakatsuji, M. Hada, M. Ehara, K. Toyota, 
 R. Fukuda, J. Hasegawa, M. Ishida, T. Nakajima, Y. Honda, O. Kitao, 
 H. Nakai, M. Klene, X. Li, J. E. Knox, H. P. Hratchian, J. B. Cross, 
 V. Bakken, C. Adamo, J. Jaramillo, R. Gomperts, R. E. Stratmann, 
 O. Yazyev, A. J. Austin, R. Cammi, C. Pomelli, J. W. Ochterski, 
 P. Y. Ayala, K. Morokuma, G. A. Voth, P. Salvador, J. J. Dannenberg, 
 V. G. Zakrzewski, S. Dapprich, A. D. Daniels, M. C. Strain, 
 O. Farkas, D. K. Malick, A. D. Rabuck, K. Raghavachari, 
 J. B. Foresman, J. V. Ortiz, Q. Cui, A. G. Baboul, S. Clifford, 
 J. Cioslowski, B. B. Stefanov, G. Liu, A. Liashenko, P. Piskorz, 
 I. Komaromi, R. L. Martin, D. J. Fox, T. Keith, M. A. Al-Laham, 
 C. Y. Peng, A. Nanayakkara, M. Challacombe, P. M. W. Gill, 
 B. Johnson, W. Chen, M. W. Wong, C. Gonzalez, and J. A. Pople, 
 Gaussian, Inc., Wallingford CT, 2004.
 
 ******************************************
 Gaussian 03:  EM64T-G03RevE.01 11-Sep-2007
                12-Jun-2015 
 ******************************************
 %nproc=2
 Will use up to    2 processors via shared memory.
 Default route:  MP2=Direct MaxDisk=2000MB
 ----------------------------------------------------
 # b3lyp/6-31+G(d,p) int=ultrafine pop=(ReadRadii,MK)
 ----------------------------------------------------

 Warning!  SCF SP cutoffs with diffuse functions may be unreliable.
 Consider SCF=Tight

 1/38=1/1;
 2/17=6,18=5,40=1/2;
 3/5=1,6=6,7=111,11=2,16=1,25=1,30=1,74=-5,75=5/1,2,3;
 4//1;
 5/5=2,32=1,38=5/2;
 6/7=2,8=2,9=2,10=2,15=8,20=101,28=1/1,2;
 99/5=1,9=1/99;
 -----------------------------------------
 mol_16.5.15.pdbc_plusQ.out.z51621.zip.xyz
 -----------------------------------------
 Symbolic Z-matrix:
 Charge =  1 Multiplicity = 1
 O                    -2.48792  -1.23986   0.00026 
 P                    -3.42037   0.00043  -0.00005 
 O                    -2.48715   1.24013  -0.00027 
 Ca                   -0.48806  -0.00049   0.00006 
 O                     1.67748   0.00012   0.7878 
 O                     1.67745  -0.00072  -0.78777 
 Ca                    3.7014    0.00031  -0.00004 
 
                          Input orientation:                          
 ---------------------------------------------------------------------
 Center     Atomic     Atomic              Coordinates (Angstroms)
 Number     Number      Type              X           Y           Z
 ---------------------------------------------------------------------
    1          8             0       -2.487920   -1.239860    0.000260
    2         15             0       -3.420370    0.000430   -0.000050
    3          8             0       -2.487150    1.240130   -0.000270
    4         20             0       -0.488060   -0.000490    0.000060
    5          8             0        1.677480    0.000120    0.787800
    6          8             0        1.677450   -0.000720   -0.787770
    7         20             0        3.701400    0.000310   -0.000040
 ---------------------------------------------------------------------
                    Distance matrix (angstroms):
                    1          2          3          4          5
     1  O    0.000000
     2  P    1.551703   0.000000
     3  O    2.479990   1.551694   0.000000
     4  Ca   2.352760   2.932310   2.352764   0.000000
     5  O    4.416823   5.158370   4.416200   2.304365   0.000000
     6  O    4.416647   5.158321   4.416306   2.304368   1.575570
     7  Ca   6.312345   7.121770   6.311522   4.189460   2.171853
                    6          7
     6  O    0.000000
     7  Ca   2.171841   0.000000
 Stoichiometry    Ca2O4P(1+)
 Framework group  C1[X(Ca2O4P)]
 Deg. of freedom    15
 Full point group                 C1
 Largest Abelian subgroup         C1      NOp   1
 Largest concise Abelian subgroup C1      NOp   1
                         Standard orientation:                         
 ---------------------------------------------------------------------
 Center     Atomic     Atomic              Coordinates (Angstroms)
 Number     Number      Type              X           Y           Z
 ---------------------------------------------------------------------
    1          8             0       -2.487921   -1.239863    0.000262
    2         15             0       -3.420371    0.000427   -0.000048
    3          8             0       -2.487152    1.240127   -0.000268
    4         20             0       -0.488061   -0.000493    0.000062
    5          8             0        1.677479    0.000118    0.787802
    6          8             0        1.677449   -0.000722   -0.787768
    7         20             0        3.701399    0.000308   -0.000038
 ---------------------------------------------------------------------
 Rotational constants (GHZ):      7.3200634      0.4118383      0.4022232
 Standard basis: 6-31+G(d,p) (6D, 7F)
 There are   153 symmetry adapted basis functions of A   symmetry.
 Integral buffers will be    131072 words long.
 Raffenetti 2 integral format.
 Two-electron integral symmetry is turned on.
   153 basis functions,   344 primitive gaussians,   153 cartesian basis functions
    43 alpha electrons       43 beta electrons
       nuclear repulsion energy       549.5041482844 Hartrees.
 NAtoms=    7 NActive=    7 NUniq=    7 SFac= 7.50D-01 NAtFMM=   80 NAOKFM=F Big=F
 One-electron integrals computed using PRISM.
 NBasis=   153 RedAO= T  NBF=   153
 NBsUse=   153 1.00D-06 NBFU=   153
 Harris functional with IExCor=  402 diagonalized for initial guess.
 ExpMin= 7.10D-03 ExpMax= 3.53D+04 ExpMxC= 5.30D+03 IAcc=3 IRadAn=         5 AccDes= 0.00D+00
 HarFok:  IExCor= 402 AccDes= 0.00D+00 IRadAn=         5 IDoV=1
 ScaDFX=  1.000000  1.000000  1.000000  1.000000
 Initial guess orbital symmetries:
       Occupied  (A) (A) (A) (A) (A) (A) (A) (A) (A) (A) (A) (A)
                 (A) (A) (A) (A) (A) (A) (A) (A) (A) (A) (A) (A)
                 (A) (A) (A) (A) (A) (A) (A) (A) (A) (A) (A) (A)
                 (A) (A) (A) (A) (A) (A) (A)
       Virtual   (A) (A) (A) (A) (A) (A) (A) (A) (A) (A) (A) (A)
                 (A) (A) (A) (A) (A) (A) (A) (A) (A) (A) (A) (A)
                 (A) (A) (A) (A) (A) (A) (A) (A) (A) (A) (A) (A)
                 (A) (A) (A) (A) (A) (A) (A) (A) (A) (A) (A) (A)
                 (A) (A) (A) (A) (A) (A) (A) (A) (A) (A) (A) (A)
                 (A) (A) (A) (A) (A) (A) (A) (A) (A) (A) (A) (A)
                 (A) (A) (A) (A) (A) (A) (A) (A) (A) (A) (A) (A)
                 (A) (A) (A) (A) (A) (A) (A) (A) (A) (A) (A) (A)
                 (A) (A) (A) (A) (A) (A) (A) (A) (A) (A) (A) (A)
                 (A) (A)
 The electronic state of the initial guess is 1-A.
 Requested convergence on RMS density matrix=1.00D-04 within 128 cycles.
 Requested convergence on MAX density matrix=1.00D-02.
 Requested convergence on             energy=1.00D-02.
 No special actions if energy rises.
 SCF Done:  E(RB+HF-LYP) =  -1997.29959316     A.U. after    6 cycles
             Convg  =    0.8795D-04             -V/T =  2.0031
             S**2   =   0.0000

 **********************************************************************

            Population analysis using the SCF density.

 **********************************************************************

 Orbital symmetries:
       Occupied  (A) (A) (A) (A) (A) (A) (A) (A) (A) (A) (A) (A)
                 (A) (A) (A) (A) (A) (A) (A) (A) (A) (A) (A) (A)
                 (A) (A) (A) (A) (A) (A) (A) (A) (A) (A) (A) (A)
                 (A) (A) (A) (A) (A) (A) (A)
       Virtual   (A) (A) (A) (A) (A) (A) (A) (A) (A) (A) (A) (A)
                 (A) (A) (A) (A) (A) (A) (A) (A) (A) (A) (A) (A)
                 (A) (A) (A) (A) (A) (A) (A) (A) (A) (A) (A) (A)
                 (A) (A) (A) (A) (A) (A) (A) (A) (A) (A) (A) (A)
                 (A) (A) (A) (A) (A) (A) (A) (A) (A) (A) (A) (A)
                 (A) (A) (A) (A) (A) (A) (A) (A) (A) (A) (A) (A)
                 (A) (A) (A) (A) (A) (A) (A) (A) (A) (A) (A) (A)
                 (A) (A) (A) (A) (A) (A) (A) (A) (A) (A) (A) (A)
                 (A) (A) (A) (A) (A) (A) (A) (A) (A) (A) (A) (A)
                 (A) (A)
 The electronic state is 1-A.
 Alpha  occ. eigenvalues -- -145.61307-145.47820 -77.25120 -19.28177 -19.28172
 Alpha  occ. eigenvalues --  -19.23098 -19.23096 -15.68065 -15.54721 -12.81314
 Alpha  occ. eigenvalues --  -12.81251 -12.81181 -12.67969 -12.67941 -12.67774
 Alpha  occ. eigenvalues --   -6.70872  -4.87304  -4.87053  -4.86668  -2.04907
 Alpha  occ. eigenvalues --   -1.92035  -1.32456  -1.32381  -1.32127  -1.20436
 Alpha  occ. eigenvalues --   -1.19897  -1.19700  -1.11032  -1.08923  -1.03451
 Alpha  occ. eigenvalues --   -0.92087  -0.61809  -0.51533  -0.50973  -0.50585
 Alpha  occ. eigenvalues --   -0.48643  -0.48443  -0.48207  -0.40453  -0.40221
 Alpha  occ. eigenvalues --   -0.38750  -0.36543  -0.36216
 Alpha virt. eigenvalues --   -0.26770  -0.17586  -0.16698  -0.15602  -0.14690
 Alpha virt. eigenvalues --   -0.13205  -0.12486  -0.08761  -0.08296  -0.07807
 Alpha virt. eigenvalues --   -0.06076  -0.06005  -0.05734  -0.05253  -0.04044
 Alpha virt. eigenvalues --   -0.03791  -0.03494  -0.03472  -0.03159  -0.01823
 Alpha virt. eigenvalues --   -0.01657  -0.01556  -0.00360   0.00271   0.00349
 Alpha virt. eigenvalues --    0.01491   0.02766   0.02869   0.03726   0.04198
 Alpha virt. eigenvalues --    0.04736   0.04993   0.05315   0.05803   0.07679
 Alpha virt. eigenvalues --    0.07902   0.11107   0.11126   0.11768   0.12084
 Alpha virt. eigenvalues --    0.12792   0.15453   0.16242   0.17024   0.18039
 Alpha virt. eigenvalues --    0.18710   0.21824   0.22900   0.23201   0.23356
 Alpha virt. eigenvalues --    0.27987   0.28012   0.28753   0.31865   0.35987
 Alpha virt. eigenvalues --    0.36050   0.38212   0.39318   0.44861   0.45335
 Alpha virt. eigenvalues --    0.50338   0.51196   0.59304   0.60127   0.66667
 Alpha virt. eigenvalues --    0.70397   0.85859   0.90775   0.97463   1.02262
 Alpha virt. eigenvalues --    1.05977   1.06088   1.09315   1.12905   1.14468
 Alpha virt. eigenvalues --    1.17933   1.18065   1.20413   1.22226   1.24339
 Alpha virt. eigenvalues --    1.35195   1.39913   1.42638   1.44378   1.46824
 Alpha virt. eigenvalues --    1.56135   1.61121   1.68072   1.70195   1.70616
 Alpha virt. eigenvalues --    1.73876   1.75147   1.76573   1.84846   1.85167
 Alpha virt. eigenvalues --    1.89446   1.93429   1.94158   1.99718   2.13272
 Alpha virt. eigenvalues --    2.14818   2.15119   2.60928   2.72653   2.97467
 Alpha virt. eigenvalues --    3.42519   3.82533   3.92117   3.98023   4.02135
          Condensed to atoms (all electrons):
              1          2          3          4          5          6
     1  O    8.635374   0.028609  -0.091998   0.060669   0.000204   0.000204
     2  P    0.028609  14.539627   0.028653  -0.068830   0.003848   0.003848
     3  O   -0.091998   0.028653   8.635329   0.060649   0.000202   0.000202
     4  Ca   0.060669  -0.068830   0.060649  18.297868   0.078627   0.078625
     5  O    0.000204   0.003848   0.000202   0.078627   8.472273  -0.037835
     6  O    0.000204   0.003848   0.000202   0.078625  -0.037835   8.472270
     7  Ca   0.004116  -0.013131   0.004119  -0.021326   0.131904   0.131907
              7
     1  O    0.004116
     2  P   -0.013131
     3  O    0.004119
     4  Ca  -0.021326
     5  O    0.131904
     6  O    0.131907
     7  Ca  18.180732
 Mulliken atomic charges:
              1
     1  O   -0.637177
     2  P    0.477376
     3  O   -0.637155
     4  Ca   1.513719
     5  O   -0.649223
     6  O   -0.649220
     7  Ca   1.581679
 Sum of Mulliken charges=   1.00000
 Atomic charges with hydrogens summed into heavy atoms:
              1
     1  O   -0.637177
     2  P    0.477376
     3  O   -0.637155
     4  Ca   1.513719
     5  O   -0.649223
     6  O   -0.649220
     7  Ca   1.581679
 Sum of Mulliken charges=   1.00000
 Electronic spatial extent (au):  <R**2>=  2329.5615
 Charge=     1.0000 electrons
 Dipole moment (field-independent basis, Debye):
    X=    21.1326    Y=     0.0013    Z=     0.0000  Tot=    21.1326
 Quadrupole moment (field-independent basis, Debye-Ang):
   XX=    29.9838   YY=   -65.5087   ZZ=   -58.2807
   XY=     0.0103   XZ=    -0.0015   YZ=     0.0002
 Traceless Quadrupole moment (field-independent basis, Debye-Ang):
   XX=    61.2523   YY=   -34.2402   ZZ=   -27.0122
   XY=     0.0103   XZ=    -0.0015   YZ=     0.0002
 Octapole moment (field-independent basis, Debye-Ang**2):
  XXX=   466.7810  YYY=    -0.0038  ZZZ=     0.0001  XYY=    45.6268
  XXY=     0.0615  XXZ=    -0.0053  XZZ=    10.4946  YZZ=     0.0008
  YYZ=     0.0001  XYZ=    -0.0100
 Hexadecapole moment (field-independent basis, Debye-Ang**3):
 XXXX=  -697.6333 YYYY=  -193.0799 ZZZZ=  -103.5760 XXXY=     0.1142
 XXXZ=    -0.0226 YYYX=     0.0340 YYYZ=     0.0005 ZZZX=    -0.0037
 ZZZY=     0.0032 XXYY=  -455.8809 XXZZ=  -395.1853 YYZZ=   -48.9250
 XXYZ=     0.0053 YYXZ=    -0.0012 ZZXY=     0.0122
 N-N= 5.495041482844D+02 E-N=-5.819029145234D+03  KE= 1.991116513306D+03
 Merz-Kollman atomic radii used.
 Read replacement radii for each type of atom:
 Rad(20) =   1.188000000000D+00
 Atom Element Radius
    1     8    1.40
    2    15    1.80
    3     8    1.40
    4    20    1.19
    5     8    1.40
    6     8    1.40
    7    20    1.19

 **********************************************************************

            Electrostatic Properties Using The SCF Density

 **********************************************************************

       Atomic Center    1 is at  -2.487921 -1.239863  0.000262
       Atomic Center    2 is at  -3.420371  0.000427 -0.000048
       Atomic Center    3 is at  -2.487152  1.240127 -0.000268
       Atomic Center    4 is at  -0.488061 -0.000493  0.000062
       Atomic Center    5 is at   1.677479  0.000118  0.787802
       Atomic Center    6 is at   1.677449 -0.000722 -0.787768
       Atomic Center    7 is at   3.701399  0.000308 -0.000038
     786 points will be used for fitting atomic charges
 Fitting point charges to eletrostatic potential
 Charges from ESP fit, RMS=   0.00410 RRMS=   0.02701:
 Charge=   1.00000 Dipole=    21.0825     0.0014    -0.0001 Tot=    21.0825
              1
     1  O   -0.699959
     2  P    0.566259
     3  O   -0.699925
     4  Ca   1.764003
     5  O   -0.851575
     6  O   -0.851571
     7  Ca   1.772768
 -----------------------------------------------------------------

              Electrostatic Properties (Atomic Units)

 -----------------------------------------------------------------
    Center     Electric         -------- Electric Field --------
               Potential          X             Y             Z
 -----------------------------------------------------------------
    1 Atom    -22.234291
    2 Atom    -53.965072
    3 Atom    -22.234233
    4 Atom    -80.063287
    5 Atom    -22.187080
    6 Atom    -22.187077
    7 Atom    -79.926878
 -----------------------------------------------------------------
 1\1\GINC-N033\SP\RB3LYP\6-31+G(d,p)\Ca2O4P1(1+)\TIMN\12-Jun-2015\0\\# 
 b3lyp/6-31+G(d,p) int=ultrafine pop=(ReadRadii,MK)\\mol_16.5.15.pdbc_p
 lusQ.out.z51621.zip.xyz\\1,1\O,0,-2.48792,-1.23986,0.00026\P,0,-3.4203
 7,0.00043,-0.00005\O,0,-2.48715,1.24013,-0.00027\Ca,0,-0.48806,-0.0004
 9,0.00006\O,0,1.67748,0.00012,0.7878\O,0,1.67745,-0.00072,-0.78777\Ca,
 0,3.7014,0.00031,-0.00004\\Version=EM64T-G03RevE.01\State=1-A\HF=-1997
 .2995932\RMSD=8.795e-05\Thermal=0.\Dipole=8.3141892,0.0005053,-0.00001
 94\PG=C01 [X(Ca2O4P1)]\\@


 Boundary, n.  In political geography, an imaginary
 line between two nations, separating the imaginary
 rights of one from the imaginary rights of another.
                               -- Ambrose Bierce
 Job cpu time:  0 days  0 hours  0 minutes 38.1 seconds.
 File lengths (MBytes):  RWF=     28 Int=      0 D2E=      0 Chk=     10 Scr=      1
 Normal termination of Gaussian 03 at Fri Jun 12 17:49:18 2015.
