 Entering Gaussian System, Link 0=/home/timn/tmp/g03.e01/g03
 Input=mol_16.4.6.pdbc_plusQ.out.z51611.zip.xyz.gjf
 Output=mol_16.4.6.pdbc_plusQ.out.z51611.zip.xyz.out
 Initial command:
 /home/timn/tmp/g03.e01/l1.exe /home/timn/tmp/g03.e01/Gau-14368.inp -scrdir=/home/timn/tmp/g03.e01/
 Default is to use a total of   2 processors:
                                2 via shared-memory
                                1 via Linda
 Entering Link 1 = /home/timn/tmp/g03.e01/l1.exe PID=     14369.
  
 Copyright (c) 1988,1990,1992,1993,1995,1998,2003,2004,2007, Gaussian, Inc.
                  All Rights Reserved.
  
 This is the Gaussian(R) 03 program.  It is based on the
 the Gaussian(R) 98 system (copyright 1998, Gaussian, Inc.),
 the Gaussian(R) 94 system (copyright 1995, Gaussian, Inc.),
 the Gaussian 92(TM) system (copyright 1992, Gaussian, Inc.),
 the Gaussian 90(TM) system (copyright 1990, Gaussian, Inc.),
 the Gaussian 88(TM) system (copyright 1988, Gaussian, Inc.),
 the Gaussian 86(TM) system (copyright 1986, Carnegie Mellon
 University), and the Gaussian 82(TM) system (copyright 1983,
 Carnegie Mellon University). Gaussian is a federally registered
 trademark of Gaussian, Inc.
  
 This software contains proprietary and confidential information,
 including trade secrets, belonging to Gaussian, Inc.
  
 This software is provided under written license and may be
 used, copied, transmitted, or stored only in accord with that
 written license.
  
 The following legend is applicable only to US Government
 contracts under FAR:
  
                    RESTRICTED RIGHTS LEGEND
  
 Use, reproduction and disclosure by the US Government is
 subject to restrictions as set forth in subparagraphs (a)
 and (c) of the Commercial Computer Software - Restricted
 Rights clause in FAR 52.227-19.
  
 Gaussian, Inc.
 340 Quinnipiac St., Bldg. 40, Wallingford CT 06492
  
  
 ---------------------------------------------------------------
 Warning -- This program may not be used in any manner that
 competes with the business of Gaussian, Inc. or will provide
 assistance to any competitor of Gaussian, Inc.  The licensee
 of this program is prohibited from giving any competitor of
 Gaussian, Inc. access to this program.  By using this program,
 the user acknowledges that Gaussian, Inc. is engaged in the
 business of creating and licensing software in the field of
 computational chemistry and represents and warrants to the
 licensee that it is not a competitor of Gaussian, Inc. and that
 it will not use this program in any manner prohibited above.
 ---------------------------------------------------------------
  

 Cite this work as:
 Gaussian 03, Revision E.01,
 M. J. Frisch, G. W. Trucks, H. B. Schlegel, G. E. Scuseria, 
 M. A. Robb, J. R. Cheeseman, J. A. Montgomery, Jr., T. Vreven, 
 K. N. Kudin, J. C. Burant, J. M. Millam, S. S. Iyengar, J. Tomasi, 
 V. Barone, B. Mennucci, M. Cossi, G. Scalmani, N. Rega, 
 G. A. Petersson, H. Nakatsuji, M. Hada, M. Ehara, K. Toyota, 
 R. Fukuda, J. Hasegawa, M. Ishida, T. Nakajima, Y. Honda, O. Kitao, 
 H. Nakai, M. Klene, X. Li, J. E. Knox, H. P. Hratchian, J. B. Cross, 
 V. Bakken, C. Adamo, J. Jaramillo, R. Gomperts, R. E. Stratmann, 
 O. Yazyev, A. J. Austin, R. Cammi, C. Pomelli, J. W. Ochterski, 
 P. Y. Ayala, K. Morokuma, G. A. Voth, P. Salvador, J. J. Dannenberg, 
 V. G. Zakrzewski, S. Dapprich, A. D. Daniels, M. C. Strain, 
 O. Farkas, D. K. Malick, A. D. Rabuck, K. Raghavachari, 
 J. B. Foresman, J. V. Ortiz, Q. Cui, A. G. Baboul, S. Clifford, 
 J. Cioslowski, B. B. Stefanov, G. Liu, A. Liashenko, P. Piskorz, 
 I. Komaromi, R. L. Martin, D. J. Fox, T. Keith, M. A. Al-Laham, 
 C. Y. Peng, A. Nanayakkara, M. Challacombe, P. M. W. Gill, 
 B. Johnson, W. Chen, M. W. Wong, C. Gonzalez, and J. A. Pople, 
 Gaussian, Inc., Wallingford CT, 2004.
 
 ******************************************
 Gaussian 03:  EM64T-G03RevE.01 11-Sep-2007
                12-Jun-2015 
 ******************************************
 %nproc=2
 Will use up to    2 processors via shared memory.
 Default route:  MP2=Direct MaxDisk=2000MB
 ----------------------------------------------------
 # b3lyp/6-31+G(d,p) int=ultrafine pop=(ReadRadii,MK)
 ----------------------------------------------------

 Warning!  SCF SP cutoffs with diffuse functions may be unreliable.
 Consider SCF=Tight

 1/38=1/1;
 2/17=6,18=5,40=1/2;
 3/5=1,6=6,7=111,11=2,16=1,25=1,30=1,74=-5,75=5/1,2,3;
 4//1;
 5/5=2,32=1,38=5/2;
 6/7=2,8=2,9=2,10=2,15=8,20=101,28=1/1,2;
 99/5=1,9=1/99;
 ----------------------------------------
 mol_16.4.6.pdbc_plusQ.out.z51611.zip.xyz
 ----------------------------------------
 Symbolic Z-matrix:
 Charge =  1 Multiplicity = 1
 O                     1.38174   1.46436  -0.00072 
 P                    -0.00005   0.80001   0.00001 
 O                    -1.38179   1.46439  -0.00033 
 O                     0.00049  -0.32965   1.19752 
 Ca                   -2.06889  -0.75359   0.0001 
 Ca                    2.06888  -0.75354   0. 
 O                    -0.00035  -0.3313   -1.19674 
 
                          Input orientation:                          
 ---------------------------------------------------------------------
 Center     Atomic     Atomic              Coordinates (Angstroms)
 Number     Number      Type              X           Y           Z
 ---------------------------------------------------------------------
    1          8             0        1.381740    1.464360   -0.000720
    2         15             0       -0.000050    0.800010    0.000010
    3          8             0       -1.381790    1.464390   -0.000330
    4          8             0        0.000490   -0.329650    1.197520
    5         20             0       -2.068890   -0.753590    0.000100
    6         20             0        2.068880   -0.753540    0.000000
    7          8             0       -0.000350   -0.331300   -1.196740
 ---------------------------------------------------------------------
                    Distance matrix (angstroms):
                    1          2          3          4          5
     1  O    0.000000
     2  P    1.533201   0.000000
     3  O    2.763530   1.533169   0.000000
     4  O    2.561660   1.646257   2.562054   0.000000
     5  Ca   4.101969   2.587232   2.321969   2.428142   0.000000
     6  Ca   2.321905   2.587274   4.101992   2.427339   4.137770
     7  O    2.562232   1.646837   2.562084   2.394261   2.426852
                    6          7
     6  Ca   0.000000
     7  O    2.427383   0.000000
 Stoichiometry    Ca2O4P(1+)
 Framework group  C1[X(Ca2O4P)]
 Deg. of freedom    15
 Full point group                 C1
 Largest Abelian subgroup         C1      NOp   1
 Largest concise Abelian subgroup C1      NOp   1
                         Standard orientation:                         
 ---------------------------------------------------------------------
 Center     Atomic     Atomic              Coordinates (Angstroms)
 Number     Number      Type              X           Y           Z
 ---------------------------------------------------------------------
    1          8             0        1.381746    1.464357   -0.000720
    2         15             0       -0.000045    0.800011    0.000010
    3          8             0       -1.381784    1.464394   -0.000330
    4          8             0        0.000492   -0.329649    1.197520
    5         20             0       -2.068889   -0.753584    0.000100
    6         20             0        2.068881   -0.753545    0.000000
    7          8             0       -0.000348   -0.331299   -1.196740
 ---------------------------------------------------------------------
 Rotational constants (GHZ):      2.7594626      1.1255025      0.9350582
 Standard basis: 6-31+G(d,p) (6D, 7F)
 There are   153 symmetry adapted basis functions of A   symmetry.
 Integral buffers will be    131072 words long.
 Raffenetti 2 integral format.
 Two-electron integral symmetry is turned on.
   153 basis functions,   344 primitive gaussians,   153 cartesian basis functions
    43 alpha electrons       43 beta electrons
       nuclear repulsion energy       666.8503766145 Hartrees.
 NAtoms=    7 NActive=    7 NUniq=    7 SFac= 7.50D-01 NAtFMM=   80 NAOKFM=F Big=F
 One-electron integrals computed using PRISM.
 NBasis=   153 RedAO= T  NBF=   153
 NBsUse=   153 1.00D-06 NBFU=   153
 Harris functional with IExCor=  402 diagonalized for initial guess.
 ExpMin= 7.10D-03 ExpMax= 3.53D+04 ExpMxC= 5.30D+03 IAcc=3 IRadAn=         5 AccDes= 0.00D+00
 HarFok:  IExCor= 402 AccDes= 0.00D+00 IRadAn=         5 IDoV=1
 ScaDFX=  1.000000  1.000000  1.000000  1.000000
 Initial guess orbital symmetries:
       Occupied  (A) (A) (A) (A) (A) (A) (A) (A) (A) (A) (A) (A)
                 (A) (A) (A) (A) (A) (A) (A) (A) (A) (A) (A) (A)
                 (A) (A) (A) (A) (A) (A) (A) (A) (A) (A) (A) (A)
                 (A) (A) (A) (A) (A) (A) (A)
       Virtual   (A) (A) (A) (A) (A) (A) (A) (A) (A) (A) (A) (A)
                 (A) (A) (A) (A) (A) (A) (A) (A) (A) (A) (A) (A)
                 (A) (A) (A) (A) (A) (A) (A) (A) (A) (A) (A) (A)
                 (A) (A) (A) (A) (A) (A) (A) (A) (A) (A) (A) (A)
                 (A) (A) (A) (A) (A) (A) (A) (A) (A) (A) (A) (A)
                 (A) (A) (A) (A) (A) (A) (A) (A) (A) (A) (A) (A)
                 (A) (A) (A) (A) (A) (A) (A) (A) (A) (A) (A) (A)
                 (A) (A) (A) (A) (A) (A) (A) (A) (A) (A) (A) (A)
                 (A) (A) (A) (A) (A) (A) (A) (A) (A) (A) (A) (A)
                 (A) (A)
 The electronic state of the initial guess is 1-A.
 Requested convergence on RMS density matrix=1.00D-04 within 128 cycles.
 Requested convergence on MAX density matrix=1.00D-02.
 Requested convergence on             energy=1.00D-02.
 No special actions if energy rises.
 SCF Done:  E(RB+HF-LYP) =  -1997.39007812     A.U. after    8 cycles
             Convg  =    0.1127D-04             -V/T =  2.0031
             S**2   =   0.0000

 **********************************************************************

            Population analysis using the SCF density.

 **********************************************************************

 Orbital symmetries:
       Occupied  (A) (A) (A) (A) (A) (A) (A) (A) (A) (A) (A) (A)
                 (A) (A) (A) (A) (A) (A) (A) (A) (A) (A) (A) (A)
                 (A) (A) (A) (A) (A) (A) (A) (A) (A) (A) (A) (A)
                 (A) (A) (A) (A) (A) (A) (A)
       Virtual   (A) (A) (A) (A) (A) (A) (A) (A) (A) (A) (A) (A)
                 (A) (A) (A) (A) (A) (A) (A) (A) (A) (A) (A) (A)
                 (A) (A) (A) (A) (A) (A) (A) (A) (A) (A) (A) (A)
                 (A) (A) (A) (A) (A) (A) (A) (A) (A) (A) (A) (A)
                 (A) (A) (A) (A) (A) (A) (A) (A) (A) (A) (A) (A)
                 (A) (A) (A) (A) (A) (A) (A) (A) (A) (A) (A) (A)
                 (A) (A) (A) (A) (A) (A) (A) (A) (A) (A) (A) (A)
                 (A) (A) (A) (A) (A) (A) (A) (A) (A) (A) (A) (A)
                 (A) (A) (A) (A) (A) (A) (A) (A) (A) (A) (A) (A)
                 (A) (A)
 The electronic state is 1-A.
 Alpha  occ. eigenvalues -- -145.57693-145.57689 -77.31335 -19.22626 -19.22612
 Alpha  occ. eigenvalues --  -19.22308 -19.22281 -15.64395 -15.64391 -12.77594
 Alpha  occ. eigenvalues --  -12.77590 -12.77581 -12.77580 -12.77578 -12.77576
 Alpha  occ. eigenvalues --   -6.76057  -4.92405  -4.92398  -4.92321  -2.01224
 Alpha  occ. eigenvalues --   -2.01216  -1.29332  -1.28817  -1.28438  -1.28438
 Alpha  occ. eigenvalues --   -1.28382  -1.28334  -1.12991  -1.05507  -1.03665
 Alpha  occ. eigenvalues --   -1.01674  -0.62402  -0.53179  -0.53141  -0.52461
 Alpha  occ. eigenvalues --   -0.45697  -0.45587  -0.45186  -0.42431  -0.40461
 Alpha  occ. eigenvalues --   -0.39285  -0.38001  -0.35886
 Alpha virt. eigenvalues --   -0.23655  -0.22442  -0.14872  -0.13487  -0.12800
 Alpha virt. eigenvalues --   -0.12505  -0.10779  -0.08513  -0.07911  -0.06634
 Alpha virt. eigenvalues --   -0.05355  -0.05334  -0.04645  -0.04455  -0.04313
 Alpha virt. eigenvalues --   -0.03597  -0.02867  -0.01987  -0.01523  -0.00809
 Alpha virt. eigenvalues --    0.00093   0.00397   0.01147   0.02143   0.02467
 Alpha virt. eigenvalues --    0.02606   0.02881   0.03016   0.03634   0.04697
 Alpha virt. eigenvalues --    0.05034   0.05151   0.06599   0.07255   0.08276
 Alpha virt. eigenvalues --    0.08738   0.11368   0.12083   0.14130   0.14901
 Alpha virt. eigenvalues --    0.15696   0.15789   0.17412   0.17723   0.17931
 Alpha virt. eigenvalues --    0.19640   0.21593   0.22264   0.24348   0.27088
 Alpha virt. eigenvalues --    0.27898   0.29848   0.31740   0.32172   0.32427
 Alpha virt. eigenvalues --    0.35782   0.40322   0.42895   0.44629   0.50833
 Alpha virt. eigenvalues --    0.53415   0.56522   0.57008   0.64778   0.70080
 Alpha virt. eigenvalues --    0.79506   0.89987   0.98077   0.98325   1.10008
 Alpha virt. eigenvalues --    1.12189   1.12841   1.14684   1.15992   1.18962
 Alpha virt. eigenvalues --    1.20094   1.24881   1.24927   1.25825   1.26340
 Alpha virt. eigenvalues --    1.29038   1.44346   1.48591   1.54102   1.68272
 Alpha virt. eigenvalues --    1.70725   1.72878   1.73102   1.76250   1.78193
 Alpha virt. eigenvalues --    1.78675   1.80774   1.81645   1.82240   1.82895
 Alpha virt. eigenvalues --    1.91077   1.95742   1.98510   2.14270   2.15009
 Alpha virt. eigenvalues --    2.25185   2.53140   2.59737   2.74535   2.81939
 Alpha virt. eigenvalues --    3.47281   4.00166   4.02595   4.11990   4.32618
          Condensed to atoms (all electrons):
              1          2          3          4          5          6
     1  O    8.823818   0.178811  -0.168757  -0.040446   0.021966   0.050876
     2  P    0.178811  12.905038   0.178818  -0.045628   0.053325   0.053300
     3  O   -0.168757   0.178818   8.823897  -0.040529   0.050839   0.021975
     4  O   -0.040446  -0.045628  -0.040529   8.922244   0.090569   0.090651
     5  Ca   0.021966   0.053325   0.050839   0.090569  18.228381  -0.018859
     6  Ca   0.050876   0.053300   0.021975   0.090651  -0.018859  18.228392
     7  O   -0.040436  -0.045479  -0.040418   0.040986   0.090685   0.090594
              7
     1  O   -0.040436
     2  P   -0.045479
     3  O   -0.040418
     4  O    0.040986
     5  Ca   0.090685
     6  Ca   0.090594
     7  O    8.922543
 Mulliken atomic charges:
              1
     1  O   -0.825832
     2  P    1.721815
     3  O   -0.825825
     4  O   -1.017847
     5  Ca   1.483093
     6  Ca   1.483072
     7  O   -1.018476
 Sum of Mulliken charges=   1.00000
 Atomic charges with hydrogens summed into heavy atoms:
              1
     1  O   -0.825832
     2  P    1.721815
     3  O   -0.825825
     4  O   -1.017847
     5  Ca   1.483093
     6  Ca   1.483072
     7  O   -1.018476
 Sum of Mulliken charges=   1.00000
 Electronic spatial extent (au):  <R**2>=  1134.9085
 Charge=     1.0000 electrons
 Dipole moment (field-independent basis, Debye):
    X=    -0.0003    Y=   -13.9800    Z=     0.0045  Tot=    13.9800
 Quadrupole moment (field-independent basis, Debye-Ang):
   XX=     3.4912   YY=   -55.5429   ZZ=   -66.8018
   XY=     0.0015   XZ=    -0.0037   YZ=    -0.0038
 Traceless Quadrupole moment (field-independent basis, Debye-Ang):
   XX=    43.1091   YY=   -15.9251   ZZ=   -27.1840
   XY=     0.0015   XZ=    -0.0037   YZ=    -0.0038
 Octapole moment (field-independent basis, Debye-Ang**2):
  XXX=    -0.0022  YYY=   -48.5469  ZZZ=    -0.0064  XYY=    -0.0010
  XXY=   -85.7982  XXZ=     0.0110  XZZ=    -0.0012  YZZ=    -4.0769
  YYZ=     0.0160  XYZ=     0.0060
 Hexadecapole moment (field-independent basis, Debye-Ang**3):
 XXXX=  -325.2900 YYYY=  -337.3596 ZZZZ=  -197.0257 XXXY=     0.0069
 XXXZ=    -0.0055 YYYX=     0.0018 YYYZ=     0.0030 ZZZX=    -0.0116
 ZZZY=    -0.0152 XXYY=  -143.3707 XXZZ=  -133.1790 YYZZ=   -84.0120
 XXYZ=     0.0063 YYXZ=     0.0021 ZZXY=    -0.0009
 N-N= 6.668503766145D+02 E-N=-6.052310517830D+03  KE= 1.991124741168D+03
 Merz-Kollman atomic radii used.
 Read replacement radii for each type of atom:
 Rad(20) =   1.188000000000D+00
 Atom Element Radius
    1     8    1.40
    2    15    1.80
    3     8    1.40
    4     8    1.40
    5    20    1.19
    6    20    1.19
    7     8    1.40

 **********************************************************************

            Electrostatic Properties Using The SCF Density

 **********************************************************************

       Atomic Center    1 is at   1.381746  1.464357 -0.000720
       Atomic Center    2 is at  -0.000045  0.800011  0.000010
       Atomic Center    3 is at  -1.381784  1.464394 -0.000330
       Atomic Center    4 is at   0.000492 -0.329649  1.197520
       Atomic Center    5 is at  -2.068889 -0.753584  0.000100
       Atomic Center    6 is at   2.068881 -0.753545  0.000000
       Atomic Center    7 is at  -0.000348 -0.331299 -1.196740
     594 points will be used for fitting atomic charges
 Fitting point charges to eletrostatic potential
 Charges from ESP fit, RMS=   0.00408 RRMS=   0.02331:
 Charge=   1.00000 Dipole=     0.0001   -14.0462     0.0045 Tot=    14.0462
              1
     1  O   -0.869566
     2  P    1.748159
     3  O   -0.872013
     4  O   -1.209766
     5  Ca   1.707552
     6  Ca   1.706043
     7  O   -1.210410
 -----------------------------------------------------------------

              Electrostatic Properties (Atomic Units)

 -----------------------------------------------------------------
    Center     Electric         -------- Electric Field --------
               Potential          X             Y             Z
 -----------------------------------------------------------------
    1 Atom    -22.238694
    2 Atom    -53.892347
    3 Atom    -22.238912
    4 Atom    -22.240559
    5 Atom    -79.963728
    6 Atom    -79.963751
    7 Atom    -22.241205
 -----------------------------------------------------------------
 1\1\GINC-N030\SP\RB3LYP\6-31+G(d,p)\Ca2O4P1(1+)\TIMN\12-Jun-2015\0\\# 
 b3lyp/6-31+G(d,p) int=ultrafine pop=(ReadRadii,MK)\\mol_16.4.6.pdbc_pl
 usQ.out.z51611.zip.xyz\\1,1\O,0,1.38174,1.46436,-0.00072\P,0,-0.00005,
 0.80001,0.00001\O,0,-1.38179,1.46439,-0.00033\O,0,0.00049,-0.32965,1.1
 9752\Ca,0,-2.06889,-0.75359,0.0001\Ca,0,2.06888,-0.75354,0.\O,0,-0.000
 35,-0.3313,-1.19674\\Version=EM64T-G03RevE.01\State=1-A\HF=-1997.39007
 81\RMSD=1.127e-05\Thermal=0.\Dipole=-0.0001183,-5.5001665,0.0017625\PG
 =C01 [X(Ca2O4P1)]\\@


 QUHEN THE CAUSS IS TAKEN AWAY THE EFFECT WANISHETH.
 -- PROVERBS AND REASONS OF THE YEAR 1585
           AS REPRINTED IN PAISLEY MAGAZINE 1828.
 Job cpu time:  0 days  0 hours  1 minutes  1.6 seconds.
 File lengths (MBytes):  RWF=     28 Int=      0 D2E=      0 Chk=     10 Scr=      1
 Normal termination of Gaussian 03 at Fri Jun 12 17:49:10 2015.
