 Entering Gaussian System, Link 0=/home/timn/tmp/g03.e01/g03
 Input=mol_17.28.33.pdbccc_plusQ.z58557.zip.xyz.gjf
 Output=mol_17.28.33.pdbccc_plusQ.z58557.zip.xyz.out
 Initial command:
 /home/timn/tmp/g03.e01/l1.exe /home/timn/tmp/g03.e01/Gau-18910.inp -scrdir=/home/timn/tmp/g03.e01/
 Default is to use a total of   2 processors:
                                2 via shared-memory
                                1 via Linda
 Entering Link 1 = /home/timn/tmp/g03.e01/l1.exe PID=     18911.
  
 Copyright (c) 1988,1990,1992,1993,1995,1998,2003,2004,2007, Gaussian, Inc.
                  All Rights Reserved.
  
 This is the Gaussian(R) 03 program.  It is based on the
 the Gaussian(R) 98 system (copyright 1998, Gaussian, Inc.),
 the Gaussian(R) 94 system (copyright 1995, Gaussian, Inc.),
 the Gaussian 92(TM) system (copyright 1992, Gaussian, Inc.),
 the Gaussian 90(TM) system (copyright 1990, Gaussian, Inc.),
 the Gaussian 88(TM) system (copyright 1988, Gaussian, Inc.),
 the Gaussian 86(TM) system (copyright 1986, Carnegie Mellon
 University), and the Gaussian 82(TM) system (copyright 1983,
 Carnegie Mellon University). Gaussian is a federally registered
 trademark of Gaussian, Inc.
  
 This software contains proprietary and confidential information,
 including trade secrets, belonging to Gaussian, Inc.
  
 This software is provided under written license and may be
 used, copied, transmitted, or stored only in accord with that
 written license.
  
 The following legend is applicable only to US Government
 contracts under FAR:
  
                    RESTRICTED RIGHTS LEGEND
  
 Use, reproduction and disclosure by the US Government is
 subject to restrictions as set forth in subparagraphs (a)
 and (c) of the Commercial Computer Software - Restricted
 Rights clause in FAR 52.227-19.
  
 Gaussian, Inc.
 340 Quinnipiac St., Bldg. 40, Wallingford CT 06492
  
  
 ---------------------------------------------------------------
 Warning -- This program may not be used in any manner that
 competes with the business of Gaussian, Inc. or will provide
 assistance to any competitor of Gaussian, Inc.  The licensee
 of this program is prohibited from giving any competitor of
 Gaussian, Inc. access to this program.  By using this program,
 the user acknowledges that Gaussian, Inc. is engaged in the
 business of creating and licensing software in the field of
 computational chemistry and represents and warrants to the
 licensee that it is not a competitor of Gaussian, Inc. and that
 it will not use this program in any manner prohibited above.
 ---------------------------------------------------------------
  

 Cite this work as:
 Gaussian 03, Revision E.01,
 M. J. Frisch, G. W. Trucks, H. B. Schlegel, G. E. Scuseria, 
 M. A. Robb, J. R. Cheeseman, J. A. Montgomery, Jr., T. Vreven, 
 K. N. Kudin, J. C. Burant, J. M. Millam, S. S. Iyengar, J. Tomasi, 
 V. Barone, B. Mennucci, M. Cossi, G. Scalmani, N. Rega, 
 G. A. Petersson, H. Nakatsuji, M. Hada, M. Ehara, K. Toyota, 
 R. Fukuda, J. Hasegawa, M. Ishida, T. Nakajima, Y. Honda, O. Kitao, 
 H. Nakai, M. Klene, X. Li, J. E. Knox, H. P. Hratchian, J. B. Cross, 
 V. Bakken, C. Adamo, J. Jaramillo, R. Gomperts, R. E. Stratmann, 
 O. Yazyev, A. J. Austin, R. Cammi, C. Pomelli, J. W. Ochterski, 
 P. Y. Ayala, K. Morokuma, G. A. Voth, P. Salvador, J. J. Dannenberg, 
 V. G. Zakrzewski, S. Dapprich, A. D. Daniels, M. C. Strain, 
 O. Farkas, D. K. Malick, A. D. Rabuck, K. Raghavachari, 
 J. B. Foresman, J. V. Ortiz, Q. Cui, A. G. Baboul, S. Clifford, 
 J. Cioslowski, B. B. Stefanov, G. Liu, A. Liashenko, P. Piskorz, 
 I. Komaromi, R. L. Martin, D. J. Fox, T. Keith, M. A. Al-Laham, 
 C. Y. Peng, A. Nanayakkara, M. Challacombe, P. M. W. Gill, 
 B. Johnson, W. Chen, M. W. Wong, C. Gonzalez, and J. A. Pople, 
 Gaussian, Inc., Wallingford CT, 2004.
 
 ******************************************
 Gaussian 03:  EM64T-G03RevE.01 11-Sep-2007
                12-Jun-2015 
 ******************************************
 %nproc=2
 Will use up to    2 processors via shared memory.
 Default route:  MP2=Direct MaxDisk=2000MB
 ----------------------------------------------------
 # b3lyp/6-31+G(d,p) int=ultrafine pop=(ReadRadii,MK)
 ----------------------------------------------------

 Warning!  SCF SP cutoffs with diffuse functions may be unreliable.
 Consider SCF=Tight

 1/38=1/1;
 2/17=6,18=5,40=1/2;
 3/5=1,6=6,7=111,11=2,16=1,25=1,30=1,74=-5,75=5/1,2,3;
 4//1;
 5/5=2,32=1,38=5/2;
 6/7=2,8=2,9=2,10=2,15=8,20=101,28=1/1,2;
 99/5=1,9=1/99;
 ----------------------------------------
 mol_17.28.33.pdbccc_plusQ.z58557.zip.xyz
 ----------------------------------------
 Symbolic Z-matrix:
 Charge =  1 Multiplicity = 1
 O                     1.72591  -1.4915    0.00012 
 O                    -0.56478   1.106    -0.0002 
 Ca                   -2.81832   0.99357   0.00015 
 O                    -2.7128   -1.08837   0.78501 
 O                    -2.71306  -1.08832  -0.78483 
 Ca                   -0.59799  -1.30829  -0.00026 
 P                     3.19443  -1.02913   0.0002 
 Ca                    1.43233   1.90253  -0.00003 
 O                     3.23512   0.52227  -0.00015 
 
                          Input orientation:                          
 ---------------------------------------------------------------------
 Center     Atomic     Atomic              Coordinates (Angstroms)
 Number     Number      Type              X           Y           Z
 ---------------------------------------------------------------------
    1          8             0        1.725910   -1.491500    0.000120
    2          8             0       -0.564780    1.106000   -0.000200
    3         20             0       -2.818320    0.993570    0.000150
    4          8             0       -2.712800   -1.088370    0.785010
    5          8             0       -2.713060   -1.088320   -0.784830
    6         20             0       -0.597990   -1.308290   -0.000260
    7         15             0        3.194430   -1.029130    0.000200
    8         20             0        1.432330    1.902530   -0.000030
    9          8             0        3.235120    0.522270   -0.000150
 ---------------------------------------------------------------------
                    Distance matrix (angstroms):
                    1          2          3          4          5
     1  O    0.000000
     2  O    3.463274   0.000000
     3  Ca   5.179344   2.256343   0.000000
     4  O    4.525562   3.169512   2.227468   0.000000
     5  O    4.525832   3.169510   2.227451   1.569840   0.000000
     6  Ca   2.331111   2.414518   3.198191   2.266591   2.266596
     7  P    1.539590   4.323244   6.343854   5.959430   5.959716
     8  Ca   3.406704   2.150095   4.346750   5.171448   5.171591
     9  O    2.516542   3.844474   6.071759   6.211955   6.212131
                    6          7          8          9
     6  Ca   0.000000
     7  P    3.802681   0.000000
     8  Ca   3.798890   3.420472   0.000000
     9  O    4.247786   1.551934   2.270500   0.000000
 Stoichiometry    Ca3O5P(1+)
 Framework group  C1[X(Ca3O5P)]
 Deg. of freedom    21
 Full point group                 C1
 Largest Abelian subgroup         C1      NOp   1
 Largest concise Abelian subgroup C1      NOp   1
                         Standard orientation:                         
 ---------------------------------------------------------------------
 Center     Atomic     Atomic              Coordinates (Angstroms)
 Number     Number      Type              X           Y           Z
 ---------------------------------------------------------------------
    1          8             0        1.725912   -1.491497    0.000122
    2          8             0       -0.564781    1.106000   -0.000198
    3         20             0       -2.818321    0.993567    0.000152
    4          8             0       -2.712798   -1.088373    0.785012
    5          8             0       -2.713058   -1.088323   -0.784828
    6         20             0       -0.597988   -1.308290   -0.000258
    7         15             0        3.194432   -1.029125    0.000202
    8         20             0        1.432328    1.902533   -0.000028
    9          8             0        3.235120    0.522275   -0.000148
 ---------------------------------------------------------------------
 Rotational constants (GHZ):      1.2559173      0.4193888      0.3223044
 Standard basis: 6-31+G(d,p) (6D, 7F)
 There are   199 symmetry adapted basis functions of A   symmetry.
 Integral buffers will be    131072 words long.
 Raffenetti 2 integral format.
 Two-electron integral symmetry is turned on.
   199 basis functions,   456 primitive gaussians,   199 cartesian basis functions
    57 alpha electrons       57 beta electrons
       nuclear repulsion energy       946.9438386801 Hartrees.
 NAtoms=    9 NActive=    9 NUniq=    9 SFac= 7.50D-01 NAtFMM=   80 NAOKFM=F Big=F
 One-electron integrals computed using PRISM.
 NBasis=   199 RedAO= T  NBF=   199
 NBsUse=   199 1.00D-06 NBFU=   199
 Harris functional with IExCor=  402 diagonalized for initial guess.
 ExpMin= 7.10D-03 ExpMax= 3.53D+04 ExpMxC= 5.30D+03 IAcc=3 IRadAn=         5 AccDes= 0.00D+00
 HarFok:  IExCor= 402 AccDes= 0.00D+00 IRadAn=         5 IDoV=1
 ScaDFX=  1.000000  1.000000  1.000000  1.000000
 Initial guess orbital symmetries:
       Occupied  (A) (A) (A) (A) (A) (A) (A) (A) (A) (A) (A) (A)
                 (A) (A) (A) (A) (A) (A) (A) (A) (A) (A) (A) (A)
                 (A) (A) (A) (A) (A) (A) (A) (A) (A) (A) (A) (A)
                 (A) (A) (A) (A) (A) (A) (A) (A) (A) (A) (A) (A)
                 (A) (A) (A) (A) (A) (A) (A) (A) (A)
       Virtual   (A) (A) (A) (A) (A) (A) (A) (A) (A) (A) (A) (A)
                 (A) (A) (A) (A) (A) (A) (A) (A) (A) (A) (A) (A)
                 (A) (A) (A) (A) (A) (A) (A) (A) (A) (A) (A) (A)
                 (A) (A) (A) (A) (A) (A) (A) (A) (A) (A) (A) (A)
                 (A) (A) (A) (A) (A) (A) (A) (A) (A) (A) (A) (A)
                 (A) (A) (A) (A) (A) (A) (A) (A) (A) (A) (A) (A)
                 (A) (A) (A) (A) (A) (A) (A) (A) (A) (A) (A) (A)
                 (A) (A) (A) (A) (A) (A) (A) (A) (A) (A) (A) (A)
                 (A) (A) (A) (A) (A) (A) (A) (A) (A) (A) (A) (A)
                 (A) (A) (A) (A) (A) (A) (A) (A) (A) (A) (A) (A)
                 (A) (A) (A) (A) (A) (A) (A) (A) (A) (A) (A) (A)
                 (A) (A) (A) (A) (A) (A) (A) (A) (A) (A)
 The electronic state of the initial guess is 1-A.
 Requested convergence on RMS density matrix=1.00D-04 within 128 cycles.
 Requested convergence on MAX density matrix=1.00D-02.
 Requested convergence on             energy=1.00D-02.
 No special actions if energy rises.
 EnCoef did     1 forward-backward iterations
 SCF Done:  E(RB+HF-LYP) =  -2750.20951950     A.U. after    8 cycles
             Convg  =    0.5066D-04             -V/T =  2.0029
             S**2   =   0.0000

 **********************************************************************

            Population analysis using the SCF density.

 **********************************************************************

 Orbital symmetries:
       Occupied  (A) (A) (A) (A) (A) (A) (A) (A) (A) (A) (A) (A)
                 (A) (A) (A) (A) (A) (A) (A) (A) (A) (A) (A) (A)
                 (A) (A) (A) (A) (A) (A) (A) (A) (A) (A) (A) (A)
                 (A) (A) (A) (A) (A) (A) (A) (A) (A) (A) (A) (A)
                 (A) (A) (A) (A) (A) (A) (A) (A) (A)
       Virtual   (A) (A) (A) (A) (A) (A) (A) (A) (A) (A) (A) (A)
                 (A) (A) (A) (A) (A) (A) (A) (A) (A) (A) (A) (A)
                 (A) (A) (A) (A) (A) (A) (A) (A) (A) (A) (A) (A)
                 (A) (A) (A) (A) (A) (A) (A) (A) (A) (A) (A) (A)
                 (A) (A) (A) (A) (A) (A) (A) (A) (A) (A) (A) (A)
                 (A) (A) (A) (A) (A) (A) (A) (A) (A) (A) (A) (A)
                 (A) (A) (A) (A) (A) (A) (A) (A) (A) (A) (A) (A)
                 (A) (A) (A) (A) (A) (A) (A) (A) (A) (A) (A) (A)
                 (A) (A) (A) (A) (A) (A) (A) (A) (A) (A) (A) (A)
                 (A) (A) (A) (A) (A) (A) (A) (A) (A) (A) (A) (A)
                 (A) (A) (A) (A) (A) (A) (A) (A) (A) (A) (A) (A)
                 (A) (A) (A) (A) (A) (A) (A) (A) (A) (A)
 The electronic state is 1-A.
 Alpha  occ. eigenvalues -- -145.53396-145.48023-145.44978 -77.30022 -19.27964
 Alpha  occ. eigenvalues --  -19.27482 -19.19914 -19.19908 -19.17880 -15.60298
 Alpha  occ. eigenvalues --  -15.54889 -15.51856 -12.73554 -12.73507 -12.73334
 Alpha  occ. eigenvalues --  -12.68098 -12.68071 -12.67999 -12.65099 -12.65062
 Alpha  occ. eigenvalues --  -12.64932  -6.75541  -4.91985  -4.91757  -4.91321
 Alpha  occ. eigenvalues --   -1.97519  -1.92194  -1.89239  -1.25377  -1.25257
 Alpha  occ. eigenvalues --   -1.24382  -1.20508  -1.19792  -1.19393  -1.17218
 Alpha  occ. eigenvalues --   -1.17082  -1.16764  -1.13769  -1.08258  -1.02445
 Alpha  occ. eigenvalues --   -0.92462  -0.83749  -0.67357  -0.56792  -0.52840
 Alpha  occ. eigenvalues --   -0.52587  -0.45478  -0.43600  -0.43400  -0.41977
 Alpha  occ. eigenvalues --   -0.41117  -0.40749  -0.37991  -0.37313  -0.36419
 Alpha  occ. eigenvalues --   -0.30523  -0.28910
 Alpha virt. eigenvalues --   -0.21329  -0.19765  -0.18064  -0.13534  -0.13442
 Alpha virt. eigenvalues --   -0.11691  -0.10903  -0.10463  -0.08649  -0.08278
 Alpha virt. eigenvalues --   -0.07168  -0.06873  -0.06457  -0.06203  -0.05657
 Alpha virt. eigenvalues --   -0.05516  -0.04723  -0.04635  -0.04613  -0.04285
 Alpha virt. eigenvalues --   -0.03761  -0.03629  -0.03453  -0.03300  -0.03129
 Alpha virt. eigenvalues --   -0.02675  -0.02580  -0.02060  -0.01581   0.00557
 Alpha virt. eigenvalues --    0.00842   0.02236   0.03293   0.03714   0.03967
 Alpha virt. eigenvalues --    0.04367   0.04686   0.05413   0.06070   0.06133
 Alpha virt. eigenvalues --    0.06476   0.07046   0.07467   0.07675   0.08275
 Alpha virt. eigenvalues --    0.08430   0.10254   0.10981   0.11255   0.11331
 Alpha virt. eigenvalues --    0.13157   0.14021   0.14944   0.15748   0.17099
 Alpha virt. eigenvalues --    0.17102   0.17936   0.19388   0.19777   0.20754
 Alpha virt. eigenvalues --    0.21394   0.22646   0.23694   0.25449   0.26718
 Alpha virt. eigenvalues --    0.27620   0.29622   0.31176   0.31676   0.31941
 Alpha virt. eigenvalues --    0.33453   0.35114   0.36311   0.37202   0.38472
 Alpha virt. eigenvalues --    0.40685   0.43727   0.46240   0.48330   0.53215
 Alpha virt. eigenvalues --    0.53707   0.56112   0.56492   0.58892   0.62019
 Alpha virt. eigenvalues --    0.69414   0.83803   0.89919   0.94247   1.03043
 Alpha virt. eigenvalues --    1.06345   1.07895   1.08675   1.10160   1.10498
 Alpha virt. eigenvalues --    1.15092   1.18023   1.18484   1.19153   1.20883
 Alpha virt. eigenvalues --    1.20957   1.24160   1.25780   1.29665   1.32689
 Alpha virt. eigenvalues --    1.38071   1.41650   1.43417   1.51979   1.54157
 Alpha virt. eigenvalues --    1.55003   1.66100   1.66890   1.68524   1.70573
 Alpha virt. eigenvalues --    1.71038   1.76779   1.77257   1.77416   1.79906
 Alpha virt. eigenvalues --    1.82589   1.84479   1.85076   1.85615   1.86862
 Alpha virt. eigenvalues --    1.87733   1.92701   1.94515   2.01970   2.09785
 Alpha virt. eigenvalues --    2.16982   2.21956   2.24286   2.53608   2.68668
 Alpha virt. eigenvalues --    3.07104   3.39454   3.84576   3.90256   3.93976
 Alpha virt. eigenvalues --    4.13722   4.14727
          Condensed to atoms (all electrons):
              1          2          3          4          5          6
     1  O    8.824884  -0.010435   0.009594  -0.000626  -0.000630   0.043528
     2  O   -0.010435   9.017627   0.105145  -0.004352  -0.004348   0.054363
     3  Ca   0.009594   0.105145  18.303818   0.102999   0.102999  -0.047661
     4  O   -0.000626  -0.004352   0.102999   8.484179  -0.032710   0.102243
     5  O   -0.000630  -0.004348   0.102999  -0.032710   8.484156   0.102265
     6  Ca   0.043528   0.054363  -0.047661   0.102243   0.102265  18.336670
     7  P   -0.110004  -0.005757  -0.014942  -0.000224  -0.000224   0.008695
     8  Ca   0.003414   0.192246  -0.009755  -0.000351  -0.000358  -0.006156
     9  O   -0.082307   0.003541   0.004350   0.000044   0.000044  -0.000362
              7          8          9
     1  O   -0.110004   0.003414  -0.082307
     2  O   -0.005757   0.192246   0.003541
     3  Ca  -0.014942  -0.009755   0.004350
     4  O   -0.000224  -0.000351   0.000044
     5  O   -0.000224  -0.000358   0.000044
     6  Ca   0.008695  -0.006156  -0.000362
     7  P   14.541062  -0.033654  -0.050875
     8  Ca  -0.033654  18.240465   0.086642
     9  O   -0.050875   0.086642   8.754375
 Mulliken atomic charges:
              1
     1  O   -0.677417
     2  O   -1.348030
     3  Ca   1.443453
     4  O   -0.651202
     5  O   -0.651194
     6  Ca   1.406415
     7  P    0.665923
     8  Ca   1.527506
     9  O   -0.715452
 Sum of Mulliken charges=   1.00000
 Atomic charges with hydrogens summed into heavy atoms:
              1
     1  O   -0.677417
     2  O   -1.348030
     3  Ca   1.443453
     4  O   -0.651202
     5  O   -0.651194
     6  Ca   1.406415
     7  P    0.665923
     8  Ca   1.527506
     9  O   -0.715452
 Sum of Mulliken charges=   1.00000
 Electronic spatial extent (au):  <R**2>=  2955.7316
 Charge=     1.0000 electrons
 Dipole moment (field-independent basis, Debye):
    X=     1.2578    Y=    12.1937    Z=     0.0001  Tot=    12.2584
 Quadrupole moment (field-independent basis, Debye-Ang):
   XX=   -63.3347   YY=   -46.1924   ZZ=   -77.2341
   XY=   -15.9568   XZ=    -0.0007   YZ=     0.0068
 Traceless Quadrupole moment (field-independent basis, Debye-Ang):
   XX=    -1.0810   YY=    16.0613   ZZ=   -14.9803
   XY=   -15.9568   XZ=    -0.0007   YZ=     0.0068
 Octapole moment (field-independent basis, Debye-Ang**2):
  XXX=   -86.9937  YYY=    79.9530  ZZZ=    -0.0024  XYY=    20.8161
  XXY=   125.5991  XXZ=     0.0127  XZZ=     8.9343  YZZ=    12.7828
  YYZ=    -0.0043  XYZ=    -0.0055
 Hexadecapole moment (field-independent basis, Debye-Ang**3):
 XXXX= -2459.1304 YYYY=  -630.8900 ZZZZ=  -129.1339 XXXY=  -382.4238
 XXXZ=    -0.0276 YYYX=    77.4186 YYYZ=     0.0227 ZZZX=    -0.0017
 ZZZY=     0.0145 XXYY=  -482.2787 XXZZ=  -454.9807 YYZZ=  -148.8218
 XXYZ=     0.0245 YYXZ=    -0.0074 ZZXY=   -13.7125
 N-N= 9.469438386801D+02 E-N=-8.395462112889D+03  KE= 2.742217378959D+03
 Merz-Kollman atomic radii used.
 Read replacement radii for each type of atom:
 Rad(20) =   1.188000000000D+00
 Atom Element Radius
    1     8    1.40
    2     8    1.40
    3    20    1.19
    4     8    1.40
    5     8    1.40
    6    20    1.19
    7    15    1.80
    8    20    1.19
    9     8    1.40

 **********************************************************************

            Electrostatic Properties Using The SCF Density

 **********************************************************************

       Atomic Center    1 is at   1.725912 -1.491497  0.000122
       Atomic Center    2 is at  -0.564781  1.106000 -0.000198
       Atomic Center    3 is at  -2.818321  0.993567  0.000152
       Atomic Center    4 is at  -2.712798 -1.088373  0.785012
       Atomic Center    5 is at  -2.713058 -1.088323 -0.784828
       Atomic Center    6 is at  -0.597988 -1.308290 -0.000258
       Atomic Center    7 is at   3.194432 -1.029125  0.000202
       Atomic Center    8 is at   1.432328  1.902533 -0.000028
       Atomic Center    9 is at   3.235120  0.522275 -0.000148
     886 points will be used for fitting atomic charges
 Fitting point charges to eletrostatic potential
 Charges from ESP fit, RMS=   0.00467 RRMS=   0.03163:
 Charge=   1.00000 Dipole=     1.3122    12.4021     0.0004 Tot=    12.4714
              1
     1  O   -0.668795
     2  O   -1.743124
     3  Ca   1.685387
     4  O   -0.773599
     5  O   -0.773547
     6  Ca   1.677983
     7  P    0.572402
     8  Ca   1.741696
     9  O   -0.718403
 -----------------------------------------------------------------

              Electrostatic Properties (Atomic Units)

 -----------------------------------------------------------------
    Center     Electric         -------- Electric Field --------
               Potential          X             Y             Z
 -----------------------------------------------------------------
    1 Atom    -22.184936
    2 Atom    -22.285682
    3 Atom    -80.060365
    4 Atom    -22.271066
    5 Atom    -22.271066
    6 Atom    -80.090751
    7 Atom    -53.920064
    8 Atom    -80.006600
    9 Atom    -22.189642
 -----------------------------------------------------------------
 1\1\GINC-N021\SP\RB3LYP\6-31+G(d,p)\Ca3O5P1(1+)\TIMN\12-Jun-2015\0\\# 
 b3lyp/6-31+G(d,p) int=ultrafine pop=(ReadRadii,MK)\\mol_17.28.33.pdbcc
 c_plusQ.z58557.zip.xyz\\1,1\O,0,1.72591,-1.4915,0.00012\O,0,-0.56478,1
 .106,-0.0002\Ca,0,-2.81832,0.99357,0.00015\O,0,-2.7128,-1.08837,0.7850
 1\O,0,-2.71306,-1.08832,-0.78483\Ca,0,-0.59799,-1.30829,-0.00026\P,0,3
 .19443,-1.02913,0.0002\Ca,0,1.43233,1.90253,-0.00003\O,0,3.23512,0.522
 27,-0.00015\\Version=EM64T-G03RevE.01\State=1-A\HF=-2750.2095195\RMSD=
 5.066e-05\Thermal=0.\Dipole=0.4948605,4.7973641,0.000042\PG=C01 [X(Ca3
 O5P1)]\\@


 A great many people think they are thinking when they
 are merely rearranging their prejudices.
                               -- William James
 Job cpu time:  0 days  0 hours  1 minutes 51.6 seconds.
 File lengths (MBytes):  RWF=     36 Int=      0 D2E=      0 Chk=     11 Scr=      1
 Normal termination of Gaussian 03 at Fri Jun 12 18:09:41 2015.
