 Entering Gaussian System, Link 0=/home/timn/tmp/g03.e01/g03
 Input=mol_16.5.4.pdb_plusQ.out.z51629.zip.xyz.gjf
 Output=mol_16.5.4.pdb_plusQ.out.z51629.zip.xyz.out
 Initial command:
 /home/timn/tmp/g03.e01/l1.exe /home/timn/tmp/g03.e01/Gau-19328.inp -scrdir=/home/timn/tmp/g03.e01/
 Default is to use a total of   2 processors:
                                2 via shared-memory
                                1 via Linda
 Entering Link 1 = /home/timn/tmp/g03.e01/l1.exe PID=     19329.
  
 Copyright (c) 1988,1990,1992,1993,1995,1998,2003,2004,2007, Gaussian, Inc.
                  All Rights Reserved.
  
 This is the Gaussian(R) 03 program.  It is based on the
 the Gaussian(R) 98 system (copyright 1998, Gaussian, Inc.),
 the Gaussian(R) 94 system (copyright 1995, Gaussian, Inc.),
 the Gaussian 92(TM) system (copyright 1992, Gaussian, Inc.),
 the Gaussian 90(TM) system (copyright 1990, Gaussian, Inc.),
 the Gaussian 88(TM) system (copyright 1988, Gaussian, Inc.),
 the Gaussian 86(TM) system (copyright 1986, Carnegie Mellon
 University), and the Gaussian 82(TM) system (copyright 1983,
 Carnegie Mellon University). Gaussian is a federally registered
 trademark of Gaussian, Inc.
  
 This software contains proprietary and confidential information,
 including trade secrets, belonging to Gaussian, Inc.
  
 This software is provided under written license and may be
 used, copied, transmitted, or stored only in accord with that
 written license.
  
 The following legend is applicable only to US Government
 contracts under FAR:
  
                    RESTRICTED RIGHTS LEGEND
  
 Use, reproduction and disclosure by the US Government is
 subject to restrictions as set forth in subparagraphs (a)
 and (c) of the Commercial Computer Software - Restricted
 Rights clause in FAR 52.227-19.
  
 Gaussian, Inc.
 340 Quinnipiac St., Bldg. 40, Wallingford CT 06492
  
  
 ---------------------------------------------------------------
 Warning -- This program may not be used in any manner that
 competes with the business of Gaussian, Inc. or will provide
 assistance to any competitor of Gaussian, Inc.  The licensee
 of this program is prohibited from giving any competitor of
 Gaussian, Inc. access to this program.  By using this program,
 the user acknowledges that Gaussian, Inc. is engaged in the
 business of creating and licensing software in the field of
 computational chemistry and represents and warrants to the
 licensee that it is not a competitor of Gaussian, Inc. and that
 it will not use this program in any manner prohibited above.
 ---------------------------------------------------------------
  

 Cite this work as:
 Gaussian 03, Revision E.01,
 M. J. Frisch, G. W. Trucks, H. B. Schlegel, G. E. Scuseria, 
 M. A. Robb, J. R. Cheeseman, J. A. Montgomery, Jr., T. Vreven, 
 K. N. Kudin, J. C. Burant, J. M. Millam, S. S. Iyengar, J. Tomasi, 
 V. Barone, B. Mennucci, M. Cossi, G. Scalmani, N. Rega, 
 G. A. Petersson, H. Nakatsuji, M. Hada, M. Ehara, K. Toyota, 
 R. Fukuda, J. Hasegawa, M. Ishida, T. Nakajima, Y. Honda, O. Kitao, 
 H. Nakai, M. Klene, X. Li, J. E. Knox, H. P. Hratchian, J. B. Cross, 
 V. Bakken, C. Adamo, J. Jaramillo, R. Gomperts, R. E. Stratmann, 
 O. Yazyev, A. J. Austin, R. Cammi, C. Pomelli, J. W. Ochterski, 
 P. Y. Ayala, K. Morokuma, G. A. Voth, P. Salvador, J. J. Dannenberg, 
 V. G. Zakrzewski, S. Dapprich, A. D. Daniels, M. C. Strain, 
 O. Farkas, D. K. Malick, A. D. Rabuck, K. Raghavachari, 
 J. B. Foresman, J. V. Ortiz, Q. Cui, A. G. Baboul, S. Clifford, 
 J. Cioslowski, B. B. Stefanov, G. Liu, A. Liashenko, P. Piskorz, 
 I. Komaromi, R. L. Martin, D. J. Fox, T. Keith, M. A. Al-Laham, 
 C. Y. Peng, A. Nanayakkara, M. Challacombe, P. M. W. Gill, 
 B. Johnson, W. Chen, M. W. Wong, C. Gonzalez, and J. A. Pople, 
 Gaussian, Inc., Wallingford CT, 2004.
 
 ******************************************
 Gaussian 03:  EM64T-G03RevE.01 11-Sep-2007
                12-Jun-2015 
 ******************************************
 %nproc=2
 Will use up to    2 processors via shared memory.
 Default route:  MP2=Direct MaxDisk=2000MB
 ----------------------------------------------------
 # b3lyp/6-31+G(d,p) int=ultrafine pop=(ReadRadii,MK)
 ----------------------------------------------------

 Warning!  SCF SP cutoffs with diffuse functions may be unreliable.
 Consider SCF=Tight

 1/38=1/1;
 2/17=6,18=5,40=1/2;
 3/5=1,6=6,7=111,11=2,16=1,25=1,30=1,74=-5,75=5/1,2,3;
 4//1;
 5/5=2,32=1,38=5/2;
 6/7=2,8=2,9=2,10=2,15=8,20=101,28=1/1,2;
 99/5=1,9=1/99;
 ---------------------------------------
 mol_16.5.4.pdb_plusQ.out.z51629.zip.xyz
 ---------------------------------------
 Symbolic Z-matrix:
 Charge =  1 Multiplicity = 1
 O                    -1.71326   0.00192   0.78636 
 O                    -1.71374   0.00193  -0.7859 
 P                     2.32004  -0.00265   0.00011 
 Ca                   -0.76385  -1.8573   -0.0001 
 O                     1.44075  -1.27497  -0.00005 
 Ca                   -0.75932   1.8589   -0.00006 
 O                     1.4441    1.27208  -0.00021 
 
                          Input orientation:                          
 ---------------------------------------------------------------------
 Center     Atomic     Atomic              Coordinates (Angstroms)
 Number     Number      Type              X           Y           Z
 ---------------------------------------------------------------------
    1          8             0       -1.713260    0.001920    0.786360
    2          8             0       -1.713740    0.001930   -0.785900
    3         15             0        2.320040   -0.002650    0.000110
    4         20             0       -0.763850   -1.857300   -0.000100
    5          8             0        1.440750   -1.274970   -0.000050
    6         20             0       -0.759320    1.858900   -0.000060
    7          8             0        1.444100    1.272080   -0.000210
 ---------------------------------------------------------------------
                    Distance matrix (angstroms):
                    1          2          3          4          5
     1  O    0.000000
     2  O    1.572260   0.000000
     3  P    4.109224   4.109649   0.000000
     4  Ca   2.230829   2.230809   3.598625   0.000000
     5  O    3.492373   3.492684   1.546593   2.280213   0.000000
     6  Ca   2.230882   2.230874   3.598309   3.716203   3.829027
     7  O    3.492982   3.493214   1.546676   3.829891   2.547052
                    6          7
     6  Ca   0.000000
     7  O    2.280223   0.000000
 Stoichiometry    Ca2O4P(1+)
 Framework group  C1[X(Ca2O4P)]
 Deg. of freedom    15
 Full point group                 C1
 Largest Abelian subgroup         C1      NOp   1
 Largest concise Abelian subgroup C1      NOp   1
                         Standard orientation:                         
 ---------------------------------------------------------------------
 Center     Atomic     Atomic              Coordinates (Angstroms)
 Number     Number      Type              X           Y           Z
 ---------------------------------------------------------------------
    1          8             0       -1.713260    0.001900    0.786359
    2          8             0       -1.713740    0.001910   -0.785901
    3         15             0        2.320040   -0.002621    0.000109
    4         20             0       -0.763828   -1.857308   -0.000101
    5          8             0        1.440765   -1.274952   -0.000051
    6         20             0       -0.759342    1.858892   -0.000061
    7          8             0        1.444085    1.272098   -0.000211
 ---------------------------------------------------------------------
 Rotational constants (GHZ):      1.4539183      1.2849759      0.7205732
 Standard basis: 6-31+G(d,p) (6D, 7F)
 There are   153 symmetry adapted basis functions of A   symmetry.
 Integral buffers will be    131072 words long.
 Raffenetti 2 integral format.
 Two-electron integral symmetry is turned on.
   153 basis functions,   344 primitive gaussians,   153 cartesian basis functions
    43 alpha electrons       43 beta electrons
       nuclear repulsion energy       602.1322053528 Hartrees.
 NAtoms=    7 NActive=    7 NUniq=    7 SFac= 7.50D-01 NAtFMM=   80 NAOKFM=F Big=F
 One-electron integrals computed using PRISM.
 NBasis=   153 RedAO= T  NBF=   153
 NBsUse=   153 1.00D-06 NBFU=   153
 Harris functional with IExCor=  402 diagonalized for initial guess.
 ExpMin= 7.10D-03 ExpMax= 3.53D+04 ExpMxC= 5.30D+03 IAcc=3 IRadAn=         5 AccDes= 0.00D+00
 HarFok:  IExCor= 402 AccDes= 0.00D+00 IRadAn=         5 IDoV=1
 ScaDFX=  1.000000  1.000000  1.000000  1.000000
 Initial guess orbital symmetries:
       Occupied  (A) (A) (A) (A) (A) (A) (A) (A) (A) (A) (A) (A)
                 (A) (A) (A) (A) (A) (A) (A) (A) (A) (A) (A) (A)
                 (A) (A) (A) (A) (A) (A) (A) (A) (A) (A) (A) (A)
                 (A) (A) (A) (A) (A) (A) (A)
       Virtual   (A) (A) (A) (A) (A) (A) (A) (A) (A) (A) (A) (A)
                 (A) (A) (A) (A) (A) (A) (A) (A) (A) (A) (A) (A)
                 (A) (A) (A) (A) (A) (A) (A) (A) (A) (A) (A) (A)
                 (A) (A) (A) (A) (A) (A) (A) (A) (A) (A) (A) (A)
                 (A) (A) (A) (A) (A) (A) (A) (A) (A) (A) (A) (A)
                 (A) (A) (A) (A) (A) (A) (A) (A) (A) (A) (A) (A)
                 (A) (A) (A) (A) (A) (A) (A) (A) (A) (A) (A) (A)
                 (A) (A) (A) (A) (A) (A) (A) (A) (A) (A) (A) (A)
                 (A) (A) (A) (A) (A) (A) (A) (A) (A) (A) (A) (A)
                 (A) (A)
 The electronic state of the initial guess is 1-A.
 Requested convergence on RMS density matrix=1.00D-04 within 128 cycles.
 Requested convergence on MAX density matrix=1.00D-02.
 Requested convergence on             energy=1.00D-02.
 No special actions if energy rises.
 SCF Done:  E(RB+HF-LYP) =  -1997.33372467     A.U. after    6 cycles
             Convg  =    0.4407D-04             -V/T =  2.0031
             S**2   =   0.0000

 **********************************************************************

            Population analysis using the SCF density.

 **********************************************************************

 Orbital symmetries:
       Occupied  (A) (A) (A) (A) (A) (A) (A) (A) (A) (A) (A) (A)
                 (A) (A) (A) (A) (A) (A) (A) (A) (A) (A) (A) (A)
                 (A) (A) (A) (A) (A) (A) (A) (A) (A) (A) (A) (A)
                 (A) (A) (A) (A) (A) (A) (A)
       Virtual   (A) (A) (A) (A) (A) (A) (A) (A) (A) (A) (A) (A)
                 (A) (A) (A) (A) (A) (A) (A) (A) (A) (A) (A) (A)
                 (A) (A) (A) (A) (A) (A) (A) (A) (A) (A) (A) (A)
                 (A) (A) (A) (A) (A) (A) (A) (A) (A) (A) (A) (A)
                 (A) (A) (A) (A) (A) (A) (A) (A) (A) (A) (A) (A)
                 (A) (A) (A) (A) (A) (A) (A) (A) (A) (A) (A) (A)
                 (A) (A) (A) (A) (A) (A) (A) (A) (A) (A) (A) (A)
                 (A) (A) (A) (A) (A) (A) (A) (A) (A) (A) (A) (A)
                 (A) (A) (A) (A) (A) (A) (A) (A) (A) (A) (A) (A)
                 (A) (A)
 The electronic state is 1-A.
 Alpha  occ. eigenvalues -- -145.53247-145.53246 -77.30164 -19.27956 -19.27950
 Alpha  occ. eigenvalues --  -19.25592 -19.25582 -15.60093 -15.60093 -12.73308
 Alpha  occ. eigenvalues --  -12.73308 -12.73290 -12.73290 -12.73208 -12.73206
 Alpha  occ. eigenvalues --   -6.75645  -4.92085  -4.91869  -4.91425  -1.97236
 Alpha  occ. eigenvalues --   -1.97210  -1.25765  -1.24806  -1.24792  -1.24726
 Alpha  occ. eigenvalues --   -1.24725  -1.24302  -1.13922  -1.08554  -1.08254
 Alpha  occ. eigenvalues --   -0.89518  -0.67706  -0.57281  -0.52822  -0.52600
 Alpha  occ. eigenvalues --   -0.48994  -0.47946  -0.46121  -0.45762  -0.43901
 Alpha  occ. eigenvalues --   -0.40701  -0.37188  -0.34164
 Alpha virt. eigenvalues --   -0.20456  -0.19854  -0.19631  -0.14479  -0.11367
 Alpha virt. eigenvalues --   -0.11280  -0.10319  -0.09666  -0.09039  -0.07375
 Alpha virt. eigenvalues --   -0.07215  -0.06432  -0.05962  -0.05215  -0.04858
 Alpha virt. eigenvalues --   -0.04431  -0.04389  -0.04083  -0.03999  -0.03874
 Alpha virt. eigenvalues --   -0.03337  -0.02378   0.00221   0.01109   0.02011
 Alpha virt. eigenvalues --    0.02949   0.03324   0.03644   0.04211   0.05048
 Alpha virt. eigenvalues --    0.05144   0.05190   0.06780   0.07028   0.07277
 Alpha virt. eigenvalues --    0.07477   0.08123   0.08216   0.12231   0.13582
 Alpha virt. eigenvalues --    0.14151   0.14768   0.16274   0.16814   0.16921
 Alpha virt. eigenvalues --    0.18689   0.20334   0.21715   0.24406   0.26748
 Alpha virt. eigenvalues --    0.28309   0.29465   0.31798   0.32144   0.32487
 Alpha virt. eigenvalues --    0.36021   0.36748   0.40441   0.43968   0.45538
 Alpha virt. eigenvalues --    0.48010   0.56597   0.57819   0.60212   0.65643
 Alpha virt. eigenvalues --    0.71341   0.87006   0.90191   0.94371   1.03576
 Alpha virt. eigenvalues --    1.05863   1.07983   1.08399   1.12008   1.12336
 Alpha virt. eigenvalues --    1.14814   1.15159   1.17892   1.20708   1.23936
 Alpha virt. eigenvalues --    1.28613   1.38344   1.43003   1.46783   1.50559
 Alpha virt. eigenvalues --    1.50918   1.58076   1.66233   1.68013   1.70631
 Alpha virt. eigenvalues --    1.71271   1.75750   1.80028   1.81208   1.82383
 Alpha virt. eigenvalues --    1.84421   1.85977   1.86052   1.92955   2.09463
 Alpha virt. eigenvalues --    2.16210   2.16977   2.53532   2.67508   3.00310
 Alpha virt. eigenvalues --    3.38475   3.83793   3.90575   3.97504   4.05863
          Condensed to atoms (all electrons):
              1          2          3          4          5          6
     1  O    8.515894  -0.059859  -0.004370   0.105933   0.002547   0.105943
     2  O   -0.059859   8.515699  -0.004398   0.105983   0.002541   0.105974
     3  P   -0.004370  -0.004398  14.566777  -0.019096  -0.094421  -0.019100
     4  Ca   0.105933   0.105983  -0.019096  18.210046   0.067439  -0.016661
     5  O    0.002547   0.002541  -0.094421   0.067439   8.815258   0.002340
     6  Ca   0.105943   0.105974  -0.019100  -0.016661   0.002340  18.210039
     7  O    0.002547   0.002546  -0.094217   0.002347  -0.085929   0.067458
              7
     1  O    0.002547
     2  O    0.002546
     3  P   -0.094217
     4  Ca   0.002347
     5  O   -0.085929
     6  Ca   0.067458
     7  O    8.815194
 Mulliken atomic charges:
              1
     1  O   -0.668634
     2  O   -0.668486
     3  P    0.668825
     4  Ca   1.544008
     5  O   -0.709774
     6  Ca   1.544007
     7  O   -0.709945
 Sum of Mulliken charges=   1.00000
 Atomic charges with hydrogens summed into heavy atoms:
              1
     1  O   -0.668634
     2  O   -0.668486
     3  P    0.668825
     4  Ca   1.544008
     5  O   -0.709774
     6  Ca   1.544007
     7  O   -0.709945
 Sum of Mulliken charges=   1.00000
 Electronic spatial extent (au):  <R**2>=  1378.3245
 Charge=     1.0000 electrons
 Dipole moment (field-independent basis, Debye):
    X=    -3.1399    Y=     0.0007    Z=    -0.0023  Tot=     3.1399
 Quadrupole moment (field-independent basis, Debye-Ang):
   XX=   -66.5066   YY=    -8.8863   ZZ=   -58.2533
   XY=     0.0654   XZ=     0.0040   YZ=     0.0014
 Traceless Quadrupole moment (field-independent basis, Debye-Ang):
   XX=   -21.9579   YY=    35.6624   ZZ=   -13.7045
   XY=     0.0654   XZ=     0.0040   YZ=     0.0014
 Octapole moment (field-independent basis, Debye-Ang**2):
  XXX=     6.9380  YYY=     0.2168  ZZZ=    -0.0071  XYY=   -70.8644
  XXY=    -0.1837  XXZ=    -0.0045  XZZ=     1.4171  YZZ=    -0.0026
  YYZ=    -0.0040  XYZ=     0.0006
 Hexadecapole moment (field-independent basis, Debye-Ang**3):
 XXXX=  -942.9943 YYYY=  -329.5461 ZZZZ=  -103.9510 XXXY=     0.2742
 XXXZ=    -0.0064 YYYX=     0.3444 YYYZ=     0.0059 ZZZX=     0.0098
 ZZZY=     0.0025 XXYY=  -220.7457 XXZZ=  -174.4967 YYZZ=  -103.3798
 XXYZ=     0.0026 YYXZ=     0.0065 ZZXY=     0.0669
 N-N= 6.021322053528D+02 E-N=-5.923698305082D+03  KE= 1.991110387709D+03
 Merz-Kollman atomic radii used.
 Read replacement radii for each type of atom:
 Rad(20) =   1.188000000000D+00
 Atom Element Radius
    1     8    1.40
    2     8    1.40
    3    15    1.80
    4    20    1.19
    5     8    1.40
    6    20    1.19
    7     8    1.40

 **********************************************************************

            Electrostatic Properties Using The SCF Density

 **********************************************************************

       Atomic Center    1 is at  -1.713260  0.001900  0.786359
       Atomic Center    2 is at  -1.713740  0.001910 -0.785901
       Atomic Center    3 is at   2.320040 -0.002621  0.000109
       Atomic Center    4 is at  -0.763828 -1.857308 -0.000101
       Atomic Center    5 is at   1.440765 -1.274952 -0.000051
       Atomic Center    6 is at  -0.759342  1.858892 -0.000061
       Atomic Center    7 is at   1.444085  1.272098 -0.000211
     705 points will be used for fitting atomic charges
 Fitting point charges to eletrostatic potential
 Charges from ESP fit, RMS=   0.00424 RRMS=   0.02786:
 Charge=   1.00000 Dipole=    -2.9807     0.0005    -0.0021 Tot=     2.9807
              1
     1  O   -0.787703
     2  O   -0.787628
     3  P    0.639793
     4  Ca   1.723247
     5  O   -0.755438
     6  Ca   1.723247
     7  O   -0.755517
 -----------------------------------------------------------------

              Electrostatic Properties (Atomic Units)

 -----------------------------------------------------------------
    Center     Electric         -------- Electric Field --------
               Potential          X             Y             Z
 -----------------------------------------------------------------
    1 Atom    -22.214188
    2 Atom    -22.213938
    3 Atom    -53.916338
    4 Atom    -80.007939
    5 Atom    -22.184022
    6 Atom    -80.007955
    7 Atom    -22.184216
 -----------------------------------------------------------------
 1\1\GINC-N026\SP\RB3LYP\6-31+G(d,p)\Ca2O4P1(1+)\TIMN\12-Jun-2015\0\\# 
 b3lyp/6-31+G(d,p) int=ultrafine pop=(ReadRadii,MK)\\mol_16.5.4.pdb_plu
 sQ.out.z51629.zip.xyz\\1,1\O,0,-1.71326,0.00192,0.78636\O,0,-1.71374,0
 .00193,-0.7859\P,0,2.32004,-0.00265,0.00011\Ca,0,-0.76385,-1.8573,-0.0
 001\O,0,1.44075,-1.27497,-0.00005\Ca,0,-0.75932,1.8589,-0.00006\O,0,1.
 4441,1.27208,-0.00021\\Version=EM64T-G03RevE.01\State=1-A\HF=-1997.333
 7247\RMSD=4.407e-05\Thermal=0.\Dipole=-1.2353234,0.0003032,-0.0009211\
 PG=C01 [X(Ca2O4P1)]\\@


 "THE ACADEMIC HIERARCHY"


 THE PRESIDENT:
   LEAPS TALL BUILDINGS IN A SINGLE BOUND,
     IS MORE POWERFUL THAN A LOCOMOTIVE,
       IS FASTER THAN A SPEEDING BULLET,
         WALKS ON WATER,
           GIVES POLICY TO GOD.

 THE VICE PRESIDENT FOR ACADEMIC AFFAIRS:
   LEAPS SHORT BUILDINGS IN A SINGLE BOUND,
     IS MORE POWERFUL THAN A SWITCH ENGINE,
       IS JUST AS FAST AS A SPEEDING BULLET,
         WALKS ON WATER IF SEA IS CALM,
           TALKS WITH GOD.

 PROFESSOR:
   LEAPS SHORT BUILDINGS WITH A RUNNING START AND FAVORABLE WINDS,
     IS ALMOST AS POWERFUL AS A SWITCH ENGINE,
       CAN FIRE A SPEEDING BULLET,
         WALKS ON WATER IN AN INDOOR SWIMMING POOL,
          TALKS WITH GOD IF SPECIAL REQUEST IS APPROVED.

 ASSOCIATE PROFESSOR:
   BARELY CLEARS A QUONSET HUT,
     LOSES TUG OF WAR WITH LOCOMOTIVE,
       MISFIRES FREQUENTLY,
         SWIMS WELL,
           IS OCCASIONALLY ADDRESSED BY GOD.

 ASSISTANT PROFESSOR:
   MAKES HIGH MARKS ON WALLS WHEN TRYING TO LEAP TALL BUILDINGS,
     IS RUN OVER BY LOCOMOTIVES,
       CAN SOMETIMES HANDLE A GUN WITHOUT INFLICTING SELF INJURY,
         DOG PADDLES,
           TALKS TO ANIMALS.

 GRADUATE STUDENT:
   RUNS INTO BUILDINGS,
     RECOGNIZES LOCOMOTIVES TWO OUT OF THREE TIMES,
       IS NOT ISSUED AMMUNITION,
         CAN STAY AFLOAT WITH A LIFE JACKET,
           TALKS TO WALLS.

 UNDERGRADUATE AND WORK STUDY STUDENT:
   FALLS OVER DOORSTEP WHEN TRYING TO ENTER BUILDINGS,
     SAYS, "LOOK AT THE CHOO-CHOO,"
       WETS HIMSELF WITH A WATER PISTOL,
        PLAYS IN MUD PUDDLES,
          MUMBLES TO HIMSELF.

 DEPARTMENT SECRETARY:
   LIFTS TALL BUILDINGS AND WALKS UNDER THEM,
     KICKS LOCOMOTIVES OFF THE TRACKS,
       CATCHES SPEEDING BULLETS IN HER TEETH AND EATS THEM,
         FREEZES WATER WITH A SINGLE GLANCE,
           IS GOD.
 Job cpu time:  0 days  0 hours  0 minutes 44.1 seconds.
 File lengths (MBytes):  RWF=     28 Int=      0 D2E=      0 Chk=     10 Scr=      1
 Normal termination of Gaussian 03 at Fri Jun 12 17:49:32 2015.
