 Entering Gaussian System, Link 0=/home/timn/tmp/g03.e01/g03
 Input=Ca2HPO4_63.xyz.gjf
 Output=Ca2HPO4_63.xyz.out
 Initial command:
 /home/timn/tmp/g03.e01/l1.exe /home/timn/tmp/g03.e01/Gau-11554.inp -scrdir=/home/timn/tmp/g03.e01/
 Default is to use a total of   2 processors:
                                2 via shared-memory
                                1 via Linda
 Entering Link 1 = /home/timn/tmp/g03.e01/l1.exe PID=     11555.
  
 Copyright (c) 1988,1990,1992,1993,1995,1998,2003,2004,2007, Gaussian, Inc.
                  All Rights Reserved.
  
 This is the Gaussian(R) 03 program.  It is based on the
 the Gaussian(R) 98 system (copyright 1998, Gaussian, Inc.),
 the Gaussian(R) 94 system (copyright 1995, Gaussian, Inc.),
 the Gaussian 92(TM) system (copyright 1992, Gaussian, Inc.),
 the Gaussian 90(TM) system (copyright 1990, Gaussian, Inc.),
 the Gaussian 88(TM) system (copyright 1988, Gaussian, Inc.),
 the Gaussian 86(TM) system (copyright 1986, Carnegie Mellon
 University), and the Gaussian 82(TM) system (copyright 1983,
 Carnegie Mellon University). Gaussian is a federally registered
 trademark of Gaussian, Inc.
  
 This software contains proprietary and confidential information,
 including trade secrets, belonging to Gaussian, Inc.
  
 This software is provided under written license and may be
 used, copied, transmitted, or stored only in accord with that
 written license.
  
 The following legend is applicable only to US Government
 contracts under FAR:
  
                    RESTRICTED RIGHTS LEGEND
  
 Use, reproduction and disclosure by the US Government is
 subject to restrictions as set forth in subparagraphs (a)
 and (c) of the Commercial Computer Software - Restricted
 Rights clause in FAR 52.227-19.
  
 Gaussian, Inc.
 340 Quinnipiac St., Bldg. 40, Wallingford CT 06492
  
  
 ---------------------------------------------------------------
 Warning -- This program may not be used in any manner that
 competes with the business of Gaussian, Inc. or will provide
 assistance to any competitor of Gaussian, Inc.  The licensee
 of this program is prohibited from giving any competitor of
 Gaussian, Inc. access to this program.  By using this program,
 the user acknowledges that Gaussian, Inc. is engaged in the
 business of creating and licensing software in the field of
 computational chemistry and represents and warrants to the
 licensee that it is not a competitor of Gaussian, Inc. and that
 it will not use this program in any manner prohibited above.
 ---------------------------------------------------------------
  

 Cite this work as:
 Gaussian 03, Revision E.01,
 M. J. Frisch, G. W. Trucks, H. B. Schlegel, G. E. Scuseria, 
 M. A. Robb, J. R. Cheeseman, J. A. Montgomery, Jr., T. Vreven, 
 K. N. Kudin, J. C. Burant, J. M. Millam, S. S. Iyengar, J. Tomasi, 
 V. Barone, B. Mennucci, M. Cossi, G. Scalmani, N. Rega, 
 G. A. Petersson, H. Nakatsuji, M. Hada, M. Ehara, K. Toyota, 
 R. Fukuda, J. Hasegawa, M. Ishida, T. Nakajima, Y. Honda, O. Kitao, 
 H. Nakai, M. Klene, X. Li, J. E. Knox, H. P. Hratchian, J. B. Cross, 
 V. Bakken, C. Adamo, J. Jaramillo, R. Gomperts, R. E. Stratmann, 
 O. Yazyev, A. J. Austin, R. Cammi, C. Pomelli, J. W. Ochterski, 
 P. Y. Ayala, K. Morokuma, G. A. Voth, P. Salvador, J. J. Dannenberg, 
 V. G. Zakrzewski, S. Dapprich, A. D. Daniels, M. C. Strain, 
 O. Farkas, D. K. Malick, A. D. Rabuck, K. Raghavachari, 
 J. B. Foresman, J. V. Ortiz, Q. Cui, A. G. Baboul, S. Clifford, 
 J. Cioslowski, B. B. Stefanov, G. Liu, A. Liashenko, P. Piskorz, 
 I. Komaromi, R. L. Martin, D. J. Fox, T. Keith, M. A. Al-Laham, 
 C. Y. Peng, A. Nanayakkara, M. Challacombe, P. M. W. Gill, 
 B. Johnson, W. Chen, M. W. Wong, C. Gonzalez, and J. A. Pople, 
 Gaussian, Inc., Wallingford CT, 2004.
 
 ******************************************
 Gaussian 03:  EM64T-G03RevE.01 11-Sep-2007
                 4-May-2015 
 ******************************************
 %nproc=2
 Will use up to    2 processors via shared memory.
 Default route:  MP2=Direct MaxDisk=2000MB
 -------------------------------------
 # b3lyp/6-31G(d,p) pop=(ReadRadii,MK)
 -------------------------------------
 1/38=1/1;
 2/17=6,18=5,40=1/2;
 3/5=1,6=6,7=101,11=2,16=1,25=1,30=1,74=-5/1,2,3;
 4//1;
 5/5=2,32=1,38=5/2;
 6/7=2,8=2,9=2,10=2,15=8,20=101,28=1/1,2;
 99/5=1,9=1/99;
 ----------
 Ca2HPO4_63
 ----------
 Symbolic Z-matrix:
 Charge =  0 Multiplicity = 1
 O                    -2.56035  -1.24499   0.0433 
 P                    -3.47119   0.00069   0.00018 
 O                    -2.55868   1.24515  -0.04419 
 Ca                   -0.53104  -0.00109   0.00027 
 O                     1.55648   0.07019   0.78545 
 O                     1.55644  -0.06849  -0.78542 
 Ca                    3.64888  -0.00021  -0.00002 
 H                     5.75981   0.00085  -0.00085 
 
                          Input orientation:                          
 ---------------------------------------------------------------------
 Center     Atomic     Atomic              Coordinates (Angstroms)
 Number     Number      Type              X           Y           Z
 ---------------------------------------------------------------------
    1          8             0       -2.560350   -1.244990    0.043295
    2         15             0       -3.471190    0.000686    0.000179
    3          8             0       -2.558680    1.245150   -0.044189
    4         20             0       -0.531038   -0.001093    0.000272
    5          8             0        1.556480    0.070193    0.785449
    6          8             0        1.556440   -0.068487   -0.785421
    7         20             0        3.648880   -0.000211   -0.000018
    8          1             0        5.759810    0.000849   -0.000845
 ---------------------------------------------------------------------
                    Distance matrix (angstroms):
                    1          2          3          4          5
     1  O    0.000000
     2  P    1.543761   0.000000
     3  O    2.491677   1.543805   0.000000
     4  Ca   2.380596   2.940153   2.380427   0.000000
     5  O    4.385064   5.089101   4.359285   2.231438   0.000000
     6  O    4.361065   5.089108   4.382839   2.231461   1.576980
     7  Ca   6.332921   7.120070   6.331404   4.179918   2.236080
     8  H    8.413033   9.231000   8.411150   6.290848   4.276804
                    6          7          8
     6  O    0.000000
     7  Ca   2.236029   0.000000
     8  H    4.276527   2.110930   0.000000
 Stoichiometry    Ca2HO4P
 Framework group  C1[X(Ca2HO4P)]
 Deg. of freedom    18
 Full point group                 C1
 Largest Abelian subgroup         C1      NOp   1
 Largest concise Abelian subgroup C1      NOp   1
                         Standard orientation:                         
 ---------------------------------------------------------------------
 Center     Atomic     Atomic              Coordinates (Angstroms)
 Number     Number      Type              X           Y           Z
 ---------------------------------------------------------------------
    1          8             0       -2.560349   -1.244990    0.043295
    2         15             0       -3.471189    0.000686    0.000179
    3          8             0       -2.558679    1.245150   -0.044189
    4         20             0       -0.531037   -0.001093    0.000272
    5          8             0        1.556481    0.070193    0.785449
    6          8             0        1.556441   -0.068487   -0.785421
    7         20             0        3.648881   -0.000211   -0.000018
    8          1             0        5.759811    0.000849   -0.000845
 ---------------------------------------------------------------------
 Rotational constants (GHZ):      7.2674041      0.4022538      0.3928884
 Standard basis: 6-31G(d,p) (6D, 7F)
 There are   130 symmetry adapted basis functions of A   symmetry.
 Integral buffers will be    131072 words long.
 Raffenetti 2 integral format.
 Two-electron integral symmetry is turned on.
   130 basis functions,   323 primitive gaussians,   130 cartesian basis functions
    44 alpha electrons       44 beta electrons
       nuclear repulsion energy       560.2436945916 Hartrees.
 NAtoms=    8 NActive=    8 NUniq=    8 SFac= 7.50D-01 NAtFMM=   80 NAOKFM=F Big=F
 One-electron integrals computed using PRISM.
 NBasis=   130 RedAO= T  NBF=   130
 NBsUse=   130 1.00D-06 NBFU=   130
 Harris functional with IExCor=  402 diagonalized for initial guess.
 ExpMin= 2.60D-02 ExpMax= 3.53D+04 ExpMxC= 5.30D+03 IAcc=3 IRadAn=         5 AccDes= 0.00D+00
 HarFok:  IExCor= 402 AccDes= 0.00D+00 IRadAn=         5 IDoV=1
 ScaDFX=  1.000000  1.000000  1.000000  1.000000
 Initial guess orbital symmetries:
       Occupied  (A) (A) (A) (A) (A) (A) (A) (A) (A) (A) (A) (A)
                 (A) (A) (A) (A) (A) (A) (A) (A) (A) (A) (A) (A)
                 (A) (A) (A) (A) (A) (A) (A) (A) (A) (A) (A) (A)
                 (A) (A) (A) (A) (A) (A) (A) (A)
       Virtual   (A) (A) (A) (A) (A) (A) (A) (A) (A) (A) (A) (A)
                 (A) (A) (A) (A) (A) (A) (A) (A) (A) (A) (A) (A)
                 (A) (A) (A) (A) (A) (A) (A) (A) (A) (A) (A) (A)
                 (A) (A) (A) (A) (A) (A) (A) (A) (A) (A) (A) (A)
                 (A) (A) (A) (A) (A) (A) (A) (A) (A) (A) (A) (A)
                 (A) (A) (A) (A) (A) (A) (A) (A) (A) (A) (A) (A)
                 (A) (A) (A) (A) (A) (A) (A) (A) (A) (A) (A) (A)
                 (A) (A)
 The electronic state of the initial guess is 1-A.
 Requested convergence on RMS density matrix=1.00D-04 within 128 cycles.
 Requested convergence on MAX density matrix=1.00D-02.
 Requested convergence on             energy=1.00D-02.
 No special actions if energy rises.
 Keep R1 integrals in memory in canonical form, NReq=    38354270.
 SCF Done:  E(RB+HF-LYP) =  -1998.07640084     A.U. after    6 cycles
             Convg  =    0.1575D-04             -V/T =  2.0029
             S**2   =   0.0000

 **********************************************************************

            Population analysis using the SCF density.

 **********************************************************************

 Orbital symmetries:
       Occupied  (A) (A) (A) (A) (A) (A) (A) (A) (A) (A) (A) (A)
                 (A) (A) (A) (A) (A) (A) (A) (A) (A) (A) (A) (A)
                 (A) (A) (A) (A) (A) (A) (A) (A) (A) (A) (A) (A)
                 (A) (A) (A) (A) (A) (A) (A) (A)
       Virtual   (A) (A) (A) (A) (A) (A) (A) (A) (A) (A) (A) (A)
                 (A) (A) (A) (A) (A) (A) (A) (A) (A) (A) (A) (A)
                 (A) (A) (A) (A) (A) (A) (A) (A) (A) (A) (A) (A)
                 (A) (A) (A) (A) (A) (A) (A) (A) (A) (A) (A) (A)
                 (A) (A) (A) (A) (A) (A) (A) (A) (A) (A) (A) (A)
                 (A) (A) (A) (A) (A) (A) (A) (A) (A) (A) (A) (A)
                 (A) (A) (A) (A) (A) (A) (A) (A) (A) (A) (A) (A)
                 (A) (A)
 The electronic state is 1-A.
 Alpha  occ. eigenvalues -- -145.35004-145.34952 -77.15834 -19.13897 -19.13818
 Alpha  occ. eigenvalues --  -19.11730 -19.11723 -15.42338 -15.42180 -12.55585
 Alpha  occ. eigenvalues --  -12.55528 -12.55397 -12.55384 -12.55274 -12.55178
 Alpha  occ. eigenvalues --   -6.61755  -4.78188  -4.77921  -4.77550  -1.80087
 Alpha  occ. eigenvalues --   -1.79879  -1.08761  -1.08194  -1.07929  -1.07816
 Alpha  occ. eigenvalues --   -1.07717  -1.07072  -1.00244  -0.94399  -0.93700
 Alpha  occ. eigenvalues --   -0.75912  -0.52707  -0.41381  -0.39865  -0.39297
 Alpha  occ. eigenvalues --   -0.35485  -0.34399  -0.32534  -0.30950  -0.29768
 Alpha  occ. eigenvalues --   -0.27409  -0.24231  -0.21413  -0.19880
 Alpha virt. eigenvalues --   -0.06380  -0.04145  -0.02477  -0.02353  -0.01106
 Alpha virt. eigenvalues --    0.00743   0.01357   0.04258   0.05518   0.05663
 Alpha virt. eigenvalues --    0.08294   0.08500   0.11713   0.13728   0.13824
 Alpha virt. eigenvalues --    0.13911   0.15242   0.15761   0.20788   0.20991
 Alpha virt. eigenvalues --    0.21429   0.22523   0.24623   0.27234   0.27364
 Alpha virt. eigenvalues --    0.31468   0.33921   0.34533   0.35212   0.35391
 Alpha virt. eigenvalues --    0.40721   0.41348   0.41788   0.43757   0.46229
 Alpha virt. eigenvalues --    0.50942   0.66897   0.67457   0.75666   0.85963
 Alpha virt. eigenvalues --    0.90250   0.95406   0.96853   1.00345   1.02124
 Alpha virt. eigenvalues --    1.03176   1.03757   1.05115   1.06036   1.14317
 Alpha virt. eigenvalues --    1.15099   1.21975   1.26593   1.27245   1.38653
 Alpha virt. eigenvalues --    1.39417   1.44486   1.48640   1.59507   1.64883
 Alpha virt. eigenvalues --    1.79005   1.81274   1.82310   1.83434   1.84508
 Alpha virt. eigenvalues --    1.85936   1.91038   1.94261   1.97162   1.99440
 Alpha virt. eigenvalues --    2.02983   2.03603   2.14268   2.14941   2.24914
 Alpha virt. eigenvalues --    2.28950   2.29726   2.43187   2.68725   2.77435
 Alpha virt. eigenvalues --    3.03106   3.47161   3.66424   3.72380   3.79666
 Alpha virt. eigenvalues --    3.81233
          Condensed to atoms (all electrons):
              1          2          3          4          5          6
     1  O    8.317864   0.264488  -0.050112   0.114235  -0.000037  -0.000038
     2  P    0.264488  13.687165   0.263855   0.042105   0.000011   0.000011
     3  O   -0.050112   0.263855   8.320631   0.114000  -0.000038  -0.000037
     4  Ca   0.114235   0.042105   0.114000  18.410762   0.105654   0.105658
     5  O   -0.000037   0.000011  -0.000038   0.105654   8.416345  -0.007738
     6  O   -0.000038   0.000011  -0.000037   0.105658  -0.007738   8.416227
     7  Ca   0.000073  -0.001233   0.000069  -0.027029   0.102743   0.102755
     8  H    0.000000   0.000000   0.000000   0.009117  -0.000204  -0.000205
              7          8
     1  O    0.000073   0.000000
     2  P   -0.001233   0.000000
     3  O    0.000069   0.000000
     4  Ca  -0.027029   0.009117
     5  O    0.102743  -0.000204
     6  O    0.102755  -0.000205
     7  Ca  18.553311   0.331195
     8  H    0.331195   0.939104
 Mulliken atomic charges:
              1
     1  O   -0.646473
     2  P    0.743599
     3  O   -0.648368
     4  Ca   1.125498
     5  O   -0.616735
     6  O   -0.616633
     7  Ca   0.938118
     8  H   -0.279007
 Sum of Mulliken charges=   0.00000
 Atomic charges with hydrogens summed into heavy atoms:
              1
     1  O   -0.646473
     2  P    0.743599
     3  O   -0.648368
     4  Ca   1.125498
     5  O   -0.616735
     6  O   -0.616633
     7  Ca   0.659111
     8  H    0.000000
 Sum of Mulliken charges=   0.00000
 Electronic spatial extent (au):  <R**2>=  2549.8170
 Charge=     0.0000 electrons
 Dipole moment (field-independent basis, Debye):
    X=    -1.4202    Y=    -0.0249    Z=     0.0061  Tot=     1.4204
 Quadrupole moment (field-independent basis, Debye-Ang):
   XX=  -108.1463   YY=   -68.8635   ZZ=   -62.2947
   XY=    -0.0052   XZ=     0.0083   YZ=     0.0165
 Traceless Quadrupole moment (field-independent basis, Debye-Ang):
   XX=   -28.3781   YY=    10.9047   ZZ=    17.4734
   XY=    -0.0052   XZ=     0.0083   YZ=     0.0165
 Octapole moment (field-independent basis, Debye-Ang**2):
  XXX=  -279.5731  YYY=    -0.0457  ZZZ=     0.0089  XYY=    21.2220
  XXY=    -0.1341  XXZ=     0.0764  XZZ=   -11.4789  YZZ=    -0.0126
  YYZ=     0.0070  XYZ=    -1.4901
 Hexadecapole moment (field-independent basis, Debye-Ang**3):
 XXXX= -5407.6279 YYYY=  -197.0935 ZZZZ=  -112.6907 XXXY=    -0.3991
 XXXZ=     0.4810 YYYX=    -0.0086 YYYZ=     0.2795 ZZZX=     0.0401
 ZZZY=     0.2944 XXYY=  -606.6198 XXZZ=  -540.5752 YYZZ=   -50.2625
 XXYZ=     1.3144 YYXZ=     0.0028 ZZXY=    -0.0169
 N-N= 5.602436945916D+02 E-N=-5.855147012976D+03  KE= 1.992351271208D+03
 Merz-Kollman atomic radii used.
 Read replacement radii for each type of atom:
 Rad(20) =   1.188000000000D+00
 Atom Element Radius
    1     8    1.40
    2    15    1.80
    3     8    1.40
    4    20    1.19
    5     8    1.40
    6     8    1.40
    7    20    1.19
    8     1    1.20

 **********************************************************************

            Electrostatic Properties Using The SCF Density

 **********************************************************************

       Atomic Center    1 is at  -2.560349 -1.244990  0.043295
       Atomic Center    2 is at  -3.471189  0.000686  0.000179
       Atomic Center    3 is at  -2.558679  1.245150 -0.044189
       Atomic Center    4 is at  -0.531037 -0.001093  0.000272
       Atomic Center    5 is at   1.556481  0.070193  0.785449
       Atomic Center    6 is at   1.556441 -0.068487 -0.785421
       Atomic Center    7 is at   3.648881 -0.000211 -0.000018
       Atomic Center    8 is at   5.759811  0.000849 -0.000845
     884 points will be used for fitting atomic charges
 Fitting point charges to eletrostatic potential
 Charges from ESP fit, RMS=   0.00583 RRMS=   0.13242:
 Charge=   0.00000 Dipole=    -1.1089    -0.0275     0.0123 Tot=     1.1093
              1
     1  O   -0.618199
     2  P    0.406768
     3  O   -0.619711
     4  Ca   1.637434
     5  O   -0.803756
     6  O   -0.804850
     7  Ca   1.532621
     8  H   -0.730307
 -----------------------------------------------------------------

              Electrostatic Properties (Atomic Units)

 -----------------------------------------------------------------
    Center     Electric         -------- Electric Field --------
               Potential          X             Y             Z
 -----------------------------------------------------------------
    1 Atom    -22.326713
    2 Atom    -54.059303
    3 Atom    -22.329113
    4 Atom    -80.192515
    5 Atom    -22.350048
    6 Atom    -22.349949
    7 Atom    -80.193114
    8 Atom     -1.210882
 -----------------------------------------------------------------
 1\1\GINC-N038\SP\RB3LYP\6-31G(d,p)\Ca2H1O4P1\TIMN\04-May-2015\0\\# b3l
 yp/6-31G(d,p) pop=(ReadRadii,MK)\\Ca2HPO4_63\\0,1\O,0,-2.56035,-1.2449
 9,0.043295\P,0,-3.47119,0.000686,0.000179\O,0,-2.55868,1.24515,-0.0441
 89\Ca,0,-0.531038,-0.001093,0.000272\O,0,1.55648,0.070193,0.785449\O,0
 ,1.55644,-0.068487,-0.785421\Ca,0,3.64888,-0.000211,-0.000018\H,0,5.75
 981,0.000849,-0.000845\\Version=EM64T-G03RevE.01\State=1-A\HF=-1998.07
 64008\RMSD=1.575e-05\Thermal=0.\Dipole=-0.5587384,-0.0098045,0.002399\
 PG=C01 [X(Ca2H1O4P1)]\\@


 EDUCATION DOESN'T COST 
           ... IT PAYS!

 -- POSTMARK, UNIV. OF MISSISSIPPI, DEC 78
 Job cpu time:  0 days  0 hours  0 minutes 14.4 seconds.
 File lengths (MBytes):  RWF=     21 Int=      0 D2E=      0 Chk=     10 Scr=      1
 Normal termination of Gaussian 03 at Mon May  4 20:08:40 2015.
