 Entering Gaussian System, Link 0=/home/timn/tmp/g03.e01/g03
 Input=Ca2HPO4_26.xyz.gjf
 Output=Ca2HPO4_26.xyz.out
 Initial command:
 /home/timn/tmp/g03.e01/l1.exe /home/timn/tmp/g03.e01/Gau-11221.inp -scrdir=/home/timn/tmp/g03.e01/
 Default is to use a total of   2 processors:
                                2 via shared-memory
                                1 via Linda
 Entering Link 1 = /home/timn/tmp/g03.e01/l1.exe PID=     11222.
  
 Copyright (c) 1988,1990,1992,1993,1995,1998,2003,2004,2007, Gaussian, Inc.
                  All Rights Reserved.
  
 This is the Gaussian(R) 03 program.  It is based on the
 the Gaussian(R) 98 system (copyright 1998, Gaussian, Inc.),
 the Gaussian(R) 94 system (copyright 1995, Gaussian, Inc.),
 the Gaussian 92(TM) system (copyright 1992, Gaussian, Inc.),
 the Gaussian 90(TM) system (copyright 1990, Gaussian, Inc.),
 the Gaussian 88(TM) system (copyright 1988, Gaussian, Inc.),
 the Gaussian 86(TM) system (copyright 1986, Carnegie Mellon
 University), and the Gaussian 82(TM) system (copyright 1983,
 Carnegie Mellon University). Gaussian is a federally registered
 trademark of Gaussian, Inc.
  
 This software contains proprietary and confidential information,
 including trade secrets, belonging to Gaussian, Inc.
  
 This software is provided under written license and may be
 used, copied, transmitted, or stored only in accord with that
 written license.
  
 The following legend is applicable only to US Government
 contracts under FAR:
  
                    RESTRICTED RIGHTS LEGEND
  
 Use, reproduction and disclosure by the US Government is
 subject to restrictions as set forth in subparagraphs (a)
 and (c) of the Commercial Computer Software - Restricted
 Rights clause in FAR 52.227-19.
  
 Gaussian, Inc.
 340 Quinnipiac St., Bldg. 40, Wallingford CT 06492
  
  
 ---------------------------------------------------------------
 Warning -- This program may not be used in any manner that
 competes with the business of Gaussian, Inc. or will provide
 assistance to any competitor of Gaussian, Inc.  The licensee
 of this program is prohibited from giving any competitor of
 Gaussian, Inc. access to this program.  By using this program,
 the user acknowledges that Gaussian, Inc. is engaged in the
 business of creating and licensing software in the field of
 computational chemistry and represents and warrants to the
 licensee that it is not a competitor of Gaussian, Inc. and that
 it will not use this program in any manner prohibited above.
 ---------------------------------------------------------------
  

 Cite this work as:
 Gaussian 03, Revision E.01,
 M. J. Frisch, G. W. Trucks, H. B. Schlegel, G. E. Scuseria, 
 M. A. Robb, J. R. Cheeseman, J. A. Montgomery, Jr., T. Vreven, 
 K. N. Kudin, J. C. Burant, J. M. Millam, S. S. Iyengar, J. Tomasi, 
 V. Barone, B. Mennucci, M. Cossi, G. Scalmani, N. Rega, 
 G. A. Petersson, H. Nakatsuji, M. Hada, M. Ehara, K. Toyota, 
 R. Fukuda, J. Hasegawa, M. Ishida, T. Nakajima, Y. Honda, O. Kitao, 
 H. Nakai, M. Klene, X. Li, J. E. Knox, H. P. Hratchian, J. B. Cross, 
 V. Bakken, C. Adamo, J. Jaramillo, R. Gomperts, R. E. Stratmann, 
 O. Yazyev, A. J. Austin, R. Cammi, C. Pomelli, J. W. Ochterski, 
 P. Y. Ayala, K. Morokuma, G. A. Voth, P. Salvador, J. J. Dannenberg, 
 V. G. Zakrzewski, S. Dapprich, A. D. Daniels, M. C. Strain, 
 O. Farkas, D. K. Malick, A. D. Rabuck, K. Raghavachari, 
 J. B. Foresman, J. V. Ortiz, Q. Cui, A. G. Baboul, S. Clifford, 
 J. Cioslowski, B. B. Stefanov, G. Liu, A. Liashenko, P. Piskorz, 
 I. Komaromi, R. L. Martin, D. J. Fox, T. Keith, M. A. Al-Laham, 
 C. Y. Peng, A. Nanayakkara, M. Challacombe, P. M. W. Gill, 
 B. Johnson, W. Chen, M. W. Wong, C. Gonzalez, and J. A. Pople, 
 Gaussian, Inc., Wallingford CT, 2004.
 
 ******************************************
 Gaussian 03:  EM64T-G03RevE.01 11-Sep-2007
                 4-May-2015 
 ******************************************
 %nproc=2
 Will use up to    2 processors via shared memory.
 Default route:  MP2=Direct MaxDisk=2000MB
 --------------------------------------------
 # b3lyp/6-31G(d,p) pop=(ReadRadii,MK) scf=qc
 --------------------------------------------
 1/38=1/1;
 2/17=6,18=5,40=1/2;
 3/5=1,6=6,7=101,11=2,16=1,25=1,30=1,74=-5/1,2,3;
 4//1;
 5/5=2,8=3,32=1,38=5/8;
 6/7=2,8=2,9=2,10=2,15=8,20=101,28=1/1,2;
 99/5=1,9=1/99;
 ----------
 Ca2HPO4_26
 ----------
 Symbolic Z-matrix:
 Charge =  0 Multiplicity = 1
 O                     0.        1.18037   0. 
 O                    -4.06651   0.19747   0. 
 O                    -3.85403  -1.16642   0. 
 Ca                   -1.80261  -0.16088   0. 
 O                     0.22349  -1.34255   0. 
 P                     1.22918   0.17207   0. 
 H                     0.72523  -2.16597   0. 
 Ca                    3.92328   0.59258   0. 
 
                          Input orientation:                          
 ---------------------------------------------------------------------
 Center     Atomic     Atomic              Coordinates (Angstroms)
 Number     Number      Type              X           Y           Z
 ---------------------------------------------------------------------
    1          8             0        0.000000    1.180370    0.000000
    2          8             0       -4.066510    0.197466    0.000000
    3          8             0       -3.854030   -1.166420    0.000000
    4         20             0       -1.802610   -0.160879    0.000000
    5          8             0        0.223494   -1.342550    0.000000
    6         15             0        1.229180    0.172068    0.000000
    7          1             0        0.725228   -2.165970    0.000000
    8         20             0        3.923280    0.592581    0.000000
 ---------------------------------------------------------------------
                    Distance matrix (angstroms):
                    1          2          3          4          5
     1  O    0.000000
     2  O    4.183611   0.000000
     3  O    4.512313   1.380338   0.000000
     4  Ca   2.246854   2.292085   2.284609   0.000000
     5  O    2.532800   4.558046   4.081326   2.345516   0.000000
     6  P    1.589829   5.295751   5.256479   3.050017   1.818096
     7  H    3.424025   5.342900   4.687078   3.226508   0.964239
     8  Ca   3.967067   7.999554   7.973747   5.775250   4.175302
                    6          7          8
     6  P    0.000000
     7  H    2.391734   0.000000
     8  Ca   2.726721   4.223404   0.000000
 Stoichiometry    Ca2HO4P
 Framework group  CS[SG(Ca2HO4P)]
 Deg. of freedom    13
 Full point group                 CS
 Largest Abelian subgroup         CS      NOp   2
 Largest concise Abelian subgroup C1      NOp   1
                         Standard orientation:                         
 ---------------------------------------------------------------------
 Center     Atomic     Atomic              Coordinates (Angstroms)
 Number     Number      Type              X           Y           Z
 ---------------------------------------------------------------------
    1          8             0        0.000000    1.180370    0.000000
    2          8             0       -4.066510    0.197464    0.000000
    3          8             0       -3.854029   -1.166422    0.000000
    4         20             0       -1.802609   -0.160880    0.000000
    5          8             0        0.223495   -1.342550    0.000000
    6         15             0        1.229180    0.172068    0.000000
    7          1             0        0.725229   -2.165970    0.000000
    8         20             0        3.923280    0.592582    0.000000
 ---------------------------------------------------------------------
 Rotational constants (GHZ):      6.9934736      0.3837091      0.3637512
 Standard basis: 6-31G(d,p) (6D, 7F)
 There are    96 symmetry adapted basis functions of A'  symmetry.
 There are    34 symmetry adapted basis functions of A"  symmetry.
 Integral buffers will be    131072 words long.
 Raffenetti 2 integral format.
 Two-electron integral symmetry is turned on.
   130 basis functions,   323 primitive gaussians,   130 cartesian basis functions
    44 alpha electrons       44 beta electrons
       nuclear repulsion energy       542.1316541373 Hartrees.
 NAtoms=    8 NActive=    8 NUniq=    8 SFac= 7.50D-01 NAtFMM=   80 NAOKFM=F Big=F
 One-electron integrals computed using PRISM.
 NBasis=   130 RedAO= T  NBF=    96    34
 NBsUse=   130 1.00D-06 NBFU=    96    34
 Harris functional with IExCor=  402 diagonalized for initial guess.
 ExpMin= 2.60D-02 ExpMax= 3.53D+04 ExpMxC= 5.30D+03 IAcc=3 IRadAn=         5 AccDes= 0.00D+00
 HarFok:  IExCor= 402 AccDes= 0.00D+00 IRadAn=         5 IDoV=1
 ScaDFX=  1.000000  1.000000  1.000000  1.000000
 Initial guess orbital symmetries:
       Occupied  (A') (A') (A') (A') (A') (A') (A') (A') (A') (A')
                 (A') (A") (A') (A') (A") (A') (A') (A') (A") (A')
                 (A') (A') (A') (A') (A') (A") (A') (A") (A') (A')
                 (A') (A') (A') (A') (A') (A') (A") (A") (A') (A")
                 (A') (A') (A") (A")
       Virtual   (A') (A') (A') (A') (A') (A") (A") (A') (A') (A')
                 (A') (A') (A') (A') (A") (A") (A') (A') (A') (A')
                 (A") (A") (A') (A") (A") (A') (A') (A') (A') (A')
                 (A") (A') (A') (A') (A') (A') (A") (A") (A') (A')
                 (A') (A') (A') (A") (A') (A") (A") (A') (A") (A')
                 (A') (A') (A') (A') (A') (A') (A') (A') (A") (A')
                 (A") (A") (A') (A') (A") (A") (A") (A') (A") (A')
                 (A') (A') (A') (A') (A") (A') (A') (A") (A') (A')
                 (A') (A') (A') (A') (A') (A')
 The electronic state of the initial guess is 1-A'.
 Keep R1 integrals in memory in canonical form, NReq=    37575899.
 Gradient too large for Newton-Raphson -- use scaled steepest descent instead.
 Gradient too large for Newton-Raphson -- use scaled steepest descent instead.
 Gradient too large for Newton-Raphson -- use scaled steepest descent instead.
 Gradient too large for Newton-Raphson -- use scaled steepest descent instead.
 Gradient too large for Newton-Raphson -- use scaled steepest descent instead.
 Gradient too large for Newton-Raphson -- use scaled steepest descent instead.
 Gradient too large for Newton-Raphson -- use scaled steepest descent instead.
 Gradient too large for Newton-Raphson -- use scaled steepest descent instead.
 Gradient too large for Newton-Raphson -- use scaled steepest descent instead.
 Gradient too large for Newton-Raphson -- use scaled steepest descent instead.
 Gradient too large for Newton-Raphson -- use scaled steepest descent instead.
 Gradient too large for Newton-Raphson -- use scaled steepest descent instead.
 LinEq1:  Iter=  0 NonCon=   1 RMS=3.31D-03 Max=1.34D-01
 AX will form   1 AO Fock derivatives at one time.
 LinEq1:  Iter=  1 NonCon=   1 RMS=3.29D-02 Max=1.68D+00
 LinEq1:  Iter=  2 NonCon=   1 RMS=5.65D-02 Max=2.56D+00
 LinEq1:  Iter=  3 NonCon=   1 RMS=4.25D-02 Max=1.64D+00
 LinEq1:  Iter=  4 NonCon=   1 RMS=7.29D-02 Max=2.44D+00
 LinEq1:  Iter=  5 NonCon=   1 RMS=3.36D-02 Max=1.12D+00
 LinEq1:  Iter=  6 NonCon=   1 RMS=4.49D-02 Max=1.52D+00
 LinEq1:  Iter=  7 NonCon=   1 RMS=2.10D-02 Max=4.55D-01
 LinEq1:  Iter=  8 NonCon=   1 RMS=2.51D-02 Max=4.81D-01
 LinEq1:  Iter=  9 NonCon=   1 RMS=2.87D-02 Max=6.63D-01
 LinEq1:  Iter= 10 NonCon=   1 RMS=3.48D-02 Max=7.96D-01
 LinEq1:  Iter= 11 NonCon=   1 RMS=1.70D-02 Max=4.77D-01
 LinEq1:  Iter= 12 NonCon=   1 RMS=1.09D-02 Max=1.97D-01
 LinEq1:  Iter= 13 NonCon=   1 RMS=6.85D-03 Max=2.20D-01
 LinEq1:  Iter= 14 NonCon=   1 RMS=1.79D-03 Max=6.41D-02
 LinEq1:  Iter= 15 NonCon=   1 RMS=6.94D-03 Max=4.08D-01
 LinEq1:  Iter= 16 NonCon=   1 RMS=5.65D-03 Max=1.12D-01
 LinEq1:  Iter= 17 NonCon=   1 RMS=1.85D-03 Max=3.64D-02
 LinEq1:  Iter= 18 NonCon=   1 RMS=5.64D-04 Max=1.26D-02
 LinEq1:  Iter= 19 NonCon=   1 RMS=1.58D-04 Max=5.09D-03
 LinEq1:  Iter= 20 NonCon=   1 RMS=2.97D-05 Max=1.11D-03
 LinEq1:  Iter= 21 NonCon=   1 RMS=9.83D-06 Max=3.23D-04
 LinEq1:  Iter= 22 NonCon=   1 RMS=3.10D-06 Max=6.00D-05
 LinEq1:  Iter= 23 NonCon=   1 RMS=6.64D-07 Max=1.50D-05
 LinEq1:  Iter= 24 NonCon=   1 RMS=1.68D-07 Max=3.02D-06
 LinEq1:  Iter= 25 NonCon=   1 RMS=3.23D-08 Max=7.01D-07
 LinEq1:  Iter= 26 NonCon=   1 RMS=7.82D-09 Max=1.47D-07
 LinEq1:  Iter= 27 NonCon=   0 RMS=1.52D-09 Max=3.55D-08
 Linear equations converged to 8.699D-09 8.699D-08 after  27 iterations.
 LinEq1:  Iter=  0 NonCon=   1 RMS=2.10D-02 Max=1.29D+00
 LinEq1:  Iter=  1 NonCon=   1 RMS=3.39D-02 Max=1.43D+00
 LinEq1:  Iter=  2 NonCon=   1 RMS=4.01D-02 Max=1.83D+00
 LinEq1:  Iter=  3 NonCon=   1 RMS=8.58D-02 Max=4.27D+00
 LinEq1:  Iter=  4 NonCon=   1 RMS=6.17D-02 Max=1.43D+00
 LinEq1:  Iter=  5 NonCon=   1 RMS=9.24D-02 Max=3.13D+00
 LinEq1:  Iter=  6 NonCon=   1 RMS=9.25D-02 Max=2.32D+00
 LinEq1:  Iter=  7 NonCon=   1 RMS=3.65D-02 Max=6.93D-01
 LinEq1:  Iter=  8 NonCon=   1 RMS=4.63D-02 Max=1.66D+00
 LinEq1:  Iter=  9 NonCon=   1 RMS=3.44D-02 Max=9.70D-01
 LinEq1:  Iter= 10 NonCon=   1 RMS=4.17D-02 Max=1.18D+00
 LinEq1:  Iter= 11 NonCon=   1 RMS=1.75D-02 Max=4.61D-01
 LinEq1:  Iter= 12 NonCon=   1 RMS=1.72D-02 Max=3.42D-01
 LinEq1:  Iter= 13 NonCon=   1 RMS=9.33D-03 Max=2.39D-01
 LinEq1:  Iter= 14 NonCon=   1 RMS=1.90D-03 Max=5.36D-02
 LinEq1:  Iter= 15 NonCon=   1 RMS=5.73D-04 Max=1.18D-02
 LinEq1:  Iter= 16 NonCon=   1 RMS=1.74D-04 Max=3.89D-03
 LinEq1:  Iter= 17 NonCon=   1 RMS=5.52D-05 Max=1.11D-03
 LinEq1:  Iter= 18 NonCon=   1 RMS=1.60D-05 Max=3.78D-04
 LinEq1:  Iter= 19 NonCon=   1 RMS=3.51D-06 Max=6.91D-05
 LinEq1:  Iter= 20 NonCon=   1 RMS=1.06D-06 Max=1.64D-05
 LinEq1:  Iter= 21 NonCon=   1 RMS=2.97D-07 Max=6.89D-06
 LinEq1:  Iter= 22 NonCon=   1 RMS=4.35D-08 Max=1.01D-06
 LinEq1:  Iter= 23 NonCon=   1 RMS=7.66D-09 Max=1.65D-07
 LinEq1:  Iter= 24 NonCon=   0 RMS=2.03D-09 Max=5.59D-08
 Linear equations converged to 8.699D-09 8.699D-08 after  24 iterations.
 Incorrect curvature in search direction -- initial direction reversed.
 Gradient too large for Newton-Raphson -- use scaled steepest descent instead.
 Gradient too large for Newton-Raphson -- use scaled steepest descent instead.
 Gradient too large for Newton-Raphson -- use scaled steepest descent instead.
 Gradient too large for Newton-Raphson -- use scaled steepest descent instead.
 Gradient too large for Newton-Raphson -- use scaled steepest descent instead.
 Gradient too large for Newton-Raphson -- use scaled steepest descent instead.
 Gradient too large for Newton-Raphson -- use scaled steepest descent instead.
 Gradient too large for Newton-Raphson -- use scaled steepest descent instead.
 Gradient too large for Newton-Raphson -- use scaled steepest descent instead.
 Gradient too large for Newton-Raphson -- use scaled steepest descent instead.
 Gradient too large for Newton-Raphson -- use scaled steepest descent instead.
 Gradient too large for Newton-Raphson -- use scaled steepest descent instead.
 Gradient too large for Newton-Raphson -- use scaled steepest descent instead.
 Gradient too large for Newton-Raphson -- use scaled steepest descent instead.
 Gradient too large for Newton-Raphson -- use scaled steepest descent instead.
 Gradient too large for Newton-Raphson -- use scaled steepest descent instead.
 Gradient too large for Newton-Raphson -- use scaled steepest descent instead.
 Gradient too large for Newton-Raphson -- use scaled steepest descent instead.
 Gradient too large for Newton-Raphson -- use scaled steepest descent instead.
 Gradient too large for Newton-Raphson -- use scaled steepest descent instead.
 Gradient too large for Newton-Raphson -- use scaled steepest descent instead.
 Gradient too large for Newton-Raphson -- use scaled steepest descent instead.
 Gradient too large for Newton-Raphson -- use scaled steepest descent instead.
 Gradient too large for Newton-Raphson -- use scaled steepest descent instead.
 Gradient too large for Newton-Raphson -- use scaled steepest descent instead.
 Gradient too large for Newton-Raphson -- use scaled steepest descent instead.
 Gradient too large for Newton-Raphson -- use scaled steepest descent instead.
 Gradient too large for Newton-Raphson -- use scaled steepest descent instead.
 Gradient too large for Newton-Raphson -- use scaled steepest descent instead.
 Gradient too large for Newton-Raphson -- use scaled steepest descent instead.
 Gradient too large for Newton-Raphson -- use scaled steepest descent instead.
 Gradient too large for Newton-Raphson -- use scaled steepest descent instead.
 Gradient too large for Newton-Raphson -- use scaled steepest descent instead.
 Gradient too large for Newton-Raphson -- use scaled steepest descent instead.
 Gradient too large for Newton-Raphson -- use scaled steepest descent instead.
 Gradient too large for Newton-Raphson -- use scaled steepest descent instead.
 Gradient too large for Newton-Raphson -- use scaled steepest descent instead.
 Gradient too large for Newton-Raphson -- use scaled steepest descent instead.
 Gradient too large for Newton-Raphson -- use scaled steepest descent instead.
 Gradient too large for Newton-Raphson -- use scaled steepest descent instead.
 Gradient too large for Newton-Raphson -- use scaled steepest descent instead.
 Gradient too large for Newton-Raphson -- use scaled steepest descent instead.
 Gradient too large for Newton-Raphson -- use scaled steepest descent instead.
 Gradient too large for Newton-Raphson -- use scaled steepest descent instead.
 Gradient too large for Newton-Raphson -- use scaled steepest descent instead.
 Gradient too large for Newton-Raphson -- use scaled steepest descent instead.
 Gradient too large for Newton-Raphson -- use scaled steepest descent instead.
 Gradient too large for Newton-Raphson -- use scaled steepest descent instead.
 Gradient too large for Newton-Raphson -- use scaled steepest descent instead.
 Gradient too large for Newton-Raphson -- use scaled steepest descent instead.
 Gradient too large for Newton-Raphson -- use scaled steepest descent instead.
 LinEq1:  Iter=  0 NonCon=   1 RMS=4.76D-03 Max=2.92D-01
 LinEq1:  Iter=  1 NonCon=   1 RMS=1.30D-02 Max=6.97D-01
 LinEq1:  Iter=  2 NonCon=   1 RMS=1.08D-03 Max=2.89D-02
 LinEq1:  Iter=  3 NonCon=   1 RMS=1.09D-03 Max=2.69D-02
 LinEq1:  Iter=  4 NonCon=   1 RMS=5.41D-04 Max=1.08D-02
 LinEq1:  Iter=  5 NonCon=   1 RMS=6.06D-04 Max=2.31D-02
 LinEq1:  Iter=  6 NonCon=   1 RMS=4.66D-04 Max=9.21D-03
 LinEq1:  Iter=  7 NonCon=   1 RMS=3.11D-04 Max=6.98D-03
 LinEq1:  Iter=  8 NonCon=   1 RMS=1.21D-04 Max=2.45D-03
 LinEq1:  Iter=  9 NonCon=   1 RMS=1.07D-04 Max=2.79D-03
 LinEq1:  Iter= 10 NonCon=   1 RMS=3.80D-05 Max=7.87D-04
 LinEq1:  Iter= 11 NonCon=   1 RMS=1.11D-05 Max=3.20D-04
 LinEq1:  Iter= 12 NonCon=   1 RMS=1.84D-05 Max=9.78D-04
 LinEq1:  Iter= 13 NonCon=   1 RMS=1.50D-05 Max=3.41D-04
 LinEq1:  Iter= 14 NonCon=   1 RMS=3.67D-06 Max=5.08D-05
 LinEq1:  Iter= 15 NonCon=   1 RMS=9.22D-07 Max=1.27D-05
 LinEq1:  Iter= 16 NonCon=   1 RMS=1.44D-07 Max=2.13D-06
 LinEq1:  Iter= 17 NonCon=   1 RMS=2.75D-08 Max=4.70D-07
 LinEq1:  Iter= 18 NonCon=   1 RMS=4.40D-09 Max=8.79D-08
 LinEq1:  Iter= 19 NonCon=   0 RMS=7.72D-10 Max=1.68D-08
 Linear equations converged to 8.699D-09 8.699D-08 after  19 iterations.
 LinEq1:  Iter=  0 NonCon=   1 RMS=8.36D-06 Max=3.52D-04
 LinEq1:  Iter=  1 NonCon=   1 RMS=1.19D-04 Max=5.34D-03
 LinEq1:  Iter=  2 NonCon=   1 RMS=2.16D-04 Max=1.18D-02
 LinEq1:  Iter=  3 NonCon=   1 RMS=1.10D-04 Max=2.31D-03
 LinEq1:  Iter=  4 NonCon=   1 RMS=1.08D-04 Max=4.19D-03
 LinEq1:  Iter=  5 NonCon=   1 RMS=6.75D-05 Max=1.12D-03
 LinEq1:  Iter=  6 NonCon=   1 RMS=7.59D-05 Max=1.83D-03
 LinEq1:  Iter=  7 NonCon=   1 RMS=4.15D-05 Max=6.70D-04
 LinEq1:  Iter=  8 NonCon=   1 RMS=2.17D-05 Max=3.93D-04
 LinEq1:  Iter=  9 NonCon=   1 RMS=8.18D-06 Max=2.33D-04
 LinEq1:  Iter= 10 NonCon=   1 RMS=2.39D-06 Max=3.70D-05
 LinEq1:  Iter= 11 NonCon=   1 RMS=6.65D-07 Max=8.02D-06
 LinEq1:  Iter= 12 NonCon=   1 RMS=1.43D-07 Max=3.03D-06
 LinEq1:  Iter= 13 NonCon=   1 RMS=2.84D-08 Max=4.81D-07
 LinEq1:  Iter= 14 NonCon=   1 RMS=7.05D-09 Max=2.12D-07
 LinEq1:  Iter= 15 NonCon=   1 RMS=7.88D-09 Max=4.16D-07
 LinEq1:  Iter= 16 NonCon=   1 RMS=3.28D-09 Max=4.00D-08
 LinEq1:  Iter= 17 NonCon=   0 RMS=6.55D-10 Max=8.22D-09
 Linear equations converged to 2.110D-09 2.110D-08 after  17 iterations.
 LinEq1:  Iter=  0 NonCon=   1 RMS=2.62D-08 Max=1.59D-06
 LinEq1:  Iter=  1 NonCon=   1 RMS=1.79D-07 Max=1.92D-06
 LinEq1:  Iter=  2 NonCon=   1 RMS=4.31D-08 Max=1.57D-06
 LinEq1:  Iter=  3 NonCon=   1 RMS=3.16D-08 Max=1.11D-06
 LinEq1:  Iter=  4 NonCon=   1 RMS=3.19D-08 Max=8.54D-07
 LinEq1:  Iter=  5 NonCon=   1 RMS=2.85D-08 Max=8.99D-07
 LinEq1:  Iter=  6 NonCon=   1 RMS=2.12D-08 Max=3.16D-07
 LinEq1:  Iter=  7 NonCon=   1 RMS=9.14D-09 Max=1.40D-07
 LinEq1:  Iter=  8 NonCon=   1 RMS=6.43D-09 Max=2.00D-07
 LinEq1:  Iter=  9 NonCon=   1 RMS=5.14D-09 Max=2.65D-07
 LinEq1:  Iter= 10 NonCon=   1 RMS=6.40D-09 Max=1.97D-07
 LinEq1:  Iter= 11 NonCon=   1 RMS=2.87D-09 Max=6.48D-08
 LinEq1:  Iter= 12 NonCon=   1 RMS=7.53D-10 Max=1.38D-08
 LinEq1:  Iter= 13 NonCon=   1 RMS=1.85D-10 Max=2.40D-09
 LinEq1:  Iter= 14 NonCon=   0 RMS=4.89D-11 Max=9.40D-10
 Linear equations converged to 1.713D-10 1.713D-09 after  14 iterations.
 LinEq1:  Iter=  0 NonCon=   1 RMS=2.03D-09 Max=1.23D-07
 LinEq1:  Iter=  1 NonCon=   1 RMS=1.39D-08 Max=4.46D-07
 LinEq1:  Iter=  2 NonCon=   1 RMS=1.94D-08 Max=6.48D-07
 LinEq1:  Iter=  3 NonCon=   1 RMS=1.35D-08 Max=5.26D-07
 LinEq1:  Iter=  4 NonCon=   1 RMS=1.02D-08 Max=2.96D-07
 LinEq1:  Iter=  5 NonCon=   1 RMS=7.91D-09 Max=1.78D-07
 LinEq1:  Iter=  6 NonCon=   1 RMS=5.15D-09 Max=7.94D-08
 LinEq1:  Iter=  7 NonCon=   1 RMS=2.88D-09 Max=7.17D-08
 LinEq1:  Iter=  8 NonCon=   1 RMS=3.67D-09 Max=1.90D-07
 LinEq1:  Iter=  9 NonCon=   1 RMS=4.45D-09 Max=9.55D-08
 LinEq1:  Iter= 10 NonCon=   1 RMS=1.53D-09 Max=2.36D-08
 LinEq1:  Iter= 11 NonCon=   1 RMS=5.25D-10 Max=8.26D-09
 LinEq1:  Iter= 12 NonCon=   1 RMS=1.15D-10 Max=2.43D-09
 LinEq1:  Iter= 13 NonCon=   1 RMS=2.62D-11 Max=4.02D-10
 LinEq1:  Iter= 14 NonCon=   1 RMS=6.86D-12 Max=1.39D-10
 LinEq1:  Iter= 15 NonCon=   0 RMS=1.48D-12 Max=3.84D-11
 Linear equations converged to 1.168D-11 1.168D-10 after  15 iterations.
 SCF Done:  E(RB+HF-LYP) =  -1997.84935953     a.u. after   70 cycles
            Convg  =    0.3232D-07                   372 Fock formations.
              S**2 =  0.0000                  -V/T =  2.0028

 **********************************************************************

            Population analysis using the SCF density.

 **********************************************************************

 Orbital symmetries:
       Occupied  (A') (A') (A') (A') (A') (A') (A') (A') (A') (A')
                 (A") (A') (A") (A') (A') (A') (A') (A') (A") (A')
                 (A') (A') (A") (A') (A') (A") (A') (A') (A') (A')
                 (A') (A') (A') (A') (A') (A") (A') (A") (A') (A")
                 (A') (A") (A') (A")
       Virtual   (A') (A') (A") (A') (A') (A') (A") (A') (A') (A')
                 (A') (A") (A') (A') (A') (A') (A") (A") (A') (A")
                 (A') (A') (A') (A") (A') (A") (A') (A') (A') (A")
                 (A') (A') (A') (A') (A') (A') (A") (A") (A') (A')
                 (A') (A') (A') (A") (A') (A") (A') (A") (A') (A")
                 (A') (A') (A') (A') (A') (A') (A') (A') (A") (A')
                 (A") (A') (A") (A") (A') (A") (A") (A') (A") (A')
                 (A') (A') (A') (A') (A") (A') (A") (A') (A') (A')
                 (A') (A') (A') (A') (A') (A')
 The electronic state is 1-A'.
 Alpha  occ. eigenvalues -- -145.43459-145.35032 -77.10105 -19.17259 -19.13028
 Alpha  occ. eigenvalues --  -19.12810 -19.08955 -15.50586 -15.42240 -12.63796
 Alpha  occ. eigenvalues --  -12.63697 -12.63691 -12.55494 -12.55403 -12.55248
 Alpha  occ. eigenvalues --   -6.56363  -4.72976  -4.72457  -4.72025  -1.87775
 Alpha  occ. eigenvalues --   -1.79880  -1.15363  -1.14929  -1.14922  -1.08900
 Alpha  occ. eigenvalues --   -1.07925  -1.07552  -1.01588  -0.99879  -0.91477
 Alpha  occ. eigenvalues --   -0.70747  -0.56603  -0.47924  -0.39281  -0.37180
 Alpha  occ. eigenvalues --   -0.36193  -0.34862  -0.33594  -0.32715  -0.29308
 Alpha  occ. eigenvalues --   -0.27829  -0.15485  -0.15404  -0.13035
 Alpha virt. eigenvalues --   -0.14098  -0.06500  -0.03838  -0.03280  -0.02120
 Alpha virt. eigenvalues --   -0.00250   0.01455   0.02574   0.02912   0.06157
 Alpha virt. eigenvalues --    0.08729   0.09447   0.09769   0.10760   0.12426
 Alpha virt. eigenvalues --    0.14515   0.14760   0.15227   0.15373   0.16949
 Alpha virt. eigenvalues --    0.17588   0.19398   0.21263   0.22787   0.22821
 Alpha virt. eigenvalues --    0.25281   0.31241   0.33521   0.37254   0.38921
 Alpha virt. eigenvalues --    0.39448   0.40394   0.43132   0.44527   0.46636
 Alpha virt. eigenvalues --    0.62471   0.67044   0.71739   0.76479   0.82971
 Alpha virt. eigenvalues --    0.87412   0.88403   0.93258   0.96689   0.97032
 Alpha virt. eigenvalues --    0.98138   1.02654   1.03702   1.07142   1.08967
 Alpha virt. eigenvalues --    1.11536   1.14462   1.23451   1.28910   1.31738
 Alpha virt. eigenvalues --    1.40419   1.48269   1.49960   1.58029   1.59014
 Alpha virt. eigenvalues --    1.59339   1.74958   1.76708   1.82803   1.84040
 Alpha virt. eigenvalues --    1.88883   1.98220   1.99698   2.01635   2.06768
 Alpha virt. eigenvalues --    2.15104   2.20283   2.25457   2.35933   2.51386
 Alpha virt. eigenvalues --    2.52183   2.61465   2.64949   2.70706   3.03609
 Alpha virt. eigenvalues --    3.36481   3.54962   3.65172   3.74312   3.79583
 Alpha virt. eigenvalues --    3.95416
          Condensed to atoms (all electrons):
              1          2          3          4          5          6
     1  O    8.410538  -0.000090  -0.000049   0.164865  -0.036088   0.215848
     2  O   -0.000090   8.277821  -0.009507   0.100911  -0.000032   0.000054
     3  O   -0.000049  -0.009507   8.276823   0.101359  -0.000004  -0.000135
     4  Ca   0.164865   0.100911   0.101359  18.371340   0.090041  -0.006444
     5  O   -0.036088  -0.000032  -0.000004   0.090041   8.362867   0.028914
     6  P    0.215848   0.000054  -0.000135  -0.006444   0.028914  14.210630
     7  H    0.001686   0.000000  -0.000008  -0.007366   0.279476   0.003541
     8  Ca  -0.012843  -0.000010  -0.000211  -0.015299  -0.008862   0.265906
              7          8
     1  O    0.001686  -0.012843
     2  O    0.000000  -0.000010
     3  O   -0.000008  -0.000211
     4  Ca  -0.007366  -0.015299
     5  O    0.279476  -0.008862
     6  P    0.003541   0.265906
     7  H    0.392621   0.001417
     8  Ca   0.001417  19.383215
 Mulliken atomic charges:
              1
     1  O   -0.743867
     2  O   -0.369148
     3  O   -0.368269
     4  Ca   1.200594
     5  O   -0.716313
     6  P    0.281685
     7  H    0.328632
     8  Ca   0.386687
 Sum of Mulliken charges=   0.00000
 Atomic charges with hydrogens summed into heavy atoms:
              1
     1  O   -0.743867
     2  O   -0.369148
     3  O   -0.368269
     4  Ca   1.200594
     5  O   -0.387682
     6  P    0.281685
     7  H    0.000000
     8  Ca   0.386687
 Sum of Mulliken charges=   0.00000
 Electronic spatial extent (au):  <R**2>=  2655.9134
 Charge=     0.0000 electrons
 Dipole moment (field-independent basis, Debye):
    X=     9.5161    Y=    -1.2167    Z=     0.0000  Tot=     9.5935
 Quadrupole moment (field-independent basis, Debye-Ang):
   XX=   -83.1199   YY=   -68.0118   ZZ=   -73.4351
   XY=    -2.7780   XZ=     0.0000   YZ=     0.0000
 Traceless Quadrupole moment (field-independent basis, Debye-Ang):
   XX=    -8.2643   YY=     6.8438   ZZ=     1.4205
   XY=    -2.7780   XZ=     0.0000   YZ=     0.0000
 Octapole moment (field-independent basis, Debye-Ang**2):
  XXX=   147.6731  YYY=   -24.4600  ZZZ=     0.0000  XYY=    -7.0380
  XXY=    29.8439  XXZ=     0.0000  XZZ=   -50.5979  YZZ=    -6.7331
  YYZ=     0.0000  XYZ=     0.0000
 Hexadecapole moment (field-independent basis, Debye-Ang**3):
 XXXX= -4087.9149 YYYY=  -297.9764 ZZZZ=  -165.1254 XXXY=  -259.0519
 XXXZ=     0.0000 YYYX=  -232.2325 YYYZ=     0.0000 ZZZX=     0.0000
 ZZZY=     0.0000 XXYY=  -641.9748 XXZZ=  -668.9550 YYZZ=   -84.4317
 XXYZ=     0.0000 YYXZ=     0.0000 ZZXY=   -80.4210
 N-N= 5.421316541373D+02 E-N=-5.817690008760D+03  KE= 1.992174551478D+03
 Symmetry A'   KE= 1.797646952261D+03
 Symmetry A"   KE= 1.945275992169D+02
 Merz-Kollman atomic radii used.
 Read replacement radii for each type of atom:
 Rad(20) =   1.188000000000D+00
 Atom Element Radius
    1     8    1.40
    2     8    1.40
    3     8    1.40
    4    20    1.19
    5     8    1.40
    6    15    1.80
    7     1    1.20
    8    20    1.19

 **********************************************************************

            Electrostatic Properties Using The SCF Density

 **********************************************************************

       Atomic Center    1 is at   0.000000  1.180370  0.000000
       Atomic Center    2 is at  -4.066510  0.197464  0.000000
       Atomic Center    3 is at  -3.854029 -1.166422  0.000000
       Atomic Center    4 is at  -1.802609 -0.160880  0.000000
       Atomic Center    5 is at   0.223495 -1.342550  0.000000
       Atomic Center    6 is at   1.229180  0.172068  0.000000
       Atomic Center    7 is at   0.725229 -2.165970  0.000000
       Atomic Center    8 is at   3.923280  0.592582  0.000000
     809 points will be used for fitting atomic charges
 Fitting point charges to eletrostatic potential
 Charges from ESP fit, RMS=   0.01893 RRMS=   0.32659:
 Charge=   0.00000 Dipole=    15.7699    -0.3054     0.0000 Tot=    15.7729
              1
     1  O   -0.572715
     2  O   -0.510401
     3  O   -0.503155
     4  Ca   1.681176
     5  O   -0.671292
     6  P   -0.529550
     7  H    0.387412
     8  Ca   0.718524
 -----------------------------------------------------------------

              Electrostatic Properties (Atomic Units)

 -----------------------------------------------------------------
    Center     Electric         -------- Electric Field --------
               Potential          X             Y             Z
 -----------------------------------------------------------------
    1 Atom    -22.373601
    2 Atom    -22.342016
    3 Atom    -22.339894
    4 Atom    -80.191596
    5 Atom    -22.286334
    6 Atom    -54.113364
    7 Atom     -0.970461
    8 Atom    -80.109454
 -----------------------------------------------------------------
 1\1\GINC-N032\SP\RB3LYP\6-31G(d,p)\Ca2H1O4P1\TIMN\04-May-2015\0\\# b3l
 yp/6-31G(d,p) pop=(ReadRadii,MK) scf=qc\\Ca2HPO4_26\\0,1\O,0,0.,1.1803
 7,0.\O,0,-4.06651,0.197466,0.\O,0,-3.85403,-1.16642,0.\Ca,0,-1.80261,-
 0.160879,0.\O,0,0.223494,-1.34255,0.\P,0,1.22918,0.172068,0.\H,0,0.725
 228,-2.16597,0.\Ca,0,3.92328,0.592581,0.\\Version=EM64T-G03RevE.01\Sta
 te=1-A'\HF=-1997.8493595\RMSD=0.000e+00\Thermal=0.\Dipole=3.7439093,-0
 .4787024,0.\PG=CS [SG(Ca2H1O4P1)]\\@


    UPON JULIA'S CLOTHES

 WHENAS IN SILKS MY JULIA GOES,
 THEN, THEN, METHINKS, HOW SWEETLY FLOWS
 THAT LIQUEFACTION OF HER CLOTHES.

 NEXT, WHEN I CAST MINE EYES, AND SEE
 THAT BRAVE VIBRATION, EACH WAY FREE,
 O, HOW THAT GLITTERING TAKETH ME!
     -- ROBERT HERRICK, 1648
 Job cpu time:  0 days  0 hours  7 minutes 23.3 seconds.
 File lengths (MBytes):  RWF=     17 Int=      0 D2E=      0 Chk=     10 Scr=      1
 Normal termination of Gaussian 03 at Mon May  4 21:06:02 2015.
