 Entering Gaussian System, Link 0=/home/timn/tmp/g03.e01/g03
 Input=Ca2HPO4_40.xyz.gjf
 Output=Ca2HPO4_40.xyz.out
 Initial command:
 /home/timn/tmp/g03.e01/l1.exe /home/timn/tmp/g03.e01/Gau-12485.inp -scrdir=/home/timn/tmp/g03.e01/
 Default is to use a total of   2 processors:
                                2 via shared-memory
                                1 via Linda
 Entering Link 1 = /home/timn/tmp/g03.e01/l1.exe PID=     12486.
  
 Copyright (c) 1988,1990,1992,1993,1995,1998,2003,2004,2007, Gaussian, Inc.
                  All Rights Reserved.
  
 This is the Gaussian(R) 03 program.  It is based on the
 the Gaussian(R) 98 system (copyright 1998, Gaussian, Inc.),
 the Gaussian(R) 94 system (copyright 1995, Gaussian, Inc.),
 the Gaussian 92(TM) system (copyright 1992, Gaussian, Inc.),
 the Gaussian 90(TM) system (copyright 1990, Gaussian, Inc.),
 the Gaussian 88(TM) system (copyright 1988, Gaussian, Inc.),
 the Gaussian 86(TM) system (copyright 1986, Carnegie Mellon
 University), and the Gaussian 82(TM) system (copyright 1983,
 Carnegie Mellon University). Gaussian is a federally registered
 trademark of Gaussian, Inc.
  
 This software contains proprietary and confidential information,
 including trade secrets, belonging to Gaussian, Inc.
  
 This software is provided under written license and may be
 used, copied, transmitted, or stored only in accord with that
 written license.
  
 The following legend is applicable only to US Government
 contracts under FAR:
  
                    RESTRICTED RIGHTS LEGEND
  
 Use, reproduction and disclosure by the US Government is
 subject to restrictions as set forth in subparagraphs (a)
 and (c) of the Commercial Computer Software - Restricted
 Rights clause in FAR 52.227-19.
  
 Gaussian, Inc.
 340 Quinnipiac St., Bldg. 40, Wallingford CT 06492
  
  
 ---------------------------------------------------------------
 Warning -- This program may not be used in any manner that
 competes with the business of Gaussian, Inc. or will provide
 assistance to any competitor of Gaussian, Inc.  The licensee
 of this program is prohibited from giving any competitor of
 Gaussian, Inc. access to this program.  By using this program,
 the user acknowledges that Gaussian, Inc. is engaged in the
 business of creating and licensing software in the field of
 computational chemistry and represents and warrants to the
 licensee that it is not a competitor of Gaussian, Inc. and that
 it will not use this program in any manner prohibited above.
 ---------------------------------------------------------------
  

 Cite this work as:
 Gaussian 03, Revision E.01,
 M. J. Frisch, G. W. Trucks, H. B. Schlegel, G. E. Scuseria, 
 M. A. Robb, J. R. Cheeseman, J. A. Montgomery, Jr., T. Vreven, 
 K. N. Kudin, J. C. Burant, J. M. Millam, S. S. Iyengar, J. Tomasi, 
 V. Barone, B. Mennucci, M. Cossi, G. Scalmani, N. Rega, 
 G. A. Petersson, H. Nakatsuji, M. Hada, M. Ehara, K. Toyota, 
 R. Fukuda, J. Hasegawa, M. Ishida, T. Nakajima, Y. Honda, O. Kitao, 
 H. Nakai, M. Klene, X. Li, J. E. Knox, H. P. Hratchian, J. B. Cross, 
 V. Bakken, C. Adamo, J. Jaramillo, R. Gomperts, R. E. Stratmann, 
 O. Yazyev, A. J. Austin, R. Cammi, C. Pomelli, J. W. Ochterski, 
 P. Y. Ayala, K. Morokuma, G. A. Voth, P. Salvador, J. J. Dannenberg, 
 V. G. Zakrzewski, S. Dapprich, A. D. Daniels, M. C. Strain, 
 O. Farkas, D. K. Malick, A. D. Rabuck, K. Raghavachari, 
 J. B. Foresman, J. V. Ortiz, Q. Cui, A. G. Baboul, S. Clifford, 
 J. Cioslowski, B. B. Stefanov, G. Liu, A. Liashenko, P. Piskorz, 
 I. Komaromi, R. L. Martin, D. J. Fox, T. Keith, M. A. Al-Laham, 
 C. Y. Peng, A. Nanayakkara, M. Challacombe, P. M. W. Gill, 
 B. Johnson, W. Chen, M. W. Wong, C. Gonzalez, and J. A. Pople, 
 Gaussian, Inc., Wallingford CT, 2004.
 
 ******************************************
 Gaussian 03:  EM64T-G03RevE.01 11-Sep-2007
                 4-May-2015 
 ******************************************
 %nproc=2
 Will use up to    2 processors via shared memory.
 Default route:  MP2=Direct MaxDisk=2000MB
 -------------------------------------
 # b3lyp/6-31G(d,p) pop=(ReadRadii,MK)
 -------------------------------------
 1/38=1/1;
 2/17=6,18=5,40=1/2;
 3/5=1,6=6,7=101,11=2,16=1,25=1,30=1,74=-5/1,2,3;
 4//1;
 5/5=2,32=1,38=5/2;
 6/7=2,8=2,9=2,10=2,15=8,20=101,28=1/1,2;
 99/5=1,9=1/99;
 ----------
 Ca2HPO4_40
 ----------
 Symbolic Z-matrix:
 Charge =  0 Multiplicity = 1
 Ca                    0.84804   1.63692   0.04659 
 O                    -1.34891   1.31934  -0.67764 
 O                     2.14691   0.00362  -0.42108 
 P                    -1.54708  -0.0025    0.10464 
 H                    -2.82893  -0.00439   0.68914 
 O                    -0.45334  -0.00058   1.26076 
 Ca                    0.85374  -1.63419   0.04653 
 O                    -1.34472  -1.32397  -0.67719 
 
                          Input orientation:                          
 ---------------------------------------------------------------------
 Center     Atomic     Atomic              Coordinates (Angstroms)
 Number     Number      Type              X           Y           Z
 ---------------------------------------------------------------------
    1         20             0        0.848035    1.636920    0.046593
    2          8             0       -1.348910    1.319340   -0.677636
    3          8             0        2.146910    0.003620   -0.421076
    4         15             0       -1.547080   -0.002499    0.104639
    5          1             0       -2.828930   -0.004394    0.689138
    6          8             0       -0.453343   -0.000583    1.260760
    7         20             0        0.853744   -1.634190    0.046529
    8          8             0       -1.344720   -1.323970   -0.677193
 ---------------------------------------------------------------------
                    Distance matrix (angstroms):
                    1          2          3          4          5
     1  Ca   0.000000
     2  O    2.334937   0.000000
     3  O    2.138565   3.744022   0.000000
     4  P    2.903040   1.548704   3.731216   0.000000
     5  H    4.077603   2.410561   5.098198   1.408823   0.000000
     6  O    2.418512   2.510302   3.096757   1.591502   2.443395
     7  Ca   3.271115   3.754922   2.138540   2.903403   4.078145
     8  O    3.754852   2.643313   3.744272   1.548708   2.410606
                    6          7          8
     6  O    0.000000
     7  Ca   2.418988   0.000000
     8  O    2.510292   2.335220   0.000000
 Stoichiometry    Ca2HO4P
 Framework group  C1[X(Ca2HO4P)]
 Deg. of freedom    18
 Full point group                 C1
 Largest Abelian subgroup         C1      NOp   1
 Largest concise Abelian subgroup C1      NOp   1
                         Standard orientation:                         
 ---------------------------------------------------------------------
 Center     Atomic     Atomic              Coordinates (Angstroms)
 Number     Number      Type              X           Y           Z
 ---------------------------------------------------------------------
    1         20             0        0.848038    1.636919    0.046593
    2          8             0       -1.348908    1.319342   -0.677636
    3          8             0        2.146911    0.003618   -0.421076
    4         15             0       -1.547079   -0.002497    0.104639
    5          1             0       -2.828929   -0.004390    0.689138
    6          8             0       -0.453342   -0.000582    1.260760
    7         20             0        0.853743   -1.634191    0.046529
    8          8             0       -1.344721   -1.323968   -0.677193
 ---------------------------------------------------------------------
 Rotational constants (GHZ):      1.6115495      1.5841316      0.9276529
 Standard basis: 6-31G(d,p) (6D, 7F)
 There are   130 symmetry adapted basis functions of A   symmetry.
 Integral buffers will be    131072 words long.
 Raffenetti 2 integral format.
 Two-electron integral symmetry is turned on.
   130 basis functions,   323 primitive gaussians,   130 cartesian basis functions
    44 alpha electrons       44 beta electrons
       nuclear repulsion energy       665.5291152144 Hartrees.
 NAtoms=    8 NActive=    8 NUniq=    8 SFac= 7.50D-01 NAtFMM=   80 NAOKFM=F Big=F
 One-electron integrals computed using PRISM.
 NBasis=   130 RedAO= T  NBF=   130
 NBsUse=   130 1.00D-06 NBFU=   130
 Harris functional with IExCor=  402 diagonalized for initial guess.
 ExpMin= 2.60D-02 ExpMax= 3.53D+04 ExpMxC= 5.30D+03 IAcc=3 IRadAn=         5 AccDes= 0.00D+00
 HarFok:  IExCor= 402 AccDes= 0.00D+00 IRadAn=         5 IDoV=1
 ScaDFX=  1.000000  1.000000  1.000000  1.000000
 Initial guess orbital symmetries:
       Occupied  (A) (A) (A) (A) (A) (A) (A) (A) (A) (A) (A) (A)
                 (A) (A) (A) (A) (A) (A) (A) (A) (A) (A) (A) (A)
                 (A) (A) (A) (A) (A) (A) (A) (A) (A) (A) (A) (A)
                 (A) (A) (A) (A) (A) (A) (A) (A)
       Virtual   (A) (A) (A) (A) (A) (A) (A) (A) (A) (A) (A) (A)
                 (A) (A) (A) (A) (A) (A) (A) (A) (A) (A) (A) (A)
                 (A) (A) (A) (A) (A) (A) (A) (A) (A) (A) (A) (A)
                 (A) (A) (A) (A) (A) (A) (A) (A) (A) (A) (A) (A)
                 (A) (A) (A) (A) (A) (A) (A) (A) (A) (A) (A) (A)
                 (A) (A) (A) (A) (A) (A) (A) (A) (A) (A) (A) (A)
                 (A) (A) (A) (A) (A) (A) (A) (A) (A) (A) (A) (A)
                 (A) (A)
 The electronic state of the initial guess is 1-A.
 Requested convergence on RMS density matrix=1.00D-04 within 128 cycles.
 Requested convergence on MAX density matrix=1.00D-02.
 Requested convergence on             energy=1.00D-02.
 No special actions if energy rises.
 Keep R1 integrals in memory in canonical form, NReq=    38353971.
 EnCoef did     3 forward-backward iterations
 SCF Done:  E(RB+HF-LYP) =  -1998.18466019     A.U. after    8 cycles
             Convg  =    0.5009D-04             -V/T =  2.0030
             S**2   =   0.0000

 **********************************************************************

            Population analysis using the SCF density.

 **********************************************************************

 Orbital symmetries:
       Occupied  (A) (A) (A) (A) (A) (A) (A) (A) (A) (A) (A) (A)
                 (A) (A) (A) (A) (A) (A) (A) (A) (A) (A) (A) (A)
                 (A) (A) (A) (A) (A) (A) (A) (A) (A) (A) (A) (A)
                 (A) (A) (A) (A) (A) (A) (A) (A)
       Virtual   (A) (A) (A) (A) (A) (A) (A) (A) (A) (A) (A) (A)
                 (A) (A) (A) (A) (A) (A) (A) (A) (A) (A) (A) (A)
                 (A) (A) (A) (A) (A) (A) (A) (A) (A) (A) (A) (A)
                 (A) (A) (A) (A) (A) (A) (A) (A) (A) (A) (A) (A)
                 (A) (A) (A) (A) (A) (A) (A) (A) (A) (A) (A) (A)
                 (A) (A) (A) (A) (A) (A) (A) (A) (A) (A) (A) (A)
                 (A) (A) (A) (A) (A) (A) (A) (A) (A) (A) (A) (A)
                 (A) (A)
 The electronic state is 1-A.
 Alpha  occ. eigenvalues -- -145.33873-145.33868 -77.15627 -19.08570 -19.07749
 Alpha  occ. eigenvalues --  -19.07749 -18.98696 -15.40982 -15.40976 -12.54184
 Alpha  occ. eigenvalues --  -12.54179 -12.54168 -12.54163 -12.54024 -12.54019
 Alpha  occ. eigenvalues --   -6.60620  -4.76988  -4.76889  -4.76857  -1.78579
 Alpha  occ. eigenvalues --   -1.78501  -1.07219  -1.06329  -1.06306  -1.06081
 Alpha  occ. eigenvalues --   -1.05939  -1.05148  -0.97024  -0.89651  -0.89145
 Alpha  occ. eigenvalues --   -0.72746  -0.52408  -0.41389  -0.38163  -0.37697
 Alpha  occ. eigenvalues --   -0.31282  -0.29081  -0.27391  -0.26161  -0.26019
 Alpha  occ. eigenvalues --   -0.23310  -0.18591  -0.16901  -0.16625
 Alpha virt. eigenvalues --   -0.07034  -0.05782   0.00796   0.00822   0.02426
 Alpha virt. eigenvalues --    0.02679   0.04316   0.05248   0.07231   0.09392
 Alpha virt. eigenvalues --    0.12722   0.13882   0.14656   0.15289   0.17023
 Alpha virt. eigenvalues --    0.17104   0.17700   0.18259   0.21187   0.22121
 Alpha virt. eigenvalues --    0.24899   0.27941   0.27950   0.31682   0.32422
 Alpha virt. eigenvalues --    0.34566   0.37652   0.37876   0.41643   0.42569
 Alpha virt. eigenvalues --    0.43078   0.46120   0.46786   0.51746   0.55072
 Alpha virt. eigenvalues --    0.63097   0.72844   0.75813   0.80152   0.92394
 Alpha virt. eigenvalues --    0.92996   0.98734   1.08781   1.09978   1.10650
 Alpha virt. eigenvalues --    1.13809   1.16194   1.17438   1.20390   1.21625
 Alpha virt. eigenvalues --    1.23182   1.23980   1.28472   1.29524   1.40914
 Alpha virt. eigenvalues --    1.47758   1.53921   1.68913   1.82981   1.84393
 Alpha virt. eigenvalues --    1.86689   1.87356   1.88119   1.88280   1.91625
 Alpha virt. eigenvalues --    1.94143   1.96633   1.98417   2.00398   2.01209
 Alpha virt. eigenvalues --    2.04502   2.08828   2.15202   2.21487   2.22057
 Alpha virt. eigenvalues --    2.30174   2.34406   2.59658   2.79982   2.85075
 Alpha virt. eigenvalues --    2.86805   3.56295   3.80009   3.82024   3.84618
 Alpha virt. eigenvalues --    4.04025
          Condensed to atoms (all electrons):
              1          2          3          4          5          6
     1  Ca  18.698773   0.157179   0.238740  -0.024734   0.008110   0.111791
     2  O    0.157179   8.311688  -0.000366   0.371428  -0.046817  -0.045126
     3  O    0.238740  -0.000366   8.434313   0.001580  -0.000004  -0.006595
     4  P   -0.024734   0.371428   0.001580  12.657760   0.254498   0.247465
     5  H    0.008110  -0.046817  -0.000004   0.254498   0.969573  -0.036677
     6  O    0.111791  -0.045126  -0.006595   0.247465  -0.036677   8.451966
     7  Ca  -0.217288  -0.011600   0.238760  -0.024729   0.008093   0.111746
     8  O   -0.011600  -0.027430  -0.000366   0.371472  -0.046811  -0.045127
              7          8
     1  Ca  -0.217288  -0.011600
     2  O   -0.011600  -0.027430
     3  O    0.238760  -0.000366
     4  P   -0.024729   0.371472
     5  H    0.008093  -0.046811
     6  O    0.111746  -0.045127
     7  Ca  18.698776   0.157158
     8  O    0.157158   8.311654
 Mulliken atomic charges:
              1
     1  Ca   1.039029
     2  O   -0.708956
     3  O   -0.906062
     4  P    1.145261
     5  H   -0.109964
     6  O   -0.789442
     7  Ca   1.039085
     8  O   -0.708951
 Sum of Mulliken charges=   0.00000
 Atomic charges with hydrogens summed into heavy atoms:
              1
     1  Ca   1.039029
     2  O   -0.708956
     3  O   -0.906062
     4  P    1.035297
     5  H    0.000000
     6  O   -0.789442
     7  Ca   1.039085
     8  O   -0.708951
 Sum of Mulliken charges=   0.00000
 Electronic spatial extent (au):  <R**2>=  1200.2657
 Charge=     0.0000 electrons
 Dipole moment (field-independent basis, Debye):
    X=     3.1714    Y=     0.0044    Z=     3.1984  Tot=     4.5042
 Quadrupole moment (field-independent basis, Debye-Ang):
   XX=   -81.5704   YY=   -33.6754   ZZ=   -69.9152
   XY=    -0.0849   XZ=     1.2249   YZ=     0.0037
 Traceless Quadrupole moment (field-independent basis, Debye-Ang):
   XX=   -19.8501   YY=    28.0450   ZZ=    -8.1949
   XY=    -0.0849   XZ=     1.2249   YZ=     0.0037
 Octapole moment (field-independent basis, Debye-Ang**2):
  XXX=   -40.8486  YYY=     0.2675  ZZZ=    -1.7150  XYY=    54.2370
  XXY=    -0.2511  XXZ=    18.8672  XZZ=     7.1649  YZZ=     0.0079
  YYZ=    10.9395  XYZ=     0.0126
 Hexadecapole moment (field-independent basis, Debye-Ang**3):
 XXXX=  -854.4496 YYYY=  -436.7401 ZZZZ=  -202.1150 XXXY=    -0.3703
 XXXZ=    18.5232 YYYX=    -0.3277 YYYZ=    -0.0295 ZZZX=     8.2363
 ZZZY=     0.0157 XXYY=  -210.2871 XXZZ=  -164.9369 YYZZ=  -124.2426
 XXYZ=     0.0571 YYXZ=    -7.2744 ZZXY=    -0.0594
 N-N= 6.655291152144D+02 E-N=-6.068064828053D+03  KE= 1.992268642094D+03
 Merz-Kollman atomic radii used.
 Read replacement radii for each type of atom:
 Rad(20) =   1.188000000000D+00
 Atom Element Radius
    1    20    1.19
    2     8    1.40
    3     8    1.40
    4    15    1.80
    5     1    1.20
    6     8    1.40
    7    20    1.19
    8     8    1.40

 **********************************************************************

            Electrostatic Properties Using The SCF Density

 **********************************************************************

       Atomic Center    1 is at   0.848038  1.636919  0.046593
       Atomic Center    2 is at  -1.348908  1.319342 -0.677636
       Atomic Center    3 is at   2.146911  0.003618 -0.421076
       Atomic Center    4 is at  -1.547079 -0.002497  0.104639
       Atomic Center    5 is at  -2.828929 -0.004390  0.689138
       Atomic Center    6 is at  -0.453342 -0.000582  1.260760
       Atomic Center    7 is at   0.853743 -1.634191  0.046529
       Atomic Center    8 is at  -1.344721 -1.323968 -0.677193
     670 points will be used for fitting atomic charges
 Fitting point charges to eletrostatic potential
 Charges from ESP fit, RMS=   0.00510 RRMS=   0.08153:
 Charge=   0.00000 Dipole=     3.6708     0.0048     3.3992 Tot=     5.0029
              1
     1  Ca   1.531942
     2  O   -0.892063
     3  O   -1.407716
     4  P    1.250989
     5  H   -0.085503
     6  O   -1.037603
     7  Ca   1.531837
     8  O   -0.891883
 -----------------------------------------------------------------

              Electrostatic Properties (Atomic Units)

 -----------------------------------------------------------------
    Center     Electric         -------- Electric Field --------
               Potential          X             Y             Z
 -----------------------------------------------------------------
    1 Atom    -80.203706
    2 Atom    -22.386019
    3 Atom    -22.474067
    4 Atom    -54.049424
    5 Atom     -1.129469
    6 Atom    -22.377456
    7 Atom    -80.203656
    8 Atom    -22.386017
 -----------------------------------------------------------------
 1\1\GINC-N029\SP\RB3LYP\6-31G(d,p)\Ca2H1O4P1\TIMN\04-May-2015\0\\# b3l
 yp/6-31G(d,p) pop=(ReadRadii,MK)\\Ca2HPO4_40\\0,1\Ca,0,0.848035,1.6369
 2,0.046593\O,0,-1.34891,1.31934,-0.677636\O,0,2.14691,0.00362,-0.42107
 6\P,0,-1.54708,-0.002499,0.104639\H,0,-2.82893,-0.004394,0.689138\O,0,
 -0.453343,-0.000583,1.26076\Ca,0,0.853744,-1.63419,0.046529\O,0,-1.344
 72,-1.32397,-0.677193\\Version=EM64T-G03RevE.01\State=1-A\HF=-1998.184
 6602\RMSD=5.009e-05\Thermal=0.\Dipole=1.2477397,0.0017465,1.2583301\PG
 =C01 [X(Ca2H1O4P1)]\\@


 REPARTEE - WHAT YOU THINK OF AFTER YOU BECOME A DEPARTEE.
 Job cpu time:  0 days  0 hours  0 minutes 20.2 seconds.
 File lengths (MBytes):  RWF=     21 Int=      0 D2E=      0 Chk=     10 Scr=      1
 Normal termination of Gaussian 03 at Mon May  4 20:08:37 2015.
