 Entering Gaussian System, Link 0=/home/timn/tmp/g03.e01/g03
 Input=Ca2HPO4_51.xyz.gjf
 Output=Ca2HPO4_51.xyz.out
 Initial command:
 /home/timn/tmp/g03.e01/l1.exe /home/timn/tmp/g03.e01/Gau-5504.inp -scrdir=/home/timn/tmp/g03.e01/
 Default is to use a total of   2 processors:
                                2 via shared-memory
                                1 via Linda
 Entering Link 1 = /home/timn/tmp/g03.e01/l1.exe PID=      5505.
  
 Copyright (c) 1988,1990,1992,1993,1995,1998,2003,2004,2007, Gaussian, Inc.
                  All Rights Reserved.
  
 This is the Gaussian(R) 03 program.  It is based on the
 the Gaussian(R) 98 system (copyright 1998, Gaussian, Inc.),
 the Gaussian(R) 94 system (copyright 1995, Gaussian, Inc.),
 the Gaussian 92(TM) system (copyright 1992, Gaussian, Inc.),
 the Gaussian 90(TM) system (copyright 1990, Gaussian, Inc.),
 the Gaussian 88(TM) system (copyright 1988, Gaussian, Inc.),
 the Gaussian 86(TM) system (copyright 1986, Carnegie Mellon
 University), and the Gaussian 82(TM) system (copyright 1983,
 Carnegie Mellon University). Gaussian is a federally registered
 trademark of Gaussian, Inc.
  
 This software contains proprietary and confidential information,
 including trade secrets, belonging to Gaussian, Inc.
  
 This software is provided under written license and may be
 used, copied, transmitted, or stored only in accord with that
 written license.
  
 The following legend is applicable only to US Government
 contracts under FAR:
  
                    RESTRICTED RIGHTS LEGEND
  
 Use, reproduction and disclosure by the US Government is
 subject to restrictions as set forth in subparagraphs (a)
 and (c) of the Commercial Computer Software - Restricted
 Rights clause in FAR 52.227-19.
  
 Gaussian, Inc.
 340 Quinnipiac St., Bldg. 40, Wallingford CT 06492
  
  
 ---------------------------------------------------------------
 Warning -- This program may not be used in any manner that
 competes with the business of Gaussian, Inc. or will provide
 assistance to any competitor of Gaussian, Inc.  The licensee
 of this program is prohibited from giving any competitor of
 Gaussian, Inc. access to this program.  By using this program,
 the user acknowledges that Gaussian, Inc. is engaged in the
 business of creating and licensing software in the field of
 computational chemistry and represents and warrants to the
 licensee that it is not a competitor of Gaussian, Inc. and that
 it will not use this program in any manner prohibited above.
 ---------------------------------------------------------------
  

 Cite this work as:
 Gaussian 03, Revision E.01,
 M. J. Frisch, G. W. Trucks, H. B. Schlegel, G. E. Scuseria, 
 M. A. Robb, J. R. Cheeseman, J. A. Montgomery, Jr., T. Vreven, 
 K. N. Kudin, J. C. Burant, J. M. Millam, S. S. Iyengar, J. Tomasi, 
 V. Barone, B. Mennucci, M. Cossi, G. Scalmani, N. Rega, 
 G. A. Petersson, H. Nakatsuji, M. Hada, M. Ehara, K. Toyota, 
 R. Fukuda, J. Hasegawa, M. Ishida, T. Nakajima, Y. Honda, O. Kitao, 
 H. Nakai, M. Klene, X. Li, J. E. Knox, H. P. Hratchian, J. B. Cross, 
 V. Bakken, C. Adamo, J. Jaramillo, R. Gomperts, R. E. Stratmann, 
 O. Yazyev, A. J. Austin, R. Cammi, C. Pomelli, J. W. Ochterski, 
 P. Y. Ayala, K. Morokuma, G. A. Voth, P. Salvador, J. J. Dannenberg, 
 V. G. Zakrzewski, S. Dapprich, A. D. Daniels, M. C. Strain, 
 O. Farkas, D. K. Malick, A. D. Rabuck, K. Raghavachari, 
 J. B. Foresman, J. V. Ortiz, Q. Cui, A. G. Baboul, S. Clifford, 
 J. Cioslowski, B. B. Stefanov, G. Liu, A. Liashenko, P. Piskorz, 
 I. Komaromi, R. L. Martin, D. J. Fox, T. Keith, M. A. Al-Laham, 
 C. Y. Peng, A. Nanayakkara, M. Challacombe, P. M. W. Gill, 
 B. Johnson, W. Chen, M. W. Wong, C. Gonzalez, and J. A. Pople, 
 Gaussian, Inc., Wallingford CT, 2004.
 
 ******************************************
 Gaussian 03:  EM64T-G03RevE.01 11-Sep-2007
                 4-May-2015 
 ******************************************
 %nproc=2
 Will use up to    2 processors via shared memory.
 Default route:  MP2=Direct MaxDisk=2000MB
 -------------------------------------
 # b3lyp/6-31G(d,p) pop=(ReadRadii,MK)
 -------------------------------------
 1/38=1/1;
 2/17=6,18=5,40=1/2;
 3/5=1,6=6,7=101,11=2,16=1,25=1,30=1,74=-5/1,2,3;
 4//1;
 5/5=2,32=1,38=5/2;
 6/7=2,8=2,9=2,10=2,15=8,20=101,28=1/1,2;
 99/5=1,9=1/99;
 ----------
 Ca2HPO4_51
 ----------
 Symbolic Z-matrix:
 Charge =  0 Multiplicity = 1
 O                     2.95744  -0.81105   0.90954 
 H                     3.77886  -0.32771   1.06407 
 O                     3.06956  -1.08811  -0.5831 
 O                     0.48373   2.09805  -0.27698 
 P                    -0.99164   2.00577   0.11521 
 Ca                   -2.57572  -1.52865  -0.00196 
 O                    -1.3122    0.47957   0.27648 
 Ca                    1.0511   -0.23068  -0.26803 
 
                          Input orientation:                          
 ---------------------------------------------------------------------
 Center     Atomic     Atomic              Coordinates (Angstroms)
 Number     Number      Type              X           Y           Z
 ---------------------------------------------------------------------
    1          8             0        2.957440   -0.811051    0.909541
    2          1             0        3.778860   -0.327707    1.064070
    3          8             0        3.069560   -1.088110   -0.583098
    4          8             0        0.483733    2.098050   -0.276980
    5         15             0       -0.991644    2.005770    0.115205
    6         20             0       -2.575720   -1.528650   -0.001959
    7          8             0       -1.312200    0.479567    0.276481
    8         20             0        1.051100   -0.230684   -0.268027
 ---------------------------------------------------------------------
                    Distance matrix (angstroms):
                    1          2          3          4          5
     1  O    0.000000
     2  H    0.965521   0.000000
     3  O    1.522269   1.947943   0.000000
     4  O    3.998741   4.305877   4.114830   0.000000
     5  P    4.915355   5.394735   5.152970   1.529399   0.000000
     6  Ca   5.653463   6.554340   5.692186   4.752772   3.874939
     7  O    4.505140   5.214487   4.732474   2.480158   1.567821
     8  Ca   2.314654   3.037198   2.215543   2.396870   3.053096
                    6          7          8
     6  Ca   0.000000
     7  O    2.388922   0.000000
     8  Ca   3.861260   2.527080   0.000000
 Stoichiometry    Ca2HO4P
 Framework group  C1[X(Ca2HO4P)]
 Deg. of freedom    18
 Full point group                 C1
 Largest Abelian subgroup         C1      NOp   1
 Largest concise Abelian subgroup C1      NOp   1
                         Standard orientation:                         
 ---------------------------------------------------------------------
 Center     Atomic     Atomic              Coordinates (Angstroms)
 Number     Number      Type              X           Y           Z
 ---------------------------------------------------------------------
    1          8             0        2.957438   -0.811052    0.909541
    2          1             0        3.778859   -0.327709    1.064070
    3          8             0        3.069558   -1.088111   -0.583098
    4          8             0        0.483734    2.098052   -0.276980
    5         15             0       -0.991643    2.005773    0.115205
    6         20             0       -2.575722   -1.528645   -0.001959
    7          8             0       -1.312200    0.479570    0.276481
    8         20             0        1.051099   -0.230683   -0.268027
 ---------------------------------------------------------------------
 Rotational constants (GHZ):      1.4470276      0.7204980      0.5055504
 Standard basis: 6-31G(d,p) (6D, 7F)
 There are   130 symmetry adapted basis functions of A   symmetry.
 Integral buffers will be    131072 words long.
 Raffenetti 2 integral format.
 Two-electron integral symmetry is turned on.
   130 basis functions,   323 primitive gaussians,   130 cartesian basis functions
    44 alpha electrons       44 beta electrons
       nuclear repulsion energy       563.9833715887 Hartrees.
 NAtoms=    8 NActive=    8 NUniq=    8 SFac= 7.50D-01 NAtFMM=   80 NAOKFM=F Big=F
 One-electron integrals computed using PRISM.
 NBasis=   130 RedAO= T  NBF=   130
 NBsUse=   130 1.00D-06 NBFU=   130
 Harris functional with IExCor=  402 diagonalized for initial guess.
 ExpMin= 2.60D-02 ExpMax= 3.53D+04 ExpMxC= 5.30D+03 IAcc=3 IRadAn=         5 AccDes= 0.00D+00
 HarFok:  IExCor= 402 AccDes= 0.00D+00 IRadAn=         5 IDoV=1
 ScaDFX=  1.000000  1.000000  1.000000  1.000000
 Initial guess orbital symmetries:
       Occupied  (A) (A) (A) (A) (A) (A) (A) (A) (A) (A) (A) (A)
                 (A) (A) (A) (A) (A) (A) (A) (A) (A) (A) (A) (A)
                 (A) (A) (A) (A) (A) (A) (A) (A) (A) (A) (A) (A)
                 (A) (A) (A) (A) (A) (A) (A) (A)
       Virtual   (A) (A) (A) (A) (A) (A) (A) (A) (A) (A) (A) (A)
                 (A) (A) (A) (A) (A) (A) (A) (A) (A) (A) (A) (A)
                 (A) (A) (A) (A) (A) (A) (A) (A) (A) (A) (A) (A)
                 (A) (A) (A) (A) (A) (A) (A) (A) (A) (A) (A) (A)
                 (A) (A) (A) (A) (A) (A) (A) (A) (A) (A) (A) (A)
                 (A) (A) (A) (A) (A) (A) (A) (A) (A) (A) (A) (A)
                 (A) (A) (A) (A) (A) (A) (A) (A) (A) (A) (A) (A)
                 (A) (A)
 The electronic state of the initial guess is 1-A.
 Requested convergence on RMS density matrix=1.00D-04 within 128 cycles.
 Requested convergence on MAX density matrix=1.00D-02.
 Requested convergence on             energy=1.00D-02.
 No special actions if energy rises.
 Keep R1 integrals in memory in canonical form, NReq=    38354263.
 EnCoef did    12 forward-backward iterations
 EnCoef did     9 forward-backward iterations
 EnCoef did     9 forward-backward iterations
 EnCoef did     9 forward-backward iterations
 EnCoef did     6 forward-backward iterations
 SCF Done:  E(RB+HF-LYP) =  -1998.02158215     A.U. after   11 cycles
             Convg  =    0.8633D-04             -V/T =  2.0029
             S**2   =   0.0000

 **********************************************************************

            Population analysis using the SCF density.

 **********************************************************************

 Orbital symmetries:
       Occupied  (A) (A) (A) (A) (A) (A) (A) (A) (A) (A) (A) (A)
                 (A) (A) (A) (A) (A) (A) (A) (A) (A) (A) (A) (A)
                 (A) (A) (A) (A) (A) (A) (A) (A) (A) (A) (A) (A)
                 (A) (A) (A) (A) (A) (A) (A) (A)
       Virtual   (A) (A) (A) (A) (A) (A) (A) (A) (A) (A) (A) (A)
                 (A) (A) (A) (A) (A) (A) (A) (A) (A) (A) (A) (A)
                 (A) (A) (A) (A) (A) (A) (A) (A) (A) (A) (A) (A)
                 (A) (A) (A) (A) (A) (A) (A) (A) (A) (A) (A) (A)
                 (A) (A) (A) (A) (A) (A) (A) (A) (A) (A) (A) (A)
                 (A) (A) (A) (A) (A) (A) (A) (A) (A) (A) (A) (A)
                 (A) (A) (A) (A) (A) (A) (A) (A) (A) (A) (A) (A)
                 (A) (A)
 The electronic state is 1-A.
 Alpha  occ. eigenvalues -- -145.38222-145.37120 -77.19199 -19.18347 -19.17646
 Alpha  occ. eigenvalues --  -19.16790 -19.10886 -15.45392 -15.44264 -12.58541
 Alpha  occ. eigenvalues --  -12.58539 -12.58465 -12.57491 -12.57449 -12.57295
 Alpha  occ. eigenvalues --   -6.65042  -4.81471  -4.81230  -4.80816  -1.82689
 Alpha  occ. eigenvalues --   -1.81772  -1.10508  -1.10072  -1.10053  -1.09982
 Alpha  occ. eigenvalues --   -1.09619  -1.09478  -1.03741  -1.02020  -0.97702
 Alpha  occ. eigenvalues --   -0.79619  -0.56678  -0.48218  -0.45417  -0.43203
 Alpha  occ. eigenvalues --   -0.42394  -0.38189  -0.35795  -0.34522  -0.33465
 Alpha  occ. eigenvalues --   -0.30839  -0.23538  -0.20646  -0.14731
 Alpha virt. eigenvalues --   -0.09531  -0.06386  -0.04267  -0.02781  -0.01051
 Alpha virt. eigenvalues --   -0.00750   0.02225   0.02982   0.04793   0.05620
 Alpha virt. eigenvalues --    0.05897   0.08128   0.10483   0.10923   0.11624
 Alpha virt. eigenvalues --    0.12867   0.13832   0.15036   0.17370   0.18526
 Alpha virt. eigenvalues --    0.19190   0.19629   0.20015   0.21662   0.22032
 Alpha virt. eigenvalues --    0.25974   0.28411   0.29328   0.30518   0.33714
 Alpha virt. eigenvalues --    0.35463   0.39144   0.40780   0.42710   0.44534
 Alpha virt. eigenvalues --    0.47864   0.63412   0.64382   0.70945   0.81055
 Alpha virt. eigenvalues --    0.84528   0.90422   0.92313   0.95248   0.97121
 Alpha virt. eigenvalues --    1.01302   1.02200   1.05085   1.07841   1.10491
 Alpha virt. eigenvalues --    1.13020   1.16338   1.18866   1.22989   1.30084
 Alpha virt. eigenvalues --    1.33501   1.38026   1.47878   1.52109   1.57846
 Alpha virt. eigenvalues --    1.68359   1.76172   1.78712   1.81441   1.81883
 Alpha virt. eigenvalues --    1.83898   1.90209   1.92867   1.94885   1.99302
 Alpha virt. eigenvalues --    2.03324   2.11638   2.17681   2.33486   2.37305
 Alpha virt. eigenvalues --    2.60749   2.65411   2.75028   2.78905   3.01436
 Alpha virt. eigenvalues --    3.41786   3.45848   3.65304   3.68288   3.76076
 Alpha virt. eigenvalues --    3.89841
          Condensed to atoms (all electrons):
              1          2          3          4          5          6
     1  O    8.085527   0.273748   0.011377  -0.000070  -0.000301  -0.003243
     2  H    0.273748   0.408627  -0.018588  -0.000026   0.000017   0.000151
     3  O    0.011377  -0.018588   8.366335  -0.000062  -0.000023  -0.008083
     4  O   -0.000070  -0.000026  -0.000062   8.261461   0.306961  -0.005449
     5  P   -0.000301   0.000017  -0.000023   0.306961  13.658692  -0.013647
     6  Ca  -0.003243   0.000151  -0.008083  -0.005449  -0.013647  19.923693
     7  O    0.000000   0.000000  -0.000019  -0.046877   0.227593  -0.004250
     8  Ca   0.075312  -0.012186   0.161280   0.106084   0.028535   0.050986
              7          8
     1  O    0.000000   0.075312
     2  H    0.000000  -0.012186
     3  O   -0.000019   0.161280
     4  O   -0.046877   0.106084
     5  P    0.227593   0.028535
     6  Ca  -0.004250   0.050986
     7  O    8.464498   0.056766
     8  Ca   0.056766  18.459198
 Mulliken atomic charges:
              1
     1  O   -0.442350
     2  H    0.348257
     3  O   -0.512217
     4  O   -0.622021
     5  P    0.792174
     6  Ca   0.059842
     7  O   -0.697712
     8  Ca   1.074027
 Sum of Mulliken charges=   0.00000
 Atomic charges with hydrogens summed into heavy atoms:
              1
     1  O   -0.094093
     2  H    0.000000
     3  O   -0.512217
     4  O   -0.622021
     5  P    0.792174
     6  Ca   0.059842
     7  O   -0.697712
     8  Ca   1.074027
 Sum of Mulliken charges=   0.00000
 Electronic spatial extent (au):  <R**2>=  2026.9024
 Charge=     0.0000 electrons
 Dipole moment (field-independent basis, Debye):
    X=    -2.5057    Y=     2.9898    Z=     1.0277  Tot=     4.0341
 Quadrupole moment (field-independent basis, Debye-Ang):
   XX=   -80.9454   YY=   -85.7112   ZZ=   -70.6564
   XY=     3.5790   XZ=     3.7147   YZ=    -0.3912
 Traceless Quadrupole moment (field-independent basis, Debye-Ang):
   XX=    -1.8411   YY=    -6.6069   ZZ=     8.4480
   XY=     3.5790   XZ=     3.7147   YZ=    -0.3912
 Octapole moment (field-independent basis, Debye-Ang**2):
  XXX=    48.7629  YYY=    56.9600  ZZZ=     4.1323  XYY=    15.3937
  XXY=    50.4719  XXZ=    28.8898  XZZ=    29.0105  YZZ=    20.7947
  YYZ=     7.9266  XYZ=     3.5038
 Hexadecapole moment (field-independent basis, Debye-Ang**3):
 XXXX= -1918.2708 YYYY= -1129.1319 ZZZZ=  -204.8100 XXXY=   -28.5110
 XXXZ=    87.3866 YYYX=  -146.2630 YYYZ=    -7.8782 ZZZX=    -7.6118
 ZZZY=    -7.4916 XXYY=  -570.5024 XXZZ=  -354.5608 YYZZ=  -212.7131
 XXYZ=   -20.3109 YYXZ=    -2.6434 ZZXY=   -39.5787
 N-N= 5.639833715887D+02 E-N=-5.859919588898D+03  KE= 1.992240857648D+03
 Merz-Kollman atomic radii used.
 Read replacement radii for each type of atom:
 Rad(20) =   1.188000000000D+00
 Atom Element Radius
    1     8    1.40
    2     1    1.20
    3     8    1.40
    4     8    1.40
    5    15    1.80
    6    20    1.19
    7     8    1.40
    8    20    1.19

 **********************************************************************

            Electrostatic Properties Using The SCF Density

 **********************************************************************

       Atomic Center    1 is at   2.957438 -0.811052  0.909541
       Atomic Center    2 is at   3.778859 -0.327709  1.064070
       Atomic Center    3 is at   3.069558 -1.088111 -0.583098
       Atomic Center    4 is at   0.483734  2.098052 -0.276980
       Atomic Center    5 is at  -0.991643  2.005773  0.115205
       Atomic Center    6 is at  -2.575722 -1.528645 -0.001959
       Atomic Center    7 is at  -1.312200  0.479570  0.276481
       Atomic Center    8 is at   1.051099 -0.230683 -0.268027
     837 points will be used for fitting atomic charges
 Fitting point charges to eletrostatic potential
 Charges from ESP fit, RMS=   0.02246 RRMS=   0.47083:
 Charge=   0.00000 Dipole=    -6.3154    -1.4434     0.1481 Tot=     6.4799
              1
     1  O   -0.625271
     2  H    0.466019
     3  O   -0.709922
     4  O   -0.311321
     5  P   -0.037403
     6  Ca   0.202097
     7  O   -0.219543
     8  Ca   1.235345
 -----------------------------------------------------------------

              Electrostatic Properties (Atomic Units)

 -----------------------------------------------------------------
    Center     Electric         -------- Electric Field --------
               Potential          X             Y             Z
 -----------------------------------------------------------------
    1 Atom    -22.282464
    2 Atom     -0.999921
    3 Atom    -22.371650
    4 Atom    -22.299245
    5 Atom    -54.024700
    6 Atom    -80.162159
    7 Atom    -22.288018
    8 Atom    -80.170410
 -----------------------------------------------------------------
 1\1\GINC-N027\SP\RB3LYP\6-31G(d,p)\Ca2H1O4P1\TIMN\04-May-2015\0\\# b3l
 yp/6-31G(d,p) pop=(ReadRadii,MK)\\Ca2HPO4_51\\0,1\O,0,2.95744,-0.81105
 1,0.909541\H,0,3.77886,-0.327707,1.06407\O,0,3.06956,-1.08811,-0.58309
 8\O,0,0.483733,2.09805,-0.27698\P,0,-0.991644,2.00577,0.115205\Ca,0,-2
 .57572,-1.52865,-0.001959\O,0,-1.3122,0.479567,0.276481\Ca,0,1.0511,-0
 .230684,-0.268027\\Version=EM64T-G03RevE.01\State=1-A\HF=-1998.0215822
 \RMSD=8.633e-05\Thermal=0.\Dipole=-0.9858174,1.176288,0.4043386\PG=C01
  [X(Ca2H1O4P1)]\\@


 EDUCATION DOESN'T COST 
           ... IT PAYS!

 -- POSTMARK, UNIV. OF MISSISSIPPI, DEC 78
 Job cpu time:  0 days  0 hours  0 minutes 21.0 seconds.
 File lengths (MBytes):  RWF=     21 Int=      0 D2E=      0 Chk=     10 Scr=      1
 Normal termination of Gaussian 03 at Mon May  4 20:08:40 2015.
