 Entering Gaussian System, Link 0=/home/timn/tmp/g03.e01/g03
 Input=Ca2HPO4_3.xyz.gjf
 Output=Ca2HPO4_3.xyz.out
 Initial command:
 /home/timn/tmp/g03.e01/l1.exe /home/timn/tmp/g03.e01/Gau-10227.inp -scrdir=/home/timn/tmp/g03.e01/
 Default is to use a total of   2 processors:
                                2 via shared-memory
                                1 via Linda
 Entering Link 1 = /home/timn/tmp/g03.e01/l1.exe PID=     10228.
  
 Copyright (c) 1988,1990,1992,1993,1995,1998,2003,2004,2007, Gaussian, Inc.
                  All Rights Reserved.
  
 This is the Gaussian(R) 03 program.  It is based on the
 the Gaussian(R) 98 system (copyright 1998, Gaussian, Inc.),
 the Gaussian(R) 94 system (copyright 1995, Gaussian, Inc.),
 the Gaussian 92(TM) system (copyright 1992, Gaussian, Inc.),
 the Gaussian 90(TM) system (copyright 1990, Gaussian, Inc.),
 the Gaussian 88(TM) system (copyright 1988, Gaussian, Inc.),
 the Gaussian 86(TM) system (copyright 1986, Carnegie Mellon
 University), and the Gaussian 82(TM) system (copyright 1983,
 Carnegie Mellon University). Gaussian is a federally registered
 trademark of Gaussian, Inc.
  
 This software contains proprietary and confidential information,
 including trade secrets, belonging to Gaussian, Inc.
  
 This software is provided under written license and may be
 used, copied, transmitted, or stored only in accord with that
 written license.
  
 The following legend is applicable only to US Government
 contracts under FAR:
  
                    RESTRICTED RIGHTS LEGEND
  
 Use, reproduction and disclosure by the US Government is
 subject to restrictions as set forth in subparagraphs (a)
 and (c) of the Commercial Computer Software - Restricted
 Rights clause in FAR 52.227-19.
  
 Gaussian, Inc.
 340 Quinnipiac St., Bldg. 40, Wallingford CT 06492
  
  
 ---------------------------------------------------------------
 Warning -- This program may not be used in any manner that
 competes with the business of Gaussian, Inc. or will provide
 assistance to any competitor of Gaussian, Inc.  The licensee
 of this program is prohibited from giving any competitor of
 Gaussian, Inc. access to this program.  By using this program,
 the user acknowledges that Gaussian, Inc. is engaged in the
 business of creating and licensing software in the field of
 computational chemistry and represents and warrants to the
 licensee that it is not a competitor of Gaussian, Inc. and that
 it will not use this program in any manner prohibited above.
 ---------------------------------------------------------------
  

 Cite this work as:
 Gaussian 03, Revision E.01,
 M. J. Frisch, G. W. Trucks, H. B. Schlegel, G. E. Scuseria, 
 M. A. Robb, J. R. Cheeseman, J. A. Montgomery, Jr., T. Vreven, 
 K. N. Kudin, J. C. Burant, J. M. Millam, S. S. Iyengar, J. Tomasi, 
 V. Barone, B. Mennucci, M. Cossi, G. Scalmani, N. Rega, 
 G. A. Petersson, H. Nakatsuji, M. Hada, M. Ehara, K. Toyota, 
 R. Fukuda, J. Hasegawa, M. Ishida, T. Nakajima, Y. Honda, O. Kitao, 
 H. Nakai, M. Klene, X. Li, J. E. Knox, H. P. Hratchian, J. B. Cross, 
 V. Bakken, C. Adamo, J. Jaramillo, R. Gomperts, R. E. Stratmann, 
 O. Yazyev, A. J. Austin, R. Cammi, C. Pomelli, J. W. Ochterski, 
 P. Y. Ayala, K. Morokuma, G. A. Voth, P. Salvador, J. J. Dannenberg, 
 V. G. Zakrzewski, S. Dapprich, A. D. Daniels, M. C. Strain, 
 O. Farkas, D. K. Malick, A. D. Rabuck, K. Raghavachari, 
 J. B. Foresman, J. V. Ortiz, Q. Cui, A. G. Baboul, S. Clifford, 
 J. Cioslowski, B. B. Stefanov, G. Liu, A. Liashenko, P. Piskorz, 
 I. Komaromi, R. L. Martin, D. J. Fox, T. Keith, M. A. Al-Laham, 
 C. Y. Peng, A. Nanayakkara, M. Challacombe, P. M. W. Gill, 
 B. Johnson, W. Chen, M. W. Wong, C. Gonzalez, and J. A. Pople, 
 Gaussian, Inc., Wallingford CT, 2004.
 
 ******************************************
 Gaussian 03:  EM64T-G03RevE.01 11-Sep-2007
                 4-May-2015 
 ******************************************
 %nproc=2
 Will use up to    2 processors via shared memory.
 Default route:  MP2=Direct MaxDisk=2000MB
 -------------------------------------
 # b3lyp/6-31G(d,p) pop=(ReadRadii,MK)
 -------------------------------------
 1/38=1/1;
 2/17=6,18=5,40=1/2;
 3/5=1,6=6,7=101,11=2,16=1,25=1,30=1,74=-5/1,2,3;
 4//1;
 5/5=2,32=1,38=5/2;
 6/7=2,8=2,9=2,10=2,15=8,20=101,28=1/1,2;
 99/5=1,9=1/99;
 ---------
 Ca2HPO4_3
 ---------
 Symbolic Z-matrix:
 Charge =  0 Multiplicity = 1
 O                     1.30811   0.76638  -0.87825 
 O                    -1.27965   0.80949  -0.87988 
 P                     0.02011   1.1713   -0.03356 
 O                     0.04161   2.49365   0.65619 
 O                    -0.00257  -0.13784   1.07 
 Ca                   -1.71333  -1.13024   0.02969 
 Ca                    1.67351  -1.18819   0.02972 
 H                    -0.0452   -2.65424  -0.42921 
 
                          Input orientation:                          
 ---------------------------------------------------------------------
 Center     Atomic     Atomic              Coordinates (Angstroms)
 Number     Number      Type              X           Y           Z
 ---------------------------------------------------------------------
    1          8             0        1.308110    0.766382   -0.878251
    2          8             0       -1.279650    0.809491   -0.879878
    3         15             0        0.020113    1.171300   -0.033563
    4          8             0        0.041614    2.493650    0.656187
    5          8             0       -0.002569   -0.137838    1.070000
    6         20             0       -1.713330   -1.130240    0.029687
    7         20             0        1.673510   -1.188190    0.029722
    8          1             0       -0.045204   -2.654240   -0.429205
 ---------------------------------------------------------------------
                    Distance matrix (angstroms):
                    1          2          3          4          5
     1  O    0.000000
     2  O    2.588120   0.000000
     3  P    1.592606   1.592651   0.000000
     4  O    2.634761   2.634697   1.491585   0.000000
     5  O    2.516183   2.516027   1.712369   2.664193   0.000000
     6  Ca   3.681118   2.185851   2.881998   4.074912   2.234685
     7  Ca   2.185929   3.679573   2.881826   4.075719   2.234873
     8  H    3.705908   3.704645   3.846499   5.261785   2.929456
                    6          7          8
     6  Ca   0.000000
     7  Ca   3.387336   0.000000
     8  H    2.305602   2.305189   0.000000
 Stoichiometry    Ca2HO4P
 Framework group  C1[X(Ca2HO4P)]
 Deg. of freedom    18
 Full point group                 C1
 Largest Abelian subgroup         C1      NOp   1
 Largest concise Abelian subgroup C1      NOp   1
                         Standard orientation:                         
 ---------------------------------------------------------------------
 Center     Atomic     Atomic              Coordinates (Angstroms)
 Number     Number      Type              X           Y           Z
 ---------------------------------------------------------------------
    1          8             0        1.308258    0.766124   -0.878251
    2          8             0       -1.279493    0.809740   -0.879878
    3         15             0        0.020341    1.171294   -0.033563
    4          8             0        0.042100    2.493640    0.656187
    5          8             0       -0.002597   -0.137839    1.070000
    6         20             0       -1.713553   -1.129906    0.029687
    7         20             0        1.673276   -1.188519    0.029722
    8          1             0       -0.045725   -2.654233   -0.429205
 ---------------------------------------------------------------------
 Rotational constants (GHZ):      1.5463121      1.5174713      0.9033325
 Standard basis: 6-31G(d,p) (6D, 7F)
 There are   130 symmetry adapted basis functions of A   symmetry.
 Integral buffers will be    131072 words long.
 Raffenetti 2 integral format.
 Two-electron integral symmetry is turned on.
   130 basis functions,   323 primitive gaussians,   130 cartesian basis functions
    44 alpha electrons       44 beta electrons
       nuclear repulsion energy       667.0727107122 Hartrees.
 NAtoms=    8 NActive=    8 NUniq=    8 SFac= 7.50D-01 NAtFMM=   80 NAOKFM=F Big=F
 One-electron integrals computed using PRISM.
 NBasis=   130 RedAO= T  NBF=   130
 NBsUse=   130 1.00D-06 NBFU=   130
 Harris functional with IExCor=  402 diagonalized for initial guess.
 ExpMin= 2.60D-02 ExpMax= 3.53D+04 ExpMxC= 5.30D+03 IAcc=3 IRadAn=         5 AccDes= 0.00D+00
 HarFok:  IExCor= 402 AccDes= 0.00D+00 IRadAn=         5 IDoV=1
 ScaDFX=  1.000000  1.000000  1.000000  1.000000
 Initial guess orbital symmetries:
       Occupied  (A) (A) (A) (A) (A) (A) (A) (A) (A) (A) (A) (A)
                 (A) (A) (A) (A) (A) (A) (A) (A) (A) (A) (A) (A)
                 (A) (A) (A) (A) (A) (A) (A) (A) (A) (A) (A) (A)
                 (A) (A) (A) (A) (A) (A) (A) (A)
       Virtual   (A) (A) (A) (A) (A) (A) (A) (A) (A) (A) (A) (A)
                 (A) (A) (A) (A) (A) (A) (A) (A) (A) (A) (A) (A)
                 (A) (A) (A) (A) (A) (A) (A) (A) (A) (A) (A) (A)
                 (A) (A) (A) (A) (A) (A) (A) (A) (A) (A) (A) (A)
                 (A) (A) (A) (A) (A) (A) (A) (A) (A) (A) (A) (A)
                 (A) (A) (A) (A) (A) (A) (A) (A) (A) (A) (A) (A)
                 (A) (A) (A) (A) (A) (A) (A) (A) (A) (A) (A) (A)
                 (A) (A)
 The electronic state of the initial guess is 1-A.
 Requested convergence on RMS density matrix=1.00D-04 within 128 cycles.
 Requested convergence on MAX density matrix=1.00D-02.
 Requested convergence on             energy=1.00D-02.
 No special actions if energy rises.
 Keep R1 integrals in memory in canonical form, NReq=    38354110.
 SCF Done:  E(RB+HF-LYP) =  -1998.15964316     A.U. after    7 cycles
             Convg  =    0.3349D-04             -V/T =  2.0030
             S**2   =   0.0000

 **********************************************************************

            Population analysis using the SCF density.

 **********************************************************************

 Orbital symmetries:
       Occupied  (A) (A) (A) (A) (A) (A) (A) (A) (A) (A) (A) (A)
                 (A) (A) (A) (A) (A) (A) (A) (A) (A) (A) (A) (A)
                 (A) (A) (A) (A) (A) (A) (A) (A) (A) (A) (A) (A)
                 (A) (A) (A) (A) (A) (A) (A) (A)
       Virtual   (A) (A) (A) (A) (A) (A) (A) (A) (A) (A) (A) (A)
                 (A) (A) (A) (A) (A) (A) (A) (A) (A) (A) (A) (A)
                 (A) (A) (A) (A) (A) (A) (A) (A) (A) (A) (A) (A)
                 (A) (A) (A) (A) (A) (A) (A) (A) (A) (A) (A) (A)
                 (A) (A) (A) (A) (A) (A) (A) (A) (A) (A) (A) (A)
                 (A) (A) (A) (A) (A) (A) (A) (A) (A) (A) (A) (A)
                 (A) (A) (A) (A) (A) (A) (A) (A) (A) (A) (A) (A)
                 (A) (A)
 The electronic state is 1-A.
 Alpha  occ. eigenvalues -- -145.38103-145.38101 -77.12820 -19.06307 -19.04348
 Alpha  occ. eigenvalues --  -19.04348 -19.00659 -15.45173 -15.45170 -12.58380
 Alpha  occ. eigenvalues --  -12.58378 -12.58323 -12.58321 -12.58258 -12.58257
 Alpha  occ. eigenvalues --   -6.57203  -4.73692  -4.73541  -4.73386  -1.82643
 Alpha  occ. eigenvalues --   -1.82591  -1.10924  -1.10247  -1.10236  -1.09899
 Alpha  occ. eigenvalues --   -1.09876  -1.09658  -0.93572  -0.85236  -0.85135
 Alpha  occ. eigenvalues --   -0.84073  -0.44710  -0.36161  -0.35150  -0.32861
 Alpha  occ. eigenvalues --   -0.28741  -0.28491  -0.25547  -0.24703  -0.23466
 Alpha  occ. eigenvalues --   -0.23115  -0.21510  -0.18683  -0.17581
 Alpha virt. eigenvalues --   -0.09098  -0.08187  -0.01639  -0.00490  -0.00056
 Alpha virt. eigenvalues --    0.00404   0.03659   0.03889   0.05970   0.09052
 Alpha virt. eigenvalues --    0.11593   0.13351   0.13378   0.14052   0.16247
 Alpha virt. eigenvalues --    0.17171   0.18667   0.19131   0.21589   0.21709
 Alpha virt. eigenvalues --    0.23393   0.25273   0.27674   0.28657   0.30088
 Alpha virt. eigenvalues --    0.33514   0.35171   0.40390   0.42133   0.42364
 Alpha virt. eigenvalues --    0.43696   0.44504   0.50618   0.51529   0.58035
 Alpha virt. eigenvalues --    0.60529   0.78022   0.79789   0.92831   0.95680
 Alpha virt. eigenvalues --    0.97995   0.98808   1.05067   1.10995   1.12119
 Alpha virt. eigenvalues --    1.13446   1.15509   1.21507   1.23876   1.24322
 Alpha virt. eigenvalues --    1.27362   1.29146   1.31829   1.33230   1.46426
 Alpha virt. eigenvalues --    1.52784   1.54368   1.76344   1.85860   1.86488
 Alpha virt. eigenvalues --    1.87982   1.88444   1.90800   1.92162   1.92861
 Alpha virt. eigenvalues --    1.93145   1.96544   1.96678   2.01302   2.09505
 Alpha virt. eigenvalues --    2.14109   2.14872   2.21590   2.22957   2.26305
 Alpha virt. eigenvalues --    2.34595   2.38267   2.52226   2.73270   2.83109
 Alpha virt. eigenvalues --    2.93432   3.61807   3.83102   3.86674   3.96351
 Alpha virt. eigenvalues --    4.09920
          Condensed to atoms (all electrons):
              1          2          3          4          5          6
     1  O    8.392641  -0.034867   0.268208  -0.030957  -0.046326  -0.002870
     2  O   -0.034867   8.392742   0.268102  -0.030968  -0.046349   0.216027
     3  P    0.268208   0.268102  12.574262   0.562028   0.111953  -0.017708
     4  O   -0.030957  -0.030968   0.562028   8.096340  -0.029834   0.008070
     5  O   -0.046326  -0.046349   0.111953  -0.029834   8.577652   0.156898
     6  Ca  -0.002870   0.216027  -0.017708   0.008070   0.156898  18.528795
     7  Ca   0.215957  -0.002845  -0.017635   0.008024   0.156875  -0.110616
     8  H   -0.000774  -0.000779  -0.003770  -0.000006  -0.009415   0.152276
              7          8
     1  O    0.215957  -0.000774
     2  O   -0.002845  -0.000779
     3  P   -0.017635  -0.003770
     4  O    0.008024  -0.000006
     5  O    0.156875  -0.009415
     6  Ca  -0.110616   0.152276
     7  Ca  18.528788   0.152385
     8  H    0.152385   1.126617
 Mulliken atomic charges:
              1
     1  O   -0.761011
     2  O   -0.761062
     3  P    1.254559
     4  O   -0.582696
     5  O   -0.871453
     6  Ca   1.069129
     7  Ca   1.069066
     8  H   -0.416533
 Sum of Mulliken charges=   0.00000
 Atomic charges with hydrogens summed into heavy atoms:
              1
     1  O   -0.761011
     2  O   -0.761062
     3  P    1.254559
     4  O   -0.582696
     5  O   -0.871453
     6  Ca   1.069129
     7  Ca   0.652533
     8  H    0.000000
 Sum of Mulliken charges=   0.00000
 Electronic spatial extent (au):  <R**2>=  1233.3000
 Charge=     0.0000 electrons
 Dipole moment (field-independent basis, Debye):
    X=    -0.2469    Y=   -14.1454    Z=     1.6604  Tot=    14.2446
 Quadrupole moment (field-independent basis, Debye-Ang):
   XX=   -28.5285   YY=   -79.2847   ZZ=   -71.6955
   XY=    -0.8768   XZ=    -0.0625   YZ=    -3.6028
 Traceless Quadrupole moment (field-independent basis, Debye-Ang):
   XX=    31.3078   YY=   -19.4485   ZZ=   -11.8593
   XY=    -0.8768   XZ=    -0.0625   YZ=    -3.6028
 Octapole moment (field-independent basis, Debye-Ang**2):
  XXX=    -3.5825  YYY=   -17.1725  ZZZ=     2.8450  XYY=     2.0658
  XXY=   -68.1590  XXZ=    15.4013  XZZ=    -0.1505  YZZ=    -9.4160
  YYZ=     0.6985  XYZ=    -0.2494
 Hexadecapole moment (field-independent basis, Debye-Ang**3):
 XXXX=  -404.4319 YYYY=  -944.8587 ZZZZ=  -210.6733 XXXY=    -1.1231
 XXXZ=     0.2423 YYYX=    -8.2152 YYYZ=   -55.9135 ZZZX=    -0.0900
 ZZZY=    -4.5463 XXYY=  -155.9482 XXZZ=  -128.4497 YYZZ=  -164.7341
 XXYZ=     4.4693 YYXZ=    -1.1034 ZZXY=    -0.6245
 N-N= 6.670727107122D+02 E-N=-6.070538682784D+03  KE= 1.992165480558D+03
 Merz-Kollman atomic radii used.
 Read replacement radii for each type of atom:
 Rad(20) =   1.188000000000D+00
 Atom Element Radius
    1     8    1.40
    2     8    1.40
    3    15    1.80
    4     8    1.40
    5     8    1.40
    6    20    1.19
    7    20    1.19
    8     1    1.20

 **********************************************************************

            Electrostatic Properties Using The SCF Density

 **********************************************************************

       Atomic Center    1 is at   1.308258  0.766124 -0.878251
       Atomic Center    2 is at  -1.279493  0.809740 -0.879878
       Atomic Center    3 is at   0.020341  1.171294 -0.033563
       Atomic Center    4 is at   0.042100  2.493640  0.656187
       Atomic Center    5 is at  -0.002597 -0.137839  1.070000
       Atomic Center    6 is at  -1.713553 -1.129906  0.029687
       Atomic Center    7 is at   1.673276 -1.188519  0.029722
       Atomic Center    8 is at  -0.045725 -2.654233 -0.429205
     664 points will be used for fitting atomic charges
 Fitting point charges to eletrostatic potential
 Charges from ESP fit, RMS=   0.00495 RRMS=   0.05768:
 Charge=   0.00000 Dipole=    -0.2449   -14.5555     1.7710 Tot=    14.6649
              1
     1  O   -1.002238
     2  O   -1.001322
     3  P    1.576107
     4  O   -0.758004
     5  O   -1.193268
     6  Ca   1.584817
     7  Ca   1.586818
     8  H   -0.792910
 -----------------------------------------------------------------

              Electrostatic Properties (Atomic Units)

 -----------------------------------------------------------------
    Center     Electric         -------- Electric Field --------
               Potential          X             Y             Z
 -----------------------------------------------------------------
    1 Atom    -22.419393
    2 Atom    -22.419422
    3 Atom    -54.077260
    4 Atom    -22.459508
    5 Atom    -22.399792
    6 Atom    -80.161781
    7 Atom    -80.161798
    8 Atom     -1.177825
 -----------------------------------------------------------------
 1\1\GINC-N032\SP\RB3LYP\6-31G(d,p)\Ca2H1O4P1\TIMN\04-May-2015\0\\# b3l
 yp/6-31G(d,p) pop=(ReadRadii,MK)\\Ca2HPO4_3\\0,1\O,0,1.30811,0.766382,
 -0.878251\O,0,-1.27965,0.809491,-0.879878\P,0,0.020113,1.1713,-0.03356
 3\O,0,0.041614,2.49365,0.656187\O,0,-0.002569,-0.137838,1.07\Ca,0,-1.7
 1333,-1.13024,0.029687\Ca,0,1.67351,-1.18819,0.029722\H,0,-0.045204,-2
 .65424,-0.429205\\Version=EM64T-G03RevE.01\State=1-A\HF=-1998.1596432\
 RMSD=3.349e-05\Thermal=0.\Dipole=-0.0960389,-5.5652343,0.6532684\PG=C0
 1 [X(Ca2H1O4P1)]\\@


 A MAN SHOULD NEVER BE ASHAMED TO OWN HE HAS BEEN IN THE WRONG
 WHICH IS BUT SAYING IN OTHER WORDS,
 THAT HE IS WISER TODAY THAN HE WAS YESTERDAY.

                          -- JONATHAN SWIFT
 Job cpu time:  0 days  0 hours  0 minutes 17.5 seconds.
 File lengths (MBytes):  RWF=     21 Int=      0 D2E=      0 Chk=     10 Scr=      1
 Normal termination of Gaussian 03 at Mon May  4 20:08:33 2015.
