 Entering Gaussian System, Link 0=/home/timn/tmp/g03.e01/g03
 Input=Ca2HPO4_5.xyz.gjf
 Output=Ca2HPO4_5.xyz.out
 Initial command:
 /home/timn/tmp/g03.e01/l1.exe /home/timn/tmp/g03.e01/Gau-27921.inp -scrdir=/home/timn/tmp/g03.e01/
 Default is to use a total of   2 processors:
                                2 via shared-memory
                                1 via Linda
 Entering Link 1 = /home/timn/tmp/g03.e01/l1.exe PID=     27922.
  
 Copyright (c) 1988,1990,1992,1993,1995,1998,2003,2004,2007, Gaussian, Inc.
                  All Rights Reserved.
  
 This is the Gaussian(R) 03 program.  It is based on the
 the Gaussian(R) 98 system (copyright 1998, Gaussian, Inc.),
 the Gaussian(R) 94 system (copyright 1995, Gaussian, Inc.),
 the Gaussian 92(TM) system (copyright 1992, Gaussian, Inc.),
 the Gaussian 90(TM) system (copyright 1990, Gaussian, Inc.),
 the Gaussian 88(TM) system (copyright 1988, Gaussian, Inc.),
 the Gaussian 86(TM) system (copyright 1986, Carnegie Mellon
 University), and the Gaussian 82(TM) system (copyright 1983,
 Carnegie Mellon University). Gaussian is a federally registered
 trademark of Gaussian, Inc.
  
 This software contains proprietary and confidential information,
 including trade secrets, belonging to Gaussian, Inc.
  
 This software is provided under written license and may be
 used, copied, transmitted, or stored only in accord with that
 written license.
  
 The following legend is applicable only to US Government
 contracts under FAR:
  
                    RESTRICTED RIGHTS LEGEND
  
 Use, reproduction and disclosure by the US Government is
 subject to restrictions as set forth in subparagraphs (a)
 and (c) of the Commercial Computer Software - Restricted
 Rights clause in FAR 52.227-19.
  
 Gaussian, Inc.
 340 Quinnipiac St., Bldg. 40, Wallingford CT 06492
  
  
 ---------------------------------------------------------------
 Warning -- This program may not be used in any manner that
 competes with the business of Gaussian, Inc. or will provide
 assistance to any competitor of Gaussian, Inc.  The licensee
 of this program is prohibited from giving any competitor of
 Gaussian, Inc. access to this program.  By using this program,
 the user acknowledges that Gaussian, Inc. is engaged in the
 business of creating and licensing software in the field of
 computational chemistry and represents and warrants to the
 licensee that it is not a competitor of Gaussian, Inc. and that
 it will not use this program in any manner prohibited above.
 ---------------------------------------------------------------
  

 Cite this work as:
 Gaussian 03, Revision E.01,
 M. J. Frisch, G. W. Trucks, H. B. Schlegel, G. E. Scuseria, 
 M. A. Robb, J. R. Cheeseman, J. A. Montgomery, Jr., T. Vreven, 
 K. N. Kudin, J. C. Burant, J. M. Millam, S. S. Iyengar, J. Tomasi, 
 V. Barone, B. Mennucci, M. Cossi, G. Scalmani, N. Rega, 
 G. A. Petersson, H. Nakatsuji, M. Hada, M. Ehara, K. Toyota, 
 R. Fukuda, J. Hasegawa, M. Ishida, T. Nakajima, Y. Honda, O. Kitao, 
 H. Nakai, M. Klene, X. Li, J. E. Knox, H. P. Hratchian, J. B. Cross, 
 V. Bakken, C. Adamo, J. Jaramillo, R. Gomperts, R. E. Stratmann, 
 O. Yazyev, A. J. Austin, R. Cammi, C. Pomelli, J. W. Ochterski, 
 P. Y. Ayala, K. Morokuma, G. A. Voth, P. Salvador, J. J. Dannenberg, 
 V. G. Zakrzewski, S. Dapprich, A. D. Daniels, M. C. Strain, 
 O. Farkas, D. K. Malick, A. D. Rabuck, K. Raghavachari, 
 J. B. Foresman, J. V. Ortiz, Q. Cui, A. G. Baboul, S. Clifford, 
 J. Cioslowski, B. B. Stefanov, G. Liu, A. Liashenko, P. Piskorz, 
 I. Komaromi, R. L. Martin, D. J. Fox, T. Keith, M. A. Al-Laham, 
 C. Y. Peng, A. Nanayakkara, M. Challacombe, P. M. W. Gill, 
 B. Johnson, W. Chen, M. W. Wong, C. Gonzalez, and J. A. Pople, 
 Gaussian, Inc., Wallingford CT, 2004.
 
 ******************************************
 Gaussian 03:  EM64T-G03RevE.01 11-Sep-2007
                 4-May-2015 
 ******************************************
 %nproc=2
 Will use up to    2 processors via shared memory.
 Default route:  MP2=Direct MaxDisk=2000MB
 --------------------------------------------
 # b3lyp/6-31G(d,p) pop=(ReadRadii,MK) scf=qc
 --------------------------------------------
 1/38=1/1;
 2/17=6,18=5,40=1/2;
 3/5=1,6=6,7=101,11=2,16=1,25=1,30=1,74=-5/1,2,3;
 4//1;
 5/5=2,8=3,32=1,38=5/8;
 6/7=2,8=2,9=2,10=2,15=8,20=101,28=1/1,2;
 99/5=1,9=1/99;
 ---------
 Ca2HPO4_5
 ---------
 Symbolic Z-matrix:
 Charge =  0 Multiplicity = 1
 O                    -1.92954  -0.90346   0. 
 P                    -0.34281  -0.87568   0. 
 Ca                   -2.32334   1.37362   0. 
 H                    -3.7569    2.90278   0. 
 O                     0.        0.83928   0. 
 O                     1.37938   1.26742   0. 
 Ca                    2.6411   -0.57257   0. 
 O                     0.86815  -1.9268    0. 
 
                          Input orientation:                          
 ---------------------------------------------------------------------
 Center     Atomic     Atomic              Coordinates (Angstroms)
 Number     Number      Type              X           Y           Z
 ---------------------------------------------------------------------
    1          8             0       -1.929540   -0.903461    0.000000
    2         15             0       -0.342814   -0.875683    0.000000
    3         20             0       -2.323340    1.373620    0.000000
    4          1             0       -3.756900    2.902780    0.000000
    5          8             0        0.000000    0.839279    0.000000
    6          8             0        1.379380    1.267420    0.000000
    7         20             0        2.641100   -0.572566    0.000000
    8          8             0        0.868147   -1.926800    0.000000
 ---------------------------------------------------------------------
                    Distance matrix (angstroms):
                    1          2          3          4          5
     1  O    0.000000
     2  P    1.586969   0.000000
     3  Ca   2.310882   2.996973   0.000000
     4  H    4.222169   5.092422   2.096050   0.000000
     5  O    2.600051   1.748890   2.383994   4.286296   0.000000
     6  O    3.957484   2.749335   3.704243   5.390341   1.444297
     7  Ca   4.582602   2.999270   5.332289   7.280964   2.994781
     8  O    2.978972   1.603519   4.591118   6.686995   2.899116
                    6          7          8
     6  O    0.000000
     7  Ca   2.231028   0.000000
     8  O    3.234873   2.230989   0.000000
 Stoichiometry    Ca2HO4P
 Framework group  CS[SG(Ca2HO4P)]
 Deg. of freedom    13
 Full point group                 CS
 Largest Abelian subgroup         CS      NOp   2
 Largest concise Abelian subgroup C1      NOp   1
                         Standard orientation:                         
 ---------------------------------------------------------------------
 Center     Atomic     Atomic              Coordinates (Angstroms)
 Number     Number      Type              X           Y           Z
 ---------------------------------------------------------------------
    1          8             0       -1.929540   -0.903463    0.000000
    2         15             0       -0.342814   -0.875684    0.000000
    3         20             0       -2.323340    1.373618    0.000000
    4          1             0       -3.756900    2.902778    0.000000
    5          8             0        0.000000    0.839278    0.000000
    6          8             0        1.379380    1.267419    0.000000
    7         20             0        2.641100   -0.572567    0.000000
    8          8             0        0.868148   -1.926801    0.000000
 ---------------------------------------------------------------------
 Rotational constants (GHZ):      2.9408708      0.7514627      0.5985252
 Standard basis: 6-31G(d,p) (6D, 7F)
 There are    96 symmetry adapted basis functions of A'  symmetry.
 There are    34 symmetry adapted basis functions of A"  symmetry.
 Integral buffers will be    131072 words long.
 Raffenetti 2 integral format.
 Two-electron integral symmetry is turned on.
   130 basis functions,   323 primitive gaussians,   130 cartesian basis functions
    44 alpha electrons       44 beta electrons
       nuclear repulsion energy       610.7452890051 Hartrees.
 NAtoms=    8 NActive=    8 NUniq=    8 SFac= 7.50D-01 NAtFMM=   80 NAOKFM=F Big=F
 One-electron integrals computed using PRISM.
 NBasis=   130 RedAO= T  NBF=    96    34
 NBsUse=   130 1.00D-06 NBFU=    96    34
 Harris functional with IExCor=  402 diagonalized for initial guess.
 ExpMin= 2.60D-02 ExpMax= 3.53D+04 ExpMxC= 5.30D+03 IAcc=3 IRadAn=         5 AccDes= 0.00D+00
 HarFok:  IExCor= 402 AccDes= 0.00D+00 IRadAn=         5 IDoV=1
 ScaDFX=  1.000000  1.000000  1.000000  1.000000
 Initial guess orbital symmetries:
       Occupied  (A') (A') (A') (A') (A') (A') (A') (A') (A') (A')
                 (A') (A") (A') (A') (A") (A') (A') (A') (A") (A')
                 (A') (A') (A') (A') (A') (A") (A") (A') (A') (A')
                 (A') (A') (A') (A') (A') (A") (A') (A") (A') (A")
                 (A') (A") (A') (A')
       Virtual   (A") (A') (A') (A') (A') (A") (A") (A') (A') (A')
                 (A') (A') (A') (A') (A") (A') (A") (A') (A") (A')
                 (A") (A") (A') (A") (A') (A') (A') (A') (A') (A")
                 (A') (A') (A') (A') (A') (A') (A") (A") (A') (A')
                 (A') (A") (A') (A") (A') (A') (A") (A') (A') (A")
                 (A') (A') (A') (A') (A') (A') (A') (A") (A') (A')
                 (A") (A") (A") (A') (A') (A") (A') (A") (A') (A')
                 (A') (A") (A") (A') (A') (A') (A") (A') (A') (A')
                 (A') (A') (A') (A') (A') (A')
 The electronic state of the initial guess is 1-A'.
 Keep R1 integrals in memory in canonical form, NReq=    37576031.
 Gradient too large for Newton-Raphson -- use scaled steepest descent instead.
 Gradient too large for Newton-Raphson -- use scaled steepest descent instead.
 Gradient too large for Newton-Raphson -- use scaled steepest descent instead.
 Gradient too large for Newton-Raphson -- use scaled steepest descent instead.
 Gradient too large for Newton-Raphson -- use scaled steepest descent instead.
 Gradient too large for Newton-Raphson -- use scaled steepest descent instead.
 Gradient too large for Newton-Raphson -- use scaled steepest descent instead.
 Gradient too large for Newton-Raphson -- use scaled steepest descent instead.
 Gradient too large for Newton-Raphson -- use scaled steepest descent instead.
 Gradient too large for Newton-Raphson -- use scaled steepest descent instead.
 Gradient too large for Newton-Raphson -- use scaled steepest descent instead.
 Gradient too large for Newton-Raphson -- use scaled steepest descent instead.
 Gradient too large for Newton-Raphson -- use scaled steepest descent instead.
 Gradient too large for Newton-Raphson -- use scaled steepest descent instead.
 Gradient too large for Newton-Raphson -- use scaled steepest descent instead.
 Gradient too large for Newton-Raphson -- use scaled steepest descent instead.
 Gradient too large for Newton-Raphson -- use scaled steepest descent instead.
 Gradient too large for Newton-Raphson -- use scaled steepest descent instead.
 Gradient too large for Newton-Raphson -- use scaled steepest descent instead.
 Gradient too large for Newton-Raphson -- use scaled steepest descent instead.
 Gradient too large for Newton-Raphson -- use scaled steepest descent instead.
 LinEq1:  Iter=  0 NonCon=   1 RMS=7.13D-04 Max=4.08D-02
 AX will form   1 AO Fock derivatives at one time.
 LinEq1:  Iter=  1 NonCon=   1 RMS=6.83D-04 Max=2.41D-02
 LinEq1:  Iter=  2 NonCon=   1 RMS=5.11D-04 Max=1.47D-02
 LinEq1:  Iter=  3 NonCon=   1 RMS=5.57D-04 Max=1.63D-02
 LinEq1:  Iter=  4 NonCon=   1 RMS=2.59D-04 Max=5.91D-03
 LinEq1:  Iter=  5 NonCon=   1 RMS=2.41D-04 Max=4.45D-03
 LinEq1:  Iter=  6 NonCon=   1 RMS=1.31D-04 Max=2.10D-03
 LinEq1:  Iter=  7 NonCon=   1 RMS=1.42D-04 Max=2.94D-03
 LinEq1:  Iter=  8 NonCon=   1 RMS=3.87D-05 Max=5.76D-04
 LinEq1:  Iter=  9 NonCon=   1 RMS=2.33D-05 Max=4.10D-04
 LinEq1:  Iter= 10 NonCon=   1 RMS=1.12D-05 Max=2.07D-04
 LinEq1:  Iter= 11 NonCon=   1 RMS=3.11D-06 Max=7.04D-05
 LinEq1:  Iter= 12 NonCon=   1 RMS=6.49D-07 Max=1.18D-05
 LinEq1:  Iter= 13 NonCon=   1 RMS=1.58D-07 Max=2.19D-06
 LinEq1:  Iter= 14 NonCon=   1 RMS=3.56D-08 Max=4.99D-07
 LinEq1:  Iter= 15 NonCon=   1 RMS=7.47D-09 Max=1.27D-07
 LinEq1:  Iter= 16 NonCon=   0 RMS=1.38D-09 Max=2.68D-08
 Linear equations converged to 8.699D-09 8.699D-08 after  16 iterations.
 LinEq1:  Iter=  0 NonCon=   1 RMS=3.37D-05 Max=1.90D-03
 LinEq1:  Iter=  1 NonCon=   1 RMS=2.72D-05 Max=6.34D-04
 LinEq1:  Iter=  2 NonCon=   1 RMS=2.23D-05 Max=5.01D-04
 LinEq1:  Iter=  3 NonCon=   1 RMS=1.49D-05 Max=5.01D-04
 LinEq1:  Iter=  4 NonCon=   1 RMS=8.67D-06 Max=2.23D-04
 LinEq1:  Iter=  5 NonCon=   1 RMS=4.27D-06 Max=7.87D-05
 LinEq1:  Iter=  6 NonCon=   1 RMS=3.01D-06 Max=8.91D-05
 LinEq1:  Iter=  7 NonCon=   1 RMS=3.02D-06 Max=8.20D-05
 LinEq1:  Iter=  8 NonCon=   1 RMS=7.48D-07 Max=1.38D-05
 LinEq1:  Iter=  9 NonCon=   1 RMS=6.56D-07 Max=1.61D-05
 LinEq1:  Iter= 10 NonCon=   1 RMS=3.07D-07 Max=5.29D-06
 LinEq1:  Iter= 11 NonCon=   1 RMS=6.00D-08 Max=9.18D-07
 LinEq1:  Iter= 12 NonCon=   1 RMS=1.43D-08 Max=2.49D-07
 LinEq1:  Iter= 13 NonCon=   1 RMS=4.43D-09 Max=9.48D-08
 LinEq1:  Iter= 14 NonCon=   0 RMS=9.58D-10 Max=1.37D-08
 Linear equations converged to 4.569D-09 4.569D-08 after  14 iterations.
 LinEq1:  Iter=  0 NonCon=   1 RMS=1.19D-08 Max=2.46D-07
 LinEq1:  Iter=  1 NonCon=   1 RMS=6.16D-09 Max=2.89D-07
 LinEq1:  Iter=  2 NonCon=   1 RMS=5.05D-09 Max=1.46D-07
 LinEq1:  Iter=  3 NonCon=   1 RMS=8.95D-09 Max=3.51D-07
 LinEq1:  Iter=  4 NonCon=   1 RMS=5.57D-09 Max=1.32D-07
 LinEq1:  Iter=  5 NonCon=   1 RMS=4.39D-09 Max=8.29D-08
 LinEq1:  Iter=  6 NonCon=   1 RMS=1.60D-09 Max=5.18D-08
 LinEq1:  Iter=  7 NonCon=   1 RMS=7.92D-10 Max=2.24D-08
 LinEq1:  Iter=  8 NonCon=   1 RMS=7.17D-10 Max=1.42D-08
 LinEq1:  Iter=  9 NonCon=   1 RMS=3.28D-10 Max=1.10D-08
 LinEq1:  Iter= 10 NonCon=   1 RMS=3.59D-10 Max=7.46D-09
 LinEq1:  Iter= 11 NonCon=   0 RMS=1.06D-10 Max=2.84D-09
 Linear equations converged to 3.224D-10 3.224D-09 after  11 iterations.
 LinEq1:  Iter=  0 NonCon=   1 RMS=1.38D-09 Max=6.90D-08
 LinEq1:  Iter=  1 NonCon=   1 RMS=2.86D-09 Max=9.04D-08
 LinEq1:  Iter=  2 NonCon=   1 RMS=1.83D-09 Max=4.58D-08
 LinEq1:  Iter=  3 NonCon=   1 RMS=1.01D-09 Max=4.38D-08
 LinEq1:  Iter=  4 NonCon=   1 RMS=7.31D-10 Max=2.13D-08
 LinEq1:  Iter=  5 NonCon=   1 RMS=6.01D-10 Max=1.94D-08
 LinEq1:  Iter=  6 NonCon=   1 RMS=2.17D-10 Max=3.73D-09
 LinEq1:  Iter=  7 NonCon=   1 RMS=2.14D-10 Max=4.00D-09
 LinEq1:  Iter=  8 NonCon=   1 RMS=6.55D-11 Max=1.58D-09
 LinEq1:  Iter=  9 NonCon=   1 RMS=5.83D-11 Max=2.38D-09
 LinEq1:  Iter= 10 NonCon=   1 RMS=2.50D-11 Max=5.61D-10
 LinEq1:  Iter= 11 NonCon=   0 RMS=8.13D-12 Max=1.91D-10
 Linear equations converged to 2.981D-11 2.981D-10 after  11 iterations.
 LinEq1:  Iter=  0 NonCon=   1 RMS=2.51D-09 Max=1.24D-07
 LinEq1:  Iter=  1 NonCon=   1 RMS=5.33D-09 Max=1.73D-07
 LinEq1:  Iter=  2 NonCon=   1 RMS=3.35D-09 Max=8.39D-08
 LinEq1:  Iter=  3 NonCon=   1 RMS=1.90D-09 Max=8.16D-08
 LinEq1:  Iter=  4 NonCon=   1 RMS=1.37D-09 Max=4.03D-08
 LinEq1:  Iter=  5 NonCon=   1 RMS=1.10D-09 Max=3.54D-08
 LinEq1:  Iter=  6 NonCon=   1 RMS=4.10D-10 Max=6.79D-09
 LinEq1:  Iter=  7 NonCon=   1 RMS=4.17D-10 Max=6.59D-09
 LinEq1:  Iter=  8 NonCon=   1 RMS=2.28D-10 Max=6.52D-09
 LinEq1:  Iter=  9 NonCon=   1 RMS=2.76D-10 Max=6.37D-09
 LinEq1:  Iter= 10 NonCon=   1 RMS=4.55D-11 Max=9.25D-10
 LinEq1:  Iter= 11 NonCon=   0 RMS=1.37D-11 Max=3.05D-10
 Linear equations converged to 5.644D-11 5.644D-10 after  11 iterations.
 LinEq1:  Iter=  0 NonCon=   1 RMS=2.58D-09 Max=1.29D-07
 LinEq1:  Iter=  1 NonCon=   1 RMS=5.39D-09 Max=1.71D-07
 LinEq1:  Iter=  2 NonCon=   1 RMS=3.44D-09 Max=8.59D-08
 LinEq1:  Iter=  3 NonCon=   1 RMS=1.91D-09 Max=8.25D-08
 LinEq1:  Iter=  4 NonCon=   1 RMS=1.38D-09 Max=4.03D-08
 LinEq1:  Iter=  5 NonCon=   1 RMS=1.13D-09 Max=3.66D-08
 LinEq1:  Iter=  6 NonCon=   1 RMS=4.08D-10 Max=6.97D-09
 LinEq1:  Iter=  7 NonCon=   1 RMS=4.04D-10 Max=7.35D-09
 LinEq1:  Iter=  8 NonCon=   1 RMS=1.49D-10 Max=3.39D-09
 LinEq1:  Iter=  9 NonCon=   1 RMS=2.08D-10 Max=7.20D-09
 LinEq1:  Iter= 10 NonCon=   1 RMS=4.62D-11 Max=1.04D-09
 LinEq1:  Iter= 11 NonCon=   0 RMS=1.44D-11 Max=3.30D-10
 Linear equations converged to 5.644D-11 5.644D-10 after  11 iterations.
 Search did not lower the energy significantly.
 No lower point found -- using Newton-Raphson step.
 SCF Done:  E(RB+HF-LYP) =  -1997.91169192     a.u. after   28 cycles
            Convg  =    0.1180D-06                   197 Fock formations.
              S**2 =  0.0000                  -V/T =  2.0029

 **********************************************************************

            Population analysis using the SCF density.

 **********************************************************************

 Orbital symmetries:
       Occupied  (A') (A') (A') (A') (A') (A') (A') (A') (A') (A")
                 (A') (A') (A") (A') (A') (A') (A') (A") (A') (A')
                 (A') (A') (A') (A") (A") (A') (A') (A') (A') (A')
                 (A') (A') (A') (A') (A") (A') (A") (A') (A') (A")
                 (A') (A") (A') (A')
       Virtual   (A') (A") (A") (A') (A') (A") (A') (A') (A') (A')
                 (A') (A') (A') (A") (A') (A") (A') (A') (A') (A")
                 (A") (A") (A') (A") (A') (A') (A') (A') (A") (A')
                 (A') (A') (A') (A') (A') (A') (A") (A") (A') (A')
                 (A') (A") (A') (A") (A') (A') (A') (A") (A') (A")
                 (A') (A') (A') (A') (A') (A') (A') (A') (A") (A')
                 (A") (A") (A") (A') (A') (A") (A') (A") (A') (A')
                 (A') (A") (A") (A') (A') (A") (A') (A') (A') (A')
                 (A') (A') (A') (A') (A') (A')
 The electronic state is 1-A'.
 Alpha  occ. eigenvalues -- -145.39034-145.37867 -77.21885 -19.22812 -19.16098
 Alpha  occ. eigenvalues --  -19.15846 -19.14940 -15.46252 -15.45122 -12.59443
 Alpha  occ. eigenvalues --  -12.59376 -12.59324 -12.58356 -12.58293 -12.58108
 Alpha  occ. eigenvalues --   -6.66573  -4.82927  -4.82772  -4.82756  -1.83816
 Alpha  occ. eigenvalues --   -1.82709  -1.12143  -1.11481  -1.11460  -1.10643
 Alpha  occ. eigenvalues --   -1.10467  -1.10214  -1.07115  -0.98962  -0.95972
 Alpha  occ. eigenvalues --   -0.82868  -0.57205  -0.47934  -0.45695  -0.43173
 Alpha  occ. eigenvalues --   -0.41888  -0.36915  -0.35777  -0.33997  -0.33041
 Alpha  occ. eigenvalues --   -0.27014  -0.23998  -0.21709  -0.14817
 Alpha virt. eigenvalues --   -0.10008  -0.06579  -0.02990  -0.02676  -0.01623
 Alpha virt. eigenvalues --   -0.01401  -0.00317   0.00873   0.03495   0.05001
 Alpha virt. eigenvalues --    0.05657   0.07359   0.09131   0.10611   0.12180
 Alpha virt. eigenvalues --    0.12785   0.14657   0.16068   0.16194   0.18720
 Alpha virt. eigenvalues --    0.19892   0.20324   0.20399   0.20494   0.25212
 Alpha virt. eigenvalues --    0.28626   0.31938   0.32371   0.33699   0.35589
 Alpha virt. eigenvalues --    0.37305   0.38653   0.39239   0.44000   0.44258
 Alpha virt. eigenvalues --    0.50984   0.60864   0.64055   0.79008   0.83591
 Alpha virt. eigenvalues --    0.90250   0.92341   0.93526   0.98723   1.00761
 Alpha virt. eigenvalues --    1.01941   1.02707   1.04607   1.06409   1.10063
 Alpha virt. eigenvalues --    1.15994   1.19720   1.24818   1.26682   1.33929
 Alpha virt. eigenvalues --    1.40809   1.49811   1.52801   1.53736   1.67399
 Alpha virt. eigenvalues --    1.72511   1.79930   1.81940   1.85378   1.87701
 Alpha virt. eigenvalues --    1.88180   1.91509   1.94896   1.95542   2.00568
 Alpha virt. eigenvalues --    2.02838   2.03159   2.14113   2.15174   2.25045
 Alpha virt. eigenvalues --    2.36311   2.39272   2.45583   2.64271   2.67794
 Alpha virt. eigenvalues --    3.07321   3.52737   3.55049   3.76100   3.87409
 Alpha virt. eigenvalues --    3.92515
          Condensed to atoms (all electrons):
              1          2          3          4          5          6
     1  O    8.447302   0.098160   0.092076  -0.000258   0.000819   0.000346
     2  P    0.098160  13.912302   0.159654   0.000138  -0.190425  -0.028048
     3  Ca   0.092076   0.159654  18.615413   0.335184   0.041493  -0.012580
     4  H   -0.000258   0.000138   0.335184   0.953353  -0.000154   0.000000
     5  O    0.000819  -0.190425   0.041493  -0.000154   8.553346   0.036995
     6  O    0.000346  -0.028048  -0.012580   0.000000   0.036995   8.334696
     7  Ca  -0.020052   0.157688   0.049966   0.000710  -0.035902   0.138514
     8  O    0.008415  -0.010905  -0.034930   0.000000   0.010684   0.000126
              7          8
     1  O   -0.020052   0.008415
     2  P    0.157688  -0.010905
     3  Ca   0.049966  -0.034930
     4  H    0.000710   0.000000
     5  O   -0.035902   0.010684
     6  O    0.138514   0.000126
     7  Ca  18.897939   0.082754
     8  O    0.082754   8.524716
 Mulliken atomic charges:
              1
     1  O   -0.626808
     2  P    0.901437
     3  Ca   0.753724
     4  H   -0.288973
     5  O   -0.416856
     6  O   -0.470047
     7  Ca   0.728383
     8  O   -0.580860
 Sum of Mulliken charges=   0.00000
 Atomic charges with hydrogens summed into heavy atoms:
              1
     1  O   -0.626808
     2  P    0.901437
     3  Ca   0.464751
     4  H    0.000000
     5  O   -0.416856
     6  O   -0.470047
     7  Ca   0.728383
     8  O   -0.580860
 Sum of Mulliken charges=   0.00000
 Electronic spatial extent (au):  <R**2>=  1721.0039
 Charge=     0.0000 electrons
 Dipole moment (field-independent basis, Debye):
    X=     5.7677    Y=    -0.4302    Z=     0.0000  Tot=     5.7837
 Quadrupole moment (field-independent basis, Debye-Ang):
   XX=   -70.8473   YY=   -95.2850   ZZ=   -67.3644
   XY=     9.3397   XZ=     0.0000   YZ=     0.0000
 Traceless Quadrupole moment (field-independent basis, Debye-Ang):
   XX=     6.9849   YY=   -17.4528   ZZ=    10.4678
   XY=     9.3397   XZ=     0.0000   YZ=     0.0000
 Octapole moment (field-independent basis, Debye-Ang**2):
  XXX=   135.2480  YYY=   -32.8952  ZZZ=     0.0000  XYY=    46.7612
  XXY=   -63.0552  XXZ=     0.0000  XZZ=    -3.6559  YZZ=     2.9377
  YYZ=     0.0000  XYZ=     0.0000
 Hexadecapole moment (field-independent basis, Debye-Ang**3):
 XXXX= -2066.6825 YYYY=  -975.2709 ZZZZ=  -129.0048 XXXY=   593.6839
 XXXZ=     0.0000 YYYX=   499.8025 YYYZ=     0.0000 ZZZX=     0.0000
 ZZZY=     0.0000 XXYY=  -715.3582 XXZZ=  -308.5186 YYZZ=  -149.7559
 XXYZ=     0.0000 YYXZ=     0.0000 ZZXY=    89.8512
 N-N= 6.107452890051D+02 E-N=-5.952542068593D+03  KE= 1.992142304869D+03
 Symmetry A'   KE= 1.801159265989D+03
 Symmetry A"   KE= 1.909830388793D+02
 Merz-Kollman atomic radii used.
 Read replacement radii for each type of atom:
 Rad(20) =   1.188000000000D+00
 Atom Element Radius
    1     8    1.40
    2    15    1.80
    3    20    1.19
    4     1    1.20
    5     8    1.40
    6     8    1.40
    7    20    1.19
    8     8    1.40

 **********************************************************************

            Electrostatic Properties Using The SCF Density

 **********************************************************************

       Atomic Center    1 is at  -1.929540 -0.903463  0.000000
       Atomic Center    2 is at  -0.342814 -0.875684  0.000000
       Atomic Center    3 is at  -2.323340  1.373618  0.000000
       Atomic Center    4 is at  -3.756900  2.902778  0.000000
       Atomic Center    5 is at   0.000000  0.839278  0.000000
       Atomic Center    6 is at   1.379380  1.267419  0.000000
       Atomic Center    7 is at   2.641100 -0.572567  0.000000
       Atomic Center    8 is at   0.868148 -1.926801  0.000000
     760 points will be used for fitting atomic charges
 Fitting point charges to eletrostatic potential
 Charges from ESP fit, RMS=   0.01363 RRMS=   0.24198:
 Charge=   0.00000 Dipole=     8.5098    -1.2856     0.0000 Tot=     8.6064
              1
     1  O   -0.734629
     2  P    0.796532
     3  Ca   1.517653
     4  H   -0.764229
     5  O   -0.510226
     6  O   -0.514122
     7  Ca   1.020819
     8  O   -0.811798
 -----------------------------------------------------------------

              Electrostatic Properties (Atomic Units)

 -----------------------------------------------------------------
    Center     Electric         -------- Electric Field --------
               Potential          X             Y             Z
 -----------------------------------------------------------------
    1 Atom    -22.312411
    2 Atom    -53.996706
    3 Atom    -80.164756
    4 Atom     -1.212477
    5 Atom    -22.241144
    6 Atom    -22.321082
    7 Atom    -80.154016
    8 Atom    -22.314486
 -----------------------------------------------------------------
 1\1\GINC-N034\SP\RB3LYP\6-31G(d,p)\Ca2H1O4P1\TIMN\04-May-2015\0\\# b3l
 yp/6-31G(d,p) pop=(ReadRadii,MK) scf=qc\\Ca2HPO4_5\\0,1\O,0,-1.92954,-
 0.903461,0.\P,0,-0.342814,-0.875683,0.\Ca,0,-2.32334,1.37362,0.\H,0,-3
 .7569,2.90278,0.\O,0,0.,0.839279,0.\O,0,1.37938,1.26742,0.\Ca,0,2.6411
 ,-0.572566,0.\O,0,0.868147,-1.9268,0.\\Version=EM64T-G03RevE.01\State=
 1-A'\HF=-1997.9116919\RMSD=0.000e+00\Thermal=0.\Dipole=2.2691772,-0.16
 92407,0.\PG=CS [SG(Ca2H1O4P1)]\\@


 BE CAREFUL NOT TO BECOME TOO GOOD OF A SONGBIRD OR 
 THEY'LL THROW YOU INTO A CAGE.

                                    -- SNOOPY TO WOODSTOCK
 Job cpu time:  0 days  0 hours  4 minutes 21.0 seconds.
 File lengths (MBytes):  RWF=     17 Int=      0 D2E=      0 Chk=     10 Scr=      1
 Normal termination of Gaussian 03 at Mon May  4 21:04:30 2015.
