 Entering Gaussian System, Link 0=/home/timn/tmp/g03.e01/g03
 Input=Ca2HPO4_33.xyz.gjf
 Output=Ca2HPO4_33.xyz.out
 Initial command:
 /home/timn/tmp/g03.e01/l1.exe /home/timn/tmp/g03.e01/Gau-21627.inp -scrdir=/home/timn/tmp/g03.e01/
 Default is to use a total of   2 processors:
                                2 via shared-memory
                                1 via Linda
 Entering Link 1 = /home/timn/tmp/g03.e01/l1.exe PID=     21629.
  
 Copyright (c) 1988,1990,1992,1993,1995,1998,2003,2004,2007, Gaussian, Inc.
                  All Rights Reserved.
  
 This is the Gaussian(R) 03 program.  It is based on the
 the Gaussian(R) 98 system (copyright 1998, Gaussian, Inc.),
 the Gaussian(R) 94 system (copyright 1995, Gaussian, Inc.),
 the Gaussian 92(TM) system (copyright 1992, Gaussian, Inc.),
 the Gaussian 90(TM) system (copyright 1990, Gaussian, Inc.),
 the Gaussian 88(TM) system (copyright 1988, Gaussian, Inc.),
 the Gaussian 86(TM) system (copyright 1986, Carnegie Mellon
 University), and the Gaussian 82(TM) system (copyright 1983,
 Carnegie Mellon University). Gaussian is a federally registered
 trademark of Gaussian, Inc.
  
 This software contains proprietary and confidential information,
 including trade secrets, belonging to Gaussian, Inc.
  
 This software is provided under written license and may be
 used, copied, transmitted, or stored only in accord with that
 written license.
  
 The following legend is applicable only to US Government
 contracts under FAR:
  
                    RESTRICTED RIGHTS LEGEND
  
 Use, reproduction and disclosure by the US Government is
 subject to restrictions as set forth in subparagraphs (a)
 and (c) of the Commercial Computer Software - Restricted
 Rights clause in FAR 52.227-19.
  
 Gaussian, Inc.
 340 Quinnipiac St., Bldg. 40, Wallingford CT 06492
  
  
 ---------------------------------------------------------------
 Warning -- This program may not be used in any manner that
 competes with the business of Gaussian, Inc. or will provide
 assistance to any competitor of Gaussian, Inc.  The licensee
 of this program is prohibited from giving any competitor of
 Gaussian, Inc. access to this program.  By using this program,
 the user acknowledges that Gaussian, Inc. is engaged in the
 business of creating and licensing software in the field of
 computational chemistry and represents and warrants to the
 licensee that it is not a competitor of Gaussian, Inc. and that
 it will not use this program in any manner prohibited above.
 ---------------------------------------------------------------
  

 Cite this work as:
 Gaussian 03, Revision E.01,
 M. J. Frisch, G. W. Trucks, H. B. Schlegel, G. E. Scuseria, 
 M. A. Robb, J. R. Cheeseman, J. A. Montgomery, Jr., T. Vreven, 
 K. N. Kudin, J. C. Burant, J. M. Millam, S. S. Iyengar, J. Tomasi, 
 V. Barone, B. Mennucci, M. Cossi, G. Scalmani, N. Rega, 
 G. A. Petersson, H. Nakatsuji, M. Hada, M. Ehara, K. Toyota, 
 R. Fukuda, J. Hasegawa, M. Ishida, T. Nakajima, Y. Honda, O. Kitao, 
 H. Nakai, M. Klene, X. Li, J. E. Knox, H. P. Hratchian, J. B. Cross, 
 V. Bakken, C. Adamo, J. Jaramillo, R. Gomperts, R. E. Stratmann, 
 O. Yazyev, A. J. Austin, R. Cammi, C. Pomelli, J. W. Ochterski, 
 P. Y. Ayala, K. Morokuma, G. A. Voth, P. Salvador, J. J. Dannenberg, 
 V. G. Zakrzewski, S. Dapprich, A. D. Daniels, M. C. Strain, 
 O. Farkas, D. K. Malick, A. D. Rabuck, K. Raghavachari, 
 J. B. Foresman, J. V. Ortiz, Q. Cui, A. G. Baboul, S. Clifford, 
 J. Cioslowski, B. B. Stefanov, G. Liu, A. Liashenko, P. Piskorz, 
 I. Komaromi, R. L. Martin, D. J. Fox, T. Keith, M. A. Al-Laham, 
 C. Y. Peng, A. Nanayakkara, M. Challacombe, P. M. W. Gill, 
 B. Johnson, W. Chen, M. W. Wong, C. Gonzalez, and J. A. Pople, 
 Gaussian, Inc., Wallingford CT, 2004.
 
 ******************************************
 Gaussian 03:  EM64T-G03RevE.01 11-Sep-2007
                 4-May-2015 
 ******************************************
 %nproc=2
 Will use up to    2 processors via shared memory.
 Default route:  MP2=Direct MaxDisk=2000MB
 -------------------------------------
 # b3lyp/6-31G(d,p) pop=(ReadRadii,MK)
 -------------------------------------
 1/38=1/1;
 2/17=6,18=5,40=1/2;
 3/5=1,6=6,7=101,11=2,16=1,25=1,30=1,74=-5/1,2,3;
 4//1;
 5/5=2,32=1,38=5/2;
 6/7=2,8=2,9=2,10=2,15=8,20=101,28=1/1,2;
 99/5=1,9=1/99;
 ----------
 Ca2HPO4_33
 ----------
 Symbolic Z-matrix:
 Charge =  0 Multiplicity = 1
 O                     0.45324  -1.46058   1.28076 
 O                     0.45324  -1.46058  -1.28076 
 P                     0.90006  -2.18623   0. 
 H                    -2.11119   0.21717   0. 
 Ca                   -0.64733   0.53465  -1.67557 
 O                     0.45324   2.15998  -0.73326 
 O                     0.45324   2.15998   0.73326 
 Ca                   -0.64733   0.53465   1.67557 
 
                          Input orientation:                          
 ---------------------------------------------------------------------
 Center     Atomic     Atomic              Coordinates (Angstroms)
 Number     Number      Type              X           Y           Z
 ---------------------------------------------------------------------
    1          8             0        0.453242   -1.460580    1.280760
    2          8             0        0.453242   -1.460580   -1.280760
    3         15             0        0.900055   -2.186230    0.000000
    4          1             0       -2.111190    0.217170    0.000000
    5         20             0       -0.647334    0.534646   -1.675570
    6          8             0        0.453242    2.159980   -0.733262
    7          8             0        0.453242    2.159980    0.733262
    8         20             0       -0.647334    0.534646    1.675570
 ---------------------------------------------------------------------
                    Distance matrix (angstroms):
                    1          2          3          4          5
     1  O    0.000000
     2  O    2.561520   0.000000
     3  P    1.538361   1.538361   0.000000
     4  H    3.321371   3.321371   3.852782   0.000000
     5  Ca   3.732570   2.312589   3.550368   2.247488   0.000000
     6  O    4.143035   3.661722   4.430221   3.299772   2.177366
     7  O    3.661722   4.143035   4.430221   3.299772   3.107322
     8  Ca   2.312589   3.732570   3.550368   2.247488   3.351140
                    6          7          8
     6  O    0.000000
     7  O    1.466524   0.000000
     8  Ca   3.107322   2.177366   0.000000
 Stoichiometry    Ca2HO4P
 Framework group  CS[SG(HP),X(Ca2O4)]
 Deg. of freedom    10
 Full point group                 CS
 Largest Abelian subgroup         CS      NOp   2
 Largest concise Abelian subgroup CS      NOp   2
                         Standard orientation:                         
 ---------------------------------------------------------------------
 Center     Atomic     Atomic              Coordinates (Angstroms)
 Number     Number      Type              X           Y           Z
 ---------------------------------------------------------------------
    1          8             0        0.453242   -1.460580    1.280760
    2          8             0        0.453242   -1.460580   -1.280760
    3         15             0        0.900055   -2.186230    0.000000
    4          1             0       -2.111190    0.217170    0.000000
    5         20             0       -0.647334    0.534646   -1.675570
    6          8             0        0.453242    2.159980   -0.733262
    7          8             0        0.453242    2.159980    0.733262
    8         20             0       -0.647334    0.534646    1.675570
 ---------------------------------------------------------------------
 Rotational constants (GHZ):      1.4380488      1.0878572      0.7206684
 Standard basis: 6-31G(d,p) (6D, 7F)
 There are    71 symmetry adapted basis functions of A'  symmetry.
 There are    59 symmetry adapted basis functions of A"  symmetry.
 Integral buffers will be    131072 words long.
 Raffenetti 2 integral format.
 Two-electron integral symmetry is turned on.
   130 basis functions,   323 primitive gaussians,   130 cartesian basis functions
    44 alpha electrons       44 beta electrons
       nuclear repulsion energy       602.4315829818 Hartrees.
 NAtoms=    8 NActive=    8 NUniq=    5 SFac= 1.92D+00 NAtFMM=   80 NAOKFM=F Big=F
 One-electron integrals computed using PRISM.
 NBasis=   130 RedAO= T  NBF=    71    59
 NBsUse=   130 1.00D-06 NBFU=    71    59
 Harris functional with IExCor=  402 diagonalized for initial guess.
 ExpMin= 2.60D-02 ExpMax= 3.53D+04 ExpMxC= 5.30D+03 IAcc=3 IRadAn=         5 AccDes= 0.00D+00
 HarFok:  IExCor= 402 AccDes= 0.00D+00 IRadAn=         5 IDoV=1
 ScaDFX=  1.000000  1.000000  1.000000  1.000000
 Initial guess orbital symmetries:
       Occupied  (A") (A') (A') (A") (A') (A') (A") (A") (A') (A")
                 (A') (A") (A') (A") (A') (A') (A") (A') (A') (A')
                 (A") (A') (A') (A") (A") (A') (A") (A') (A') (A")
                 (A") (A') (A") (A') (A') (A') (A') (A') (A") (A")
                 (A') (A") (A") (A')
       Virtual   (A') (A") (A') (A") (A') (A') (A") (A") (A') (A')
                 (A") (A") (A') (A') (A") (A') (A') (A') (A") (A")
                 (A') (A") (A') (A") (A") (A") (A') (A') (A') (A')
                 (A") (A') (A") (A') (A") (A") (A") (A') (A') (A')
                 (A') (A') (A") (A") (A') (A") (A') (A') (A") (A')
                 (A") (A') (A") (A') (A") (A") (A') (A") (A') (A')
                 (A') (A") (A') (A") (A') (A') (A") (A") (A") (A')
                 (A') (A") (A') (A') (A") (A') (A") (A") (A') (A")
                 (A") (A') (A') (A') (A") (A")
 The electronic state of the initial guess is 1-A'.
 Requested convergence on RMS density matrix=1.00D-04 within 128 cycles.
 Requested convergence on MAX density matrix=1.00D-02.
 Requested convergence on             energy=1.00D-02.
 No special actions if energy rises.
 Keep R1 integrals in memory in canonical form, NReq=    38354422.
 EnCoef did     2 forward-backward iterations
 EnCoef did     2 forward-backward iterations
 SCF Done:  E(RB+HF-LYP) =  -1998.00896356     A.U. after    9 cycles
             Convg  =    0.2110D-04             -V/T =  2.0030
             S**2   =   0.0000

 **********************************************************************

            Population analysis using the SCF density.

 **********************************************************************

 Orbital symmetries:
       Occupied  (A") (A') (A') (A") (A') (A') (A") (A") (A') (A")
                 (A') (A") (A') (A") (A') (A') (A') (A") (A') (A')
                 (A") (A') (A") (A') (A') (A") (A") (A') (A") (A')
                 (A") (A') (A") (A') (A') (A') (A") (A") (A') (A')
                 (A') (A') (A") (A")
       Virtual   (A") (A') (A') (A") (A') (A') (A") (A") (A') (A')
                 (A") (A') (A") (A") (A') (A') (A') (A") (A") (A')
                 (A") (A') (A') (A") (A") (A') (A') (A") (A') (A')
                 (A") (A') (A") (A') (A") (A") (A') (A") (A') (A')
                 (A') (A") (A') (A") (A') (A') (A") (A') (A") (A")
                 (A') (A') (A") (A") (A') (A") (A') (A") (A') (A')
                 (A') (A") (A") (A') (A') (A') (A") (A') (A") (A")
                 (A") (A') (A') (A') (A") (A') (A") (A") (A') (A")
                 (A") (A') (A') (A') (A") (A")
 The electronic state is 1-A'.
 Alpha  occ. eigenvalues -- -145.35751-145.35750 -77.15901 -19.13867 -19.13866
 Alpha  occ. eigenvalues --  -19.05843 -19.05836 -15.42873 -15.42871 -12.56091
 Alpha  occ. eigenvalues --  -12.56090 -12.56008 -12.56007 -12.55949 -12.55948
 Alpha  occ. eigenvalues --   -6.61602  -4.78039  -4.77806  -4.77387  -1.80387
 Alpha  occ. eigenvalues --   -1.80335  -1.08595  -1.08110  -1.07970  -1.07752
 Alpha  occ. eigenvalues --   -1.07702  -1.07475  -0.99965  -0.94655  -0.91295
 Alpha  occ. eigenvalues --   -0.67606  -0.53484  -0.42944  -0.39162  -0.38756
 Alpha  occ. eigenvalues --   -0.32205  -0.31502  -0.30167  -0.28261  -0.26820
 Alpha  occ. eigenvalues --   -0.26566  -0.24615  -0.13135  -0.12398
 Alpha virt. eigenvalues --   -0.07119  -0.06176  -0.05748   0.00805   0.00848
 Alpha virt. eigenvalues --    0.01228   0.01733   0.03641   0.05797   0.06825
 Alpha virt. eigenvalues --    0.08567   0.11609   0.11655   0.13816   0.14080
 Alpha virt. eigenvalues --    0.14973   0.15940   0.16245   0.17438   0.19364
 Alpha virt. eigenvalues --    0.21337   0.22256   0.25378   0.27823   0.28823
 Alpha virt. eigenvalues --    0.31374   0.33209   0.35644   0.37100   0.39952
 Alpha virt. eigenvalues --    0.42949   0.43678   0.45174   0.47121   0.48531
 Alpha virt. eigenvalues --    0.57088   0.66986   0.67738   0.71663   0.88805
 Alpha virt. eigenvalues --    0.99601   0.99995   1.00908   1.00994   1.02826
 Alpha virt. eigenvalues --    1.04359   1.05474   1.09514   1.13854   1.15290
 Alpha virt. eigenvalues --    1.19635   1.21902   1.28008   1.29469   1.30196
 Alpha virt. eigenvalues --    1.37419   1.39720   1.59270   1.65285   1.71408
 Alpha virt. eigenvalues --    1.79657   1.79732   1.82086   1.83168   1.86189
 Alpha virt. eigenvalues --    1.89460   1.90240   2.00068   2.00639   2.04596
 Alpha virt. eigenvalues --    2.07151   2.08994   2.14174   2.19303   2.25590
 Alpha virt. eigenvalues --    2.27697   2.46726   2.47336   2.65789   2.78891
 Alpha virt. eigenvalues --    3.16110   3.48299   3.59267   3.69440   3.77330
 Alpha virt. eigenvalues --    3.98911
          Condensed to atoms (all electrons):
              1          2          3          4          5          6
     1  O    8.316765  -0.031315   0.269532  -0.002195  -0.008931  -0.000038
     2  O   -0.031315   8.316765   0.269532  -0.002195   0.123217  -0.000396
     3  P    0.269532   0.269532  13.717394  -0.003087   0.003753  -0.000106
     4  H   -0.002195  -0.002195  -0.003087   1.116816   0.154519  -0.002125
     5  Ca  -0.008931   0.123217   0.003753   0.154519  18.548172   0.223176
     6  O   -0.000038  -0.000396  -0.000106  -0.002125   0.223176   8.291258
     7  O   -0.000396  -0.000038  -0.000106  -0.002125  -0.032379   0.043541
     8  Ca   0.123217  -0.008931   0.003753   0.154519  -0.038493  -0.032379
              7          8
     1  O   -0.000396   0.123217
     2  O   -0.000038  -0.008931
     3  P   -0.000106   0.003753
     4  H   -0.002125   0.154519
     5  Ca  -0.032379  -0.038493
     6  O    0.043541  -0.032379
     7  O    8.291258   0.223176
     8  Ca   0.223176  18.548172
 Mulliken atomic charges:
              1
     1  O   -0.666639
     2  O   -0.666639
     3  P    0.739334
     4  H   -0.414127
     5  Ca   1.026966
     6  O   -0.522930
     7  O   -0.522930
     8  Ca   1.026966
 Sum of Mulliken charges=   0.00000
 Atomic charges with hydrogens summed into heavy atoms:
              1
     1  O   -0.666639
     2  O   -0.666639
     3  P    0.739334
     4  H    0.000000
     5  Ca   0.612839
     6  O   -0.522930
     7  O   -0.522930
     8  Ca   1.026966
 Sum of Mulliken charges=   0.00000
 Electronic spatial extent (au):  <R**2>=  1500.6845
 Charge=     0.0000 electrons
 Dipole moment (field-independent basis, Debye):
    X=    -4.0279    Y=    -2.5175    Z=     0.0000  Tot=     4.7499
 Quadrupole moment (field-independent basis, Debye-Ang):
   XX=   -71.1991   YY=   -88.4893   ZZ=   -38.1308
   XY=    -6.1504   XZ=     0.0000   YZ=     0.0000
 Traceless Quadrupole moment (field-independent basis, Debye-Ang):
   XX=    -5.2594   YY=   -22.5496   ZZ=    27.8089
   XY=    -6.1504   XZ=     0.0000   YZ=     0.0000
 Octapole moment (field-independent basis, Debye-Ang**2):
  XXX=    26.2417  YYY=   -38.5538  ZZZ=     0.0000  XYY=   -15.0205
  XXY=     0.3657  XXZ=     0.0000  XZZ=   -24.9029  YZZ=    33.0983
  YYZ=     0.0000  XYZ=     0.0000
 Hexadecapole moment (field-independent basis, Debye-Ang**3):
 XXXX=  -366.6276 YYYY= -1098.5765 ZZZZ=  -540.8309 XXXY=    89.5429
 XXXZ=     0.0000 YYYX=    80.3395 YYYZ=     0.0000 ZZZX=     0.0000
 ZZZY=     0.0000 XXYY=  -221.8449 XXZZ=  -153.8826 YYZZ=  -293.0202
 XXYZ=     0.0000 YYXZ=     0.0000 ZZXY=    18.5489
 N-N= 6.024315829818D+02 E-N=-5.940023391304D+03  KE= 1.992116503205D+03
 Symmetry A'   KE= 1.135353782187D+03
 Symmetry A"   KE= 8.567627210179D+02
 Merz-Kollman atomic radii used.
 Read replacement radii for each type of atom:
 Rad(20) =   1.188000000000D+00
 Atom Element Radius
    1     8    1.40
    2     8    1.40
    3    15    1.80
    4     1    1.20
    5    20    1.19
    6     8    1.40
    7     8    1.40
    8    20    1.19

 **********************************************************************

            Electrostatic Properties Using The SCF Density

 **********************************************************************

       Atomic Center    1 is at   0.453242 -1.460580  1.280760
       Atomic Center    2 is at   0.453242 -1.460580 -1.280760
       Atomic Center    3 is at   0.900055 -2.186230  0.000000
       Atomic Center    4 is at  -2.111190  0.217170  0.000000
       Atomic Center    5 is at  -0.647334  0.534646 -1.675570
       Atomic Center    6 is at   0.453242  2.159980 -0.733262
       Atomic Center    7 is at   0.453242  2.159980  0.733262
       Atomic Center    8 is at  -0.647334  0.534646  1.675570
     791 points will be used for fitting atomic charges
 Fitting point charges to eletrostatic potential
 Charges from ESP fit, RMS=   0.00756 RRMS=   0.12934:
 Charge=   0.00000 Dipole=    -4.8993    -2.3520     0.0000 Tot=     5.4346
              1
     1  O   -0.537006
     2  O   -0.537006
     3  P    0.291592
     4  H   -0.765643
     5  Ca   1.414592
     6  O   -0.640560
     7  O   -0.640560
     8  Ca   1.414592
 -----------------------------------------------------------------

              Electrostatic Properties (Atomic Units)

 -----------------------------------------------------------------
    Center     Electric         -------- Electric Field --------
               Potential          X             Y             Z
 -----------------------------------------------------------------
    1 Atom    -22.325775
    2 Atom    -22.325775
    3 Atom    -54.058119
    4 Atom     -1.206488
    5 Atom    -80.185525
    6 Atom    -22.403033
    7 Atom    -22.403033
    8 Atom    -80.185525
 -----------------------------------------------------------------
 1\1\GINC-N036\SP\RB3LYP\6-31G(d,p)\Ca2H1O4P1\TIMN\04-May-2015\0\\# b3l
 yp/6-31G(d,p) pop=(ReadRadii,MK)\\Ca2HPO4_33\\0,1\O,0,0.453242,-1.4605
 8,1.28076\O,0,0.453242,-1.46058,-1.28076\P,0,0.900055,-2.18623,0.\H,0,
 -2.11119,0.21717,0.\Ca,0,-0.647334,0.534646,-1.67557\O,0,0.453242,2.15
 998,-0.733262\O,0,0.453242,2.15998,0.733262\Ca,0,-0.647334,0.534646,1.
 67557\\Version=EM64T-G03RevE.01\State=1-A'\HF=-1998.0089636\RMSD=2.110
 e-05\Thermal=0.\Dipole=-1.584706,-0.9904432,0.\PG=CS [SG(H1P1),X(Ca2O4
 )]\\@


 NO SCIENCE HAS EVER MADE MORE RAPID PROGRESS IN A
 SHORTER TIME THAN CHEMISTRY.
   -- MARTIN HEINRICH KLOPROTH, 1791
 (FIRST PROFESSOR OF CHEMISTRY AT THE UNIVERSITY OF BERLIN)
 Job cpu time:  0 days  0 hours  0 minutes 16.9 seconds.
 File lengths (MBytes):  RWF=     21 Int=      0 D2E=      0 Chk=     10 Scr=      1
 Normal termination of Gaussian 03 at Mon May  4 20:41:37 2015.
