 Entering Gaussian System, Link 0=/home/timn/tmp/g03.e01/g03
 Input=Ca2HPO4_23.xyz.gjf
 Output=Ca2HPO4_23.xyz.out
 Initial command:
 /home/timn/tmp/g03.e01/l1.exe /home/timn/tmp/g03.e01/Gau-11385.inp -scrdir=/home/timn/tmp/g03.e01/
 Default is to use a total of   2 processors:
                                2 via shared-memory
                                1 via Linda
 Entering Link 1 = /home/timn/tmp/g03.e01/l1.exe PID=     11388.
  
 Copyright (c) 1988,1990,1992,1993,1995,1998,2003,2004,2007, Gaussian, Inc.
                  All Rights Reserved.
  
 This is the Gaussian(R) 03 program.  It is based on the
 the Gaussian(R) 98 system (copyright 1998, Gaussian, Inc.),
 the Gaussian(R) 94 system (copyright 1995, Gaussian, Inc.),
 the Gaussian 92(TM) system (copyright 1992, Gaussian, Inc.),
 the Gaussian 90(TM) system (copyright 1990, Gaussian, Inc.),
 the Gaussian 88(TM) system (copyright 1988, Gaussian, Inc.),
 the Gaussian 86(TM) system (copyright 1986, Carnegie Mellon
 University), and the Gaussian 82(TM) system (copyright 1983,
 Carnegie Mellon University). Gaussian is a federally registered
 trademark of Gaussian, Inc.
  
 This software contains proprietary and confidential information,
 including trade secrets, belonging to Gaussian, Inc.
  
 This software is provided under written license and may be
 used, copied, transmitted, or stored only in accord with that
 written license.
  
 The following legend is applicable only to US Government
 contracts under FAR:
  
                    RESTRICTED RIGHTS LEGEND
  
 Use, reproduction and disclosure by the US Government is
 subject to restrictions as set forth in subparagraphs (a)
 and (c) of the Commercial Computer Software - Restricted
 Rights clause in FAR 52.227-19.
  
 Gaussian, Inc.
 340 Quinnipiac St., Bldg. 40, Wallingford CT 06492
  
  
 ---------------------------------------------------------------
 Warning -- This program may not be used in any manner that
 competes with the business of Gaussian, Inc. or will provide
 assistance to any competitor of Gaussian, Inc.  The licensee
 of this program is prohibited from giving any competitor of
 Gaussian, Inc. access to this program.  By using this program,
 the user acknowledges that Gaussian, Inc. is engaged in the
 business of creating and licensing software in the field of
 computational chemistry and represents and warrants to the
 licensee that it is not a competitor of Gaussian, Inc. and that
 it will not use this program in any manner prohibited above.
 ---------------------------------------------------------------
  

 Cite this work as:
 Gaussian 03, Revision E.01,
 M. J. Frisch, G. W. Trucks, H. B. Schlegel, G. E. Scuseria, 
 M. A. Robb, J. R. Cheeseman, J. A. Montgomery, Jr., T. Vreven, 
 K. N. Kudin, J. C. Burant, J. M. Millam, S. S. Iyengar, J. Tomasi, 
 V. Barone, B. Mennucci, M. Cossi, G. Scalmani, N. Rega, 
 G. A. Petersson, H. Nakatsuji, M. Hada, M. Ehara, K. Toyota, 
 R. Fukuda, J. Hasegawa, M. Ishida, T. Nakajima, Y. Honda, O. Kitao, 
 H. Nakai, M. Klene, X. Li, J. E. Knox, H. P. Hratchian, J. B. Cross, 
 V. Bakken, C. Adamo, J. Jaramillo, R. Gomperts, R. E. Stratmann, 
 O. Yazyev, A. J. Austin, R. Cammi, C. Pomelli, J. W. Ochterski, 
 P. Y. Ayala, K. Morokuma, G. A. Voth, P. Salvador, J. J. Dannenberg, 
 V. G. Zakrzewski, S. Dapprich, A. D. Daniels, M. C. Strain, 
 O. Farkas, D. K. Malick, A. D. Rabuck, K. Raghavachari, 
 J. B. Foresman, J. V. Ortiz, Q. Cui, A. G. Baboul, S. Clifford, 
 J. Cioslowski, B. B. Stefanov, G. Liu, A. Liashenko, P. Piskorz, 
 I. Komaromi, R. L. Martin, D. J. Fox, T. Keith, M. A. Al-Laham, 
 C. Y. Peng, A. Nanayakkara, M. Challacombe, P. M. W. Gill, 
 B. Johnson, W. Chen, M. W. Wong, C. Gonzalez, and J. A. Pople, 
 Gaussian, Inc., Wallingford CT, 2004.
 
 ******************************************
 Gaussian 03:  EM64T-G03RevE.01 11-Sep-2007
                 4-May-2015 
 ******************************************
 %nproc=2
 Will use up to    2 processors via shared memory.
 Default route:  MP2=Direct MaxDisk=2000MB
 -------------------------------------
 # b3lyp/6-31G(d,p) pop=(ReadRadii,MK)
 -------------------------------------
 1/38=1/1;
 2/17=6,18=5,40=1/2;
 3/5=1,6=6,7=101,11=2,16=1,25=1,30=1,74=-5/1,2,3;
 4//1;
 5/5=2,32=1,38=5/2;
 6/7=2,8=2,9=2,10=2,15=8,20=101,28=1/1,2;
 99/5=1,9=1/99;
 ----------
 Ca2HPO4_23
 ----------
 Symbolic Z-matrix:
 Charge =  0 Multiplicity = 1
 O                     3.71768   0.48955  -0.00179 
 H                     4.61554   0.81688  -0.0015 
 Ca                    1.75953  -0.21829   0.00126 
 O                    -0.25753  -0.23247  -1.21076 
 P                    -0.94494  -1.18751  -0.00259 
 O                    -2.45788  -0.72017  -0.00385 
 O                    -0.26071  -0.24283   1.21356 
 Ca                   -1.57823   1.35045   0.0019 
 
                          Input orientation:                          
 ---------------------------------------------------------------------
 Center     Atomic     Atomic              Coordinates (Angstroms)
 Number     Number      Type              X           Y           Z
 ---------------------------------------------------------------------
    1          8             0        3.717680    0.489552   -0.001790
    2          1             0        4.615540    0.816882   -0.001504
    3         20             0        1.759530   -0.218294    0.001258
    4          8             0       -0.257525   -0.232469   -1.210760
    5         15             0       -0.944937   -1.187510   -0.002589
    6          8             0       -2.457880   -0.720173   -0.003851
    7          8             0       -0.260711   -0.242826    1.213560
    8         20             0       -1.578230    1.350450    0.001895
 ---------------------------------------------------------------------
                    Distance matrix (angstroms):
                    1          2          3          4          5
     1  O    0.000000
     2  H    0.955666   0.000000
     3  Ca   2.082164   3.037827   0.000000
     4  O    4.217248   5.129347   2.353232   0.000000
     5  P    4.955051   5.910710   2.872897   1.686510   0.000000
     6  O    6.292931   7.238495   4.247170   2.556569   1.583478
     7  O    4.223866   5.135872   2.356194   2.424344   1.685115
     8  Ca   5.365428   6.216711   3.688035   2.391741   2.615783
                    6          7          8
     6  O    0.000000
     7  O    2.556854   0.000000
     8  Ca   2.249733   2.396355   0.000000
 Stoichiometry    Ca2HO4P
 Framework group  C1[X(Ca2HO4P)]
 Deg. of freedom    18
 Full point group                 C1
 Largest Abelian subgroup         C1      NOp   1
 Largest concise Abelian subgroup C1      NOp   1
                         Standard orientation:                         
 ---------------------------------------------------------------------
 Center     Atomic     Atomic              Coordinates (Angstroms)
 Number     Number      Type              X           Y           Z
 ---------------------------------------------------------------------
    1          8             0        3.717680    0.489551   -0.001790
    2          1             0        4.615540    0.816881   -0.001504
    3         20             0        1.759530   -0.218295    0.001258
    4          8             0       -0.257525   -0.232469   -1.210760
    5         15             0       -0.944937   -1.187510   -0.002589
    6          8             0       -2.457880   -0.720173   -0.003851
    7          8             0       -0.260711   -0.242826    1.213560
    8         20             0       -1.578230    1.350450    0.001895
 ---------------------------------------------------------------------
 Rotational constants (GHZ):      2.8070550      0.7907930      0.6969699
 Standard basis: 6-31G(d,p) (6D, 7F)
 There are   130 symmetry adapted basis functions of A   symmetry.
 Integral buffers will be    131072 words long.
 Raffenetti 2 integral format.
 Two-electron integral symmetry is turned on.
   130 basis functions,   323 primitive gaussians,   130 cartesian basis functions
    44 alpha electrons       44 beta electrons
       nuclear repulsion energy       633.3445422486 Hartrees.
 NAtoms=    8 NActive=    8 NUniq=    8 SFac= 7.50D-01 NAtFMM=   80 NAOKFM=F Big=F
 One-electron integrals computed using PRISM.
 NBasis=   130 RedAO= T  NBF=   130
 NBsUse=   130 1.00D-06 NBFU=   130
 Harris functional with IExCor=  402 diagonalized for initial guess.
 ExpMin= 2.60D-02 ExpMax= 3.53D+04 ExpMxC= 5.30D+03 IAcc=3 IRadAn=         5 AccDes= 0.00D+00
 HarFok:  IExCor= 402 AccDes= 0.00D+00 IRadAn=         5 IDoV=1
 ScaDFX=  1.000000  1.000000  1.000000  1.000000
 Initial guess orbital symmetries:
       Occupied  (A) (A) (A) (A) (A) (A) (A) (A) (A) (A) (A) (A)
                 (A) (A) (A) (A) (A) (A) (A) (A) (A) (A) (A) (A)
                 (A) (A) (A) (A) (A) (A) (A) (A) (A) (A) (A) (A)
                 (A) (A) (A) (A) (A) (A) (A) (A)
       Virtual   (A) (A) (A) (A) (A) (A) (A) (A) (A) (A) (A) (A)
                 (A) (A) (A) (A) (A) (A) (A) (A) (A) (A) (A) (A)
                 (A) (A) (A) (A) (A) (A) (A) (A) (A) (A) (A) (A)
                 (A) (A) (A) (A) (A) (A) (A) (A) (A) (A) (A) (A)
                 (A) (A) (A) (A) (A) (A) (A) (A) (A) (A) (A) (A)
                 (A) (A) (A) (A) (A) (A) (A) (A) (A) (A) (A) (A)
                 (A) (A) (A) (A) (A) (A) (A) (A) (A) (A) (A) (A)
                 (A) (A)
 The electronic state of the initial guess is 1-A.
 Requested convergence on RMS density matrix=1.00D-04 within 128 cycles.
 Requested convergence on MAX density matrix=1.00D-02.
 Requested convergence on             energy=1.00D-02.
 No special actions if energy rises.
 Keep R1 integrals in memory in canonical form, NReq=    38354117.
 SCF Done:  E(RB+HF-LYP) =  -1998.16691622     A.U. after    8 cycles
             Convg  =    0.7942D-04             -V/T =  2.0029
             S**2   =   0.0000

 **********************************************************************

            Population analysis using the SCF density.

 **********************************************************************

 Orbital symmetries:
       Occupied  (A) (A) (A) (A) (A) (A) (A) (A) (A) (A) (A) (A)
                 (A) (A) (A) (A) (A) (A) (A) (A) (A) (A) (A) (A)
                 (A) (A) (A) (A) (A) (A) (A) (A) (A) (A) (A) (A)
                 (A) (A) (A) (A) (A) (A) (A) (A)
       Virtual   (A) (A) (A) (A) (A) (A) (A) (A) (A) (A) (A) (A)
                 (A) (A) (A) (A) (A) (A) (A) (A) (A) (A) (A) (A)
                 (A) (A) (A) (A) (A) (A) (A) (A) (A) (A) (A) (A)
                 (A) (A) (A) (A) (A) (A) (A) (A) (A) (A) (A) (A)
                 (A) (A) (A) (A) (A) (A) (A) (A) (A) (A) (A) (A)
                 (A) (A) (A) (A) (A) (A) (A) (A) (A) (A) (A) (A)
                 (A) (A) (A) (A) (A) (A) (A) (A) (A) (A) (A) (A)
                 (A) (A)
 The electronic state is 1-A.
 Alpha  occ. eigenvalues -- -145.39996-145.32634 -77.12096 -19.08459 -19.08443
 Alpha  occ. eigenvalues --  -19.07846 -19.03997 -15.47010 -15.39890 -12.60167
 Alpha  occ. eigenvalues --  -12.60166 -12.60149 -12.53145 -12.53066 -12.52868
 Alpha  occ. eigenvalues --   -6.57502  -4.73832  -4.73798  -4.73430  -1.84317
 Alpha  occ. eigenvalues --   -1.77657  -1.12390  -1.11653  -1.11604  -1.05857
 Alpha  occ. eigenvalues --   -1.05388  -1.05353  -0.94521  -0.88141  -0.86605
 Alpha  occ. eigenvalues --   -0.85023  -0.49089  -0.37912  -0.36439  -0.36404
 Alpha  occ. eigenvalues --   -0.36029  -0.30257  -0.29036  -0.25766  -0.24329
 Alpha  occ. eigenvalues --   -0.22455  -0.21769  -0.21518  -0.19593
 Alpha virt. eigenvalues --   -0.10436  -0.03651  -0.01725  -0.01622   0.01841
 Alpha virt. eigenvalues --    0.02404   0.03082   0.04924   0.06613   0.08798
 Alpha virt. eigenvalues --    0.10102   0.10425   0.11679   0.12265   0.13972
 Alpha virt. eigenvalues --    0.17757   0.18113   0.19503   0.20197   0.20581
 Alpha virt. eigenvalues --    0.23655   0.23780   0.27040   0.28928   0.29096
 Alpha virt. eigenvalues --    0.31811   0.35797   0.38023   0.39216   0.39929
 Alpha virt. eigenvalues --    0.40502   0.42505   0.46531   0.50838   0.53006
 Alpha virt. eigenvalues --    0.55931   0.70142   0.80606   0.86121   0.92727
 Alpha virt. eigenvalues --    0.93201   0.94019   1.02131   1.02291   1.04266
 Alpha virt. eigenvalues --    1.05310   1.12132   1.13006   1.15329   1.19077
 Alpha virt. eigenvalues --    1.20435   1.22511   1.24284   1.32997   1.40976
 Alpha virt. eigenvalues --    1.47940   1.53019   1.69848   1.72509   1.78250
 Alpha virt. eigenvalues --    1.82601   1.87208   1.87938   1.89562   1.89751
 Alpha virt. eigenvalues --    1.90424   1.90564   1.92430   1.93788   1.95680
 Alpha virt. eigenvalues --    2.04410   2.06986   2.12349   2.21075   2.45864
 Alpha virt. eigenvalues --    2.49340   2.62835   2.73389   2.73598   2.76564
 Alpha virt. eigenvalues --    3.49781   3.60990   3.77052   3.82069   3.90929
 Alpha virt. eigenvalues --    4.11804
          Condensed to atoms (all electrons):
              1          2          3          4          5          6
     1  O    8.314168   0.278696   0.251424  -0.000098  -0.000155   0.000000
     2  H    0.278696   0.479319  -0.026365   0.000003   0.000014   0.000000
     3  Ca   0.251424  -0.026365  18.714474   0.120511   0.026356  -0.004629
     4  O   -0.000098   0.000003   0.120511   8.519627   0.132906  -0.038830
     5  P   -0.000155   0.000014   0.026356   0.132906  13.493680   0.288017
     6  O    0.000000   0.000000  -0.004629  -0.038830   0.288017   8.334068
     7  O   -0.000096   0.000003   0.120518  -0.060977   0.133345  -0.038776
     8  Ca  -0.013287   0.000246  -0.214469   0.127593  -0.040780   0.174379
              7          8
     1  O   -0.000096  -0.013287
     2  H    0.000003   0.000246
     3  Ca   0.120518  -0.214469
     4  O   -0.060977   0.127593
     5  P    0.133345  -0.040780
     6  O   -0.038776   0.174379
     7  O    8.518519   0.127387
     8  Ca   0.127387  18.940280
 Mulliken atomic charges:
              1
     1  O   -0.830651
     2  H    0.268084
     3  Ca   1.012181
     4  O   -0.800734
     5  P    0.966618
     6  O   -0.714228
     7  O   -0.799922
     8  Ca   0.898651
 Sum of Mulliken charges=   0.00000
 Atomic charges with hydrogens summed into heavy atoms:
              1
     1  O   -0.562567
     2  H    0.000000
     3  Ca   1.012181
     4  O   -0.800734
     5  P    0.966618
     6  O   -0.714228
     7  O   -0.799922
     8  Ca   0.898651
 Sum of Mulliken charges=   0.00000
 Electronic spatial extent (au):  <R**2>=  1562.8906
 Charge=     0.0000 electrons
 Dipole moment (field-independent basis, Debye):
    X=    -1.3978    Y=     7.3254    Z=     0.0256  Tot=     7.4577
 Quadrupole moment (field-independent basis, Debye-Ang):
   XX=   -73.9013   YY=   -52.5238   ZZ=   -73.0116
   XY=   -21.2014   XZ=     0.0083   YZ=     0.0458
 Traceless Quadrupole moment (field-independent basis, Debye-Ang):
   XX=    -7.4224   YY=    13.9551   ZZ=    -6.5327
   XY=   -21.2014   XZ=     0.0083   YZ=     0.0458
 Octapole moment (field-independent basis, Debye-Ang**2):
  XXX=   -15.4924  YYY=    32.2288  ZZZ=    -0.0125  XYY=   -13.2641
  XXY=    31.4393  XXZ=     0.1679  XZZ=     3.2076  YZZ=     5.4356
  YYZ=     0.0319  XYZ=    -0.0059
 Hexadecapole moment (field-independent basis, Debye-Ang**3):
 XXXX= -1492.7065 YYYY=  -371.2012 ZZZZ=  -223.8820 XXXY=   -64.1853
 XXXZ=    -0.0236 YYYX=   -51.5497 YYYZ=    -0.0623 ZZZX=     0.0750
 ZZZY=     0.0845 XXYY=  -255.1444 XXZZ=  -264.9888 YYZZ=   -95.7144
 XXYZ=    -0.0293 YYXZ=    -0.0334 ZZXY=    -8.8566
 N-N= 6.333445422486D+02 E-N=-6.002992784088D+03  KE= 1.992358891373D+03
 Merz-Kollman atomic radii used.
 Read replacement radii for each type of atom:
 Rad(20) =   1.188000000000D+00
 Atom Element Radius
    1     8    1.40
    2     1    1.20
    3    20    1.19
    4     8    1.40
    5    15    1.80
    6     8    1.40
    7     8    1.40
    8    20    1.19

 **********************************************************************

            Electrostatic Properties Using The SCF Density

 **********************************************************************

       Atomic Center    1 is at   3.717680  0.489551 -0.001790
       Atomic Center    2 is at   4.615540  0.816881 -0.001504
       Atomic Center    3 is at   1.759530 -0.218295  0.001258
       Atomic Center    4 is at  -0.257525 -0.232469 -1.210760
       Atomic Center    5 is at  -0.944937 -1.187510 -0.002589
       Atomic Center    6 is at  -2.457880 -0.720173 -0.003851
       Atomic Center    7 is at  -0.260711 -0.242826  1.213560
       Atomic Center    8 is at  -1.578230  1.350450  0.001895
     751 points will be used for fitting atomic charges
 Fitting point charges to eletrostatic potential
 Charges from ESP fit, RMS=   0.00767 RRMS=   0.12626:
 Charge=   0.00000 Dipole=    -1.8263     8.0104     0.0221 Tot=     8.2160
              1
     1  O   -1.329003
     2  H    0.484522
     3  Ca   1.598541
     4  O   -0.906769
     5  P    0.315787
     6  O   -0.584635
     7  O   -0.907162
     8  Ca   1.328719
 -----------------------------------------------------------------

              Electrostatic Properties (Atomic Units)

 -----------------------------------------------------------------
    Center     Electric         -------- Electric Field --------
               Potential          X             Y             Z
 -----------------------------------------------------------------
    1 Atom    -22.421444
    2 Atom     -1.095881
    3 Atom    -80.216731
    4 Atom    -22.382222
    5 Atom    -54.094485
    6 Atom    -22.390804
    7 Atom    -22.382434
    8 Atom    -80.142032
 -----------------------------------------------------------------
 1\1\GINC-N038\SP\RB3LYP\6-31G(d,p)\Ca2H1O4P1\TIMN\04-May-2015\0\\# b3l
 yp/6-31G(d,p) pop=(ReadRadii,MK)\\Ca2HPO4_23\\0,1\O,0,3.71768,0.489552
 ,-0.00179\H,0,4.61554,0.816882,-0.001504\Ca,0,1.75953,-0.218294,0.0012
 58\O,0,-0.257525,-0.232469,-1.21076\P,0,-0.944937,-1.18751,-0.002589\O
 ,0,-2.45788,-0.720173,-0.003851\O,0,-0.260711,-0.242826,1.21356\Ca,0,-
 1.57823,1.35045,0.001895\\Version=EM64T-G03RevE.01\State=1-A\HF=-1998.
 1669162\RMSD=7.942e-05\Thermal=0.\Dipole=-0.5499511,2.8820473,0.010088
 2\PG=C01 [X(Ca2H1O4P1)]\\@


 FAULTILY FAULTLESS, ICILY REGULAR, SPLENDIDLY NULL...
           MAUDE BY TENNYSON
 Job cpu time:  0 days  0 hours  0 minutes 18.8 seconds.
 File lengths (MBytes):  RWF=     21 Int=      0 D2E=      0 Chk=     10 Scr=      1
 Normal termination of Gaussian 03 at Mon May  4 20:08:25 2015.
