 Entering Gaussian System, Link 0=/home/timn/tmp/g03.e01/g03
 Input=Ca2HPO4_54.xyz.gjf
 Output=Ca2HPO4_54.xyz.out
 Initial command:
 /home/timn/tmp/g03.e01/l1.exe /home/timn/tmp/g03.e01/Gau-27112.inp -scrdir=/home/timn/tmp/g03.e01/
 Default is to use a total of   2 processors:
                                2 via shared-memory
                                1 via Linda
 Entering Link 1 = /home/timn/tmp/g03.e01/l1.exe PID=     27113.
  
 Copyright (c) 1988,1990,1992,1993,1995,1998,2003,2004,2007, Gaussian, Inc.
                  All Rights Reserved.
  
 This is the Gaussian(R) 03 program.  It is based on the
 the Gaussian(R) 98 system (copyright 1998, Gaussian, Inc.),
 the Gaussian(R) 94 system (copyright 1995, Gaussian, Inc.),
 the Gaussian 92(TM) system (copyright 1992, Gaussian, Inc.),
 the Gaussian 90(TM) system (copyright 1990, Gaussian, Inc.),
 the Gaussian 88(TM) system (copyright 1988, Gaussian, Inc.),
 the Gaussian 86(TM) system (copyright 1986, Carnegie Mellon
 University), and the Gaussian 82(TM) system (copyright 1983,
 Carnegie Mellon University). Gaussian is a federally registered
 trademark of Gaussian, Inc.
  
 This software contains proprietary and confidential information,
 including trade secrets, belonging to Gaussian, Inc.
  
 This software is provided under written license and may be
 used, copied, transmitted, or stored only in accord with that
 written license.
  
 The following legend is applicable only to US Government
 contracts under FAR:
  
                    RESTRICTED RIGHTS LEGEND
  
 Use, reproduction and disclosure by the US Government is
 subject to restrictions as set forth in subparagraphs (a)
 and (c) of the Commercial Computer Software - Restricted
 Rights clause in FAR 52.227-19.
  
 Gaussian, Inc.
 340 Quinnipiac St., Bldg. 40, Wallingford CT 06492
  
  
 ---------------------------------------------------------------
 Warning -- This program may not be used in any manner that
 competes with the business of Gaussian, Inc. or will provide
 assistance to any competitor of Gaussian, Inc.  The licensee
 of this program is prohibited from giving any competitor of
 Gaussian, Inc. access to this program.  By using this program,
 the user acknowledges that Gaussian, Inc. is engaged in the
 business of creating and licensing software in the field of
 computational chemistry and represents and warrants to the
 licensee that it is not a competitor of Gaussian, Inc. and that
 it will not use this program in any manner prohibited above.
 ---------------------------------------------------------------
  

 Cite this work as:
 Gaussian 03, Revision E.01,
 M. J. Frisch, G. W. Trucks, H. B. Schlegel, G. E. Scuseria, 
 M. A. Robb, J. R. Cheeseman, J. A. Montgomery, Jr., T. Vreven, 
 K. N. Kudin, J. C. Burant, J. M. Millam, S. S. Iyengar, J. Tomasi, 
 V. Barone, B. Mennucci, M. Cossi, G. Scalmani, N. Rega, 
 G. A. Petersson, H. Nakatsuji, M. Hada, M. Ehara, K. Toyota, 
 R. Fukuda, J. Hasegawa, M. Ishida, T. Nakajima, Y. Honda, O. Kitao, 
 H. Nakai, M. Klene, X. Li, J. E. Knox, H. P. Hratchian, J. B. Cross, 
 V. Bakken, C. Adamo, J. Jaramillo, R. Gomperts, R. E. Stratmann, 
 O. Yazyev, A. J. Austin, R. Cammi, C. Pomelli, J. W. Ochterski, 
 P. Y. Ayala, K. Morokuma, G. A. Voth, P. Salvador, J. J. Dannenberg, 
 V. G. Zakrzewski, S. Dapprich, A. D. Daniels, M. C. Strain, 
 O. Farkas, D. K. Malick, A. D. Rabuck, K. Raghavachari, 
 J. B. Foresman, J. V. Ortiz, Q. Cui, A. G. Baboul, S. Clifford, 
 J. Cioslowski, B. B. Stefanov, G. Liu, A. Liashenko, P. Piskorz, 
 I. Komaromi, R. L. Martin, D. J. Fox, T. Keith, M. A. Al-Laham, 
 C. Y. Peng, A. Nanayakkara, M. Challacombe, P. M. W. Gill, 
 B. Johnson, W. Chen, M. W. Wong, C. Gonzalez, and J. A. Pople, 
 Gaussian, Inc., Wallingford CT, 2004.
 
 ******************************************
 Gaussian 03:  EM64T-G03RevE.01 11-Sep-2007
                 4-May-2015 
 ******************************************
 %nproc=2
 Will use up to    2 processors via shared memory.
 Default route:  MP2=Direct MaxDisk=2000MB
 -------------------------------------
 # b3lyp/6-31G(d,p) pop=(ReadRadii,MK)
 -------------------------------------
 1/38=1/1;
 2/17=6,18=5,40=1/2;
 3/5=1,6=6,7=101,11=2,16=1,25=1,30=1,74=-5/1,2,3;
 4//1;
 5/5=2,32=1,38=5/2;
 6/7=2,8=2,9=2,10=2,15=8,20=101,28=1/1,2;
 99/5=1,9=1/99;
 ----------
 Ca2HPO4_54
 ----------
 Symbolic Z-matrix:
 Charge =  0 Multiplicity = 1
 O                     2.05497   0.75139  -0.39497 
 P                     2.05072  -0.82534  -0.34885 
 H                     2.54051  -1.13088   0.97925 
 O                     0.41378  -1.25917   0.03888 
 O                    -0.17027  -0.59021   1.30635 
 Ca                   -1.89677  -0.91432  -0.18101 
 O                    -1.88056   1.15876  -0.61069 
 Ca                    0.06454   1.56556   0.25786 
 
                          Input orientation:                          
 ---------------------------------------------------------------------
 Center     Atomic     Atomic              Coordinates (Angstroms)
 Number     Number      Type              X           Y           Z
 ---------------------------------------------------------------------
    1          8             0        2.054970    0.751391   -0.394970
    2         15             0        2.050720   -0.825343   -0.348849
    3          1             0        2.540510   -1.130880    0.979247
    4          8             0        0.413782   -1.259170    0.038880
    5          8             0       -0.170274   -0.590207    1.306350
    6         20             0       -1.896770   -0.914318   -0.181011
    7          8             0       -1.880560    1.158760   -0.610692
    8         20             0        0.064538    1.565560    0.257856
 ---------------------------------------------------------------------
                    Distance matrix (angstroms):
                    1          2          3          4          5
     1  O    0.000000
     2  P    1.577414   0.000000
     3  H    2.380581   1.448132   0.000000
     4  O    2.631365   1.737270   2.328888   0.000000
     5  O    3.105815   2.779890   2.783464   1.547615   0.000000
     6  Ca   4.293788   3.952058   4.591574   2.346471   2.301756
     7  O    3.962434   4.411370   5.226492   3.395929   3.107895
     8  Ca   2.247415   3.166927   3.731170   2.854649   2.408694
                    6          7          8
     6  Ca   0.000000
     7  O    2.117201   0.000000
     8  Ca   3.192041   2.168702   0.000000
 Stoichiometry    Ca2HO4P
 Framework group  C1[X(Ca2HO4P)]
 Deg. of freedom    18
 Full point group                 C1
 Largest Abelian subgroup         C1      NOp   1
 Largest concise Abelian subgroup C1      NOp   1
                         Standard orientation:                         
 ---------------------------------------------------------------------
 Center     Atomic     Atomic              Coordinates (Angstroms)
 Number     Number      Type              X           Y           Z
 ---------------------------------------------------------------------
    1          8             0        2.054971    0.751389   -0.394970
    2         15             0        2.050719   -0.825345   -0.348849
    3          1             0        2.540509   -1.130883    0.979248
    4          8             0        0.413780   -1.259171    0.038881
    5          8             0       -0.170275   -0.590207    1.306351
    6         20             0       -1.896771   -0.914316   -0.181011
    7          8             0       -1.880559    1.158762   -0.610692
    8         20             0        0.064540    1.565560    0.257857
 ---------------------------------------------------------------------
 Rotational constants (GHZ):      1.9466062      1.1168954      0.8108928
 Standard basis: 6-31G(d,p) (6D, 7F)
 There are   130 symmetry adapted basis functions of A   symmetry.
 Integral buffers will be    131072 words long.
 Raffenetti 2 integral format.
 Two-electron integral symmetry is turned on.
   130 basis functions,   323 primitive gaussians,   130 cartesian basis functions
    44 alpha electrons       44 beta electrons
       nuclear repulsion energy       636.3855908654 Hartrees.
 NAtoms=    8 NActive=    8 NUniq=    8 SFac= 7.50D-01 NAtFMM=   80 NAOKFM=F Big=F
 One-electron integrals computed using PRISM.
 NBasis=   130 RedAO= T  NBF=   130
 NBsUse=   130 1.00D-06 NBFU=   130
 Harris functional with IExCor=  402 diagonalized for initial guess.
 ExpMin= 2.60D-02 ExpMax= 3.53D+04 ExpMxC= 5.30D+03 IAcc=3 IRadAn=         5 AccDes= 0.00D+00
 HarFok:  IExCor= 402 AccDes= 0.00D+00 IRadAn=         5 IDoV=1
 ScaDFX=  1.000000  1.000000  1.000000  1.000000
 Initial guess orbital symmetries:
       Occupied  (A) (A) (A) (A) (A) (A) (A) (A) (A) (A) (A) (A)
                 (A) (A) (A) (A) (A) (A) (A) (A) (A) (A) (A) (A)
                 (A) (A) (A) (A) (A) (A) (A) (A) (A) (A) (A) (A)
                 (A) (A) (A) (A) (A) (A) (A) (A)
       Virtual   (A) (A) (A) (A) (A) (A) (A) (A) (A) (A) (A) (A)
                 (A) (A) (A) (A) (A) (A) (A) (A) (A) (A) (A) (A)
                 (A) (A) (A) (A) (A) (A) (A) (A) (A) (A) (A) (A)
                 (A) (A) (A) (A) (A) (A) (A) (A) (A) (A) (A) (A)
                 (A) (A) (A) (A) (A) (A) (A) (A) (A) (A) (A) (A)
                 (A) (A) (A) (A) (A) (A) (A) (A) (A) (A) (A) (A)
                 (A) (A) (A) (A) (A) (A) (A) (A) (A) (A) (A) (A)
                 (A) (A)
 The electronic state of the initial guess is 1-A.
 Requested convergence on RMS density matrix=1.00D-04 within 128 cycles.
 Requested convergence on MAX density matrix=1.00D-02.
 Requested convergence on             energy=1.00D-02.
 No special actions if energy rises.
 Keep R1 integrals in memory in canonical form, NReq=    38353825.
 EnCoef did     4 forward-backward iterations
 EnCoef did     1 forward-backward iterations
 SCF Done:  E(RB+HF-LYP) =  -1998.01226354     A.U. after    9 cycles
             Convg  =    0.5317D-04             -V/T =  2.0029
             S**2   =   0.0000

 **********************************************************************

            Population analysis using the SCF density.

 **********************************************************************

 Orbital symmetries:
       Occupied  (A) (A) (A) (A) (A) (A) (A) (A) (A) (A) (A) (A)
                 (A) (A) (A) (A) (A) (A) (A) (A) (A) (A) (A) (A)
                 (A) (A) (A) (A) (A) (A) (A) (A) (A) (A) (A) (A)
                 (A) (A) (A) (A) (A) (A) (A) (A)
       Virtual   (A) (A) (A) (A) (A) (A) (A) (A) (A) (A) (A) (A)
                 (A) (A) (A) (A) (A) (A) (A) (A) (A) (A) (A) (A)
                 (A) (A) (A) (A) (A) (A) (A) (A) (A) (A) (A) (A)
                 (A) (A) (A) (A) (A) (A) (A) (A) (A) (A) (A) (A)
                 (A) (A) (A) (A) (A) (A) (A) (A) (A) (A) (A) (A)
                 (A) (A) (A) (A) (A) (A) (A) (A) (A) (A) (A) (A)
                 (A) (A) (A) (A) (A) (A) (A) (A) (A) (A) (A) (A)
                 (A) (A)
 The electronic state is 1-A.
 Alpha  occ. eigenvalues -- -145.35443-145.31991 -77.09982 -19.17152 -19.11861
 Alpha  occ. eigenvalues --  -19.07049 -18.99275 -15.42518 -15.39173 -12.55721
 Alpha  occ. eigenvalues --  -12.55678 -12.55590 -12.52397 -12.52352 -12.52186
 Alpha  occ. eigenvalues --   -6.55887  -4.72389  -4.72063  -4.71609  -1.80036
 Alpha  occ. eigenvalues --   -1.76879  -1.08528  -1.07759  -1.07183  -1.05074
 Alpha  occ. eigenvalues --   -1.04656  -1.03962  -0.99829  -0.90394  -0.80064
 Alpha  occ. eigenvalues --   -0.73224  -0.53886  -0.41723  -0.38720  -0.38366
 Alpha  occ. eigenvalues --   -0.33175  -0.28981  -0.27341  -0.24389  -0.22371
 Alpha  occ. eigenvalues --   -0.19092  -0.18253  -0.17386  -0.17018
 Alpha virt. eigenvalues --   -0.08242  -0.04844  -0.01738   0.00940   0.01451
 Alpha virt. eigenvalues --    0.02572   0.02827   0.03565   0.05263   0.07038
 Alpha virt. eigenvalues --    0.09430   0.10140   0.11681   0.13524   0.14800
 Alpha virt. eigenvalues --    0.16636   0.17340   0.18758   0.20518   0.21925
 Alpha virt. eigenvalues --    0.23271   0.25083   0.26838   0.30189   0.31517
 Alpha virt. eigenvalues --    0.33687   0.35810   0.37406   0.38693   0.40669
 Alpha virt. eigenvalues --    0.43215   0.45185   0.46552   0.50406   0.53717
 Alpha virt. eigenvalues --    0.65414   0.66018   0.71258   0.75488   0.80715
 Alpha virt. eigenvalues --    0.95983   0.97434   1.04757   1.07247   1.07643
 Alpha virt. eigenvalues --    1.10235   1.12090   1.14186   1.16296   1.18923
 Alpha virt. eigenvalues --    1.24471   1.25957   1.28451   1.32910   1.36365
 Alpha virt. eigenvalues --    1.47610   1.50564   1.57899   1.61179   1.69211
 Alpha virt. eigenvalues --    1.84755   1.85777   1.88144   1.90858   1.92530
 Alpha virt. eigenvalues --    1.96918   1.98098   2.00081   2.00422   2.01512
 Alpha virt. eigenvalues --    2.05480   2.07542   2.11762   2.16971   2.24121
 Alpha virt. eigenvalues --    2.29935   2.30567   2.44258   2.71120   2.80838
 Alpha virt. eigenvalues --    3.06025   3.59999   3.72248   3.81533   3.88997
 Alpha virt. eigenvalues --    3.89691
          Condensed to atoms (all electrons):
              1          2          3          4          5          6
     1  O    8.396626   0.280446  -0.039035  -0.028245   0.000076  -0.006206
     2  P    0.280446  13.769113   0.177803   0.102135  -0.006141   0.038178
     3  H   -0.039035   0.177803   0.984343  -0.012450  -0.007845  -0.016262
     4  O   -0.028245   0.102135  -0.012450   8.384241  -0.009262   0.054753
     5  O    0.000076  -0.006141  -0.007845  -0.009262   8.363639   0.100170
     6  Ca  -0.006206   0.038178  -0.016262   0.054753   0.100170  18.782367
     7  O   -0.000154  -0.000722   0.000001  -0.000923  -0.005632   0.251087
     8  Ca   0.166041  -0.065096   0.030879   0.016563   0.101366  -0.261120
              7          8
     1  O   -0.000154   0.166041
     2  P   -0.000722  -0.065096
     3  H    0.000001   0.030879
     4  O   -0.000923   0.016563
     5  O   -0.005632   0.101366
     6  Ca   0.251087  -0.261120
     7  O    8.426879   0.220871
     8  Ca   0.220871  18.730248
 Mulliken atomic charges:
              1
     1  O   -0.769548
     2  P    0.704285
     3  H   -0.117433
     4  O   -0.506811
     5  O   -0.536370
     6  Ca   1.057035
     7  O   -0.891406
     8  Ca   1.060249
 Sum of Mulliken charges=   0.00000
 Atomic charges with hydrogens summed into heavy atoms:
              1
     1  O   -0.769548
     2  P    0.586852
     3  H    0.000000
     4  O   -0.506811
     5  O   -0.536370
     6  Ca   1.057035
     7  O   -0.891406
     8  Ca   1.060249
 Sum of Mulliken charges=   0.00000
 Electronic spatial extent (au):  <R**2>=  1340.2875
 Charge=     0.0000 electrons
 Dipole moment (field-independent basis, Debye):
    X=    -4.8853    Y=    -1.0468    Z=     1.8240  Tot=     5.3188
 Quadrupole moment (field-independent basis, Debye-Ang):
   XX=   -68.4190   YY=   -51.7875   ZZ=   -69.2178
   XY=    20.4363   XZ=    -0.0331   YZ=    10.4669
 Traceless Quadrupole moment (field-independent basis, Debye-Ang):
   XX=    -5.2776   YY=    11.3539   ZZ=    -6.0764
   XY=    20.4363   XZ=    -0.0331   YZ=    10.4669
 Octapole moment (field-independent basis, Debye-Ang**2):
  XXX=   -42.3546  YYY=    27.5173  ZZZ=     2.0907  XYY=    -8.8851
  XXY=   -55.3981  XXZ=    15.5381  XZZ=    -5.8041  YZZ=     5.3084
  YYZ=    11.3731  XYZ=   -10.0172
 Hexadecapole moment (field-independent basis, Debye-Ang**3):
 XXXX= -1016.7312 YYYY=  -461.2226 ZZZZ=  -209.1751 XXXY=   115.5343
 XXXZ=    -0.1297 YYYX=    77.6539 YYYZ=    24.0404 ZZZX=     0.9778
 ZZZY=    17.7392 XXYY=  -268.3671 XXZZ=  -217.7633 YYZZ=  -121.5084
 XXYZ=    19.4784 YYXZ=     3.8339 ZZXY=    23.2852
 N-N= 6.363855908654D+02 E-N=-6.009921592888D+03  KE= 1.992189751044D+03
 Merz-Kollman atomic radii used.
 Read replacement radii for each type of atom:
 Rad(20) =   1.188000000000D+00
 Atom Element Radius
    1     8    1.40
    2    15    1.80
    3     1    1.20
    4     8    1.40
    5     8    1.40
    6    20    1.19
    7     8    1.40
    8    20    1.19

 **********************************************************************

            Electrostatic Properties Using The SCF Density

 **********************************************************************

       Atomic Center    1 is at   2.054971  0.751389 -0.394970
       Atomic Center    2 is at   2.050719 -0.825345 -0.348849
       Atomic Center    3 is at   2.540509 -1.130883  0.979248
       Atomic Center    4 is at   0.413780 -1.259171  0.038881
       Atomic Center    5 is at  -0.170275 -0.590207  1.306351
       Atomic Center    6 is at  -1.896771 -0.914316 -0.181011
       Atomic Center    7 is at  -1.880559  1.158762 -0.610692
       Atomic Center    8 is at   0.064540  1.565560  0.257857
     740 points will be used for fitting atomic charges
 Fitting point charges to eletrostatic potential
 Charges from ESP fit, RMS=   0.00637 RRMS=   0.10541:
 Charge=   0.00000 Dipole=    -5.5263    -1.0634     1.8769 Tot=     5.9324
              1
     1  O   -0.643274
     2  P   -0.018370
     3  H    0.118907
     4  O   -0.354209
     5  O   -0.722000
     6  Ca   1.444205
     7  O   -1.366831
     8  Ca   1.541572
 -----------------------------------------------------------------

              Electrostatic Properties (Atomic Units)

 -----------------------------------------------------------------
    Center     Electric         -------- Electric Field --------
               Potential          X             Y             Z
 -----------------------------------------------------------------
    1 Atom    -22.392954
    2 Atom    -54.114665
    3 Atom     -1.162680
    4 Atom    -22.295644
    5 Atom    -22.351311
    6 Atom    -80.188485
    7 Atom    -22.466455
    8 Atom    -80.222355
 -----------------------------------------------------------------
 1\1\GINC-N041\SP\RB3LYP\6-31G(d,p)\Ca2H1O4P1\TIMN\04-May-2015\0\\# b3l
 yp/6-31G(d,p) pop=(ReadRadii,MK)\\Ca2HPO4_54\\0,1\O,0,2.05497,0.751391
 ,-0.39497\P,0,2.05072,-0.825343,-0.348849\H,0,2.54051,-1.13088,0.97924
 7\O,0,0.413782,-1.25917,0.03888\O,0,-0.170274,-0.590207,1.30635\Ca,0,-
 1.89677,-0.914318,-0.181011\O,0,-1.88056,1.15876,-0.610692\Ca,0,0.0645
 38,1.56556,0.257856\\Version=EM64T-G03RevE.01\State=1-A\HF=-1998.01226
 35\RMSD=5.317e-05\Thermal=0.\Dipole=-1.9220374,-0.4118474,0.717605\PG=
 C01 [X(Ca2H1O4P1)]\\@


 ARTHROPOD AXIOM: A COMPUTER SYSTEM IS LIKE A SPIDER'S WEB.
 YOU CANNOT PULL ON ONE END WITHOUT MAKING THE OTHER END MOVE.
     -- GREG WETTSTEIN
 Job cpu time:  0 days  0 hours  0 minutes 23.8 seconds.
 File lengths (MBytes):  RWF=     21 Int=      0 D2E=      0 Chk=     10 Scr=      1
 Normal termination of Gaussian 03 at Mon May  4 20:08:43 2015.
