 Entering Gaussian System, Link 0=/home/timn/tmp/g03.e01/g03
 Input=Ca2HPO4_28.xyz.gjf
 Output=Ca2HPO4_28.xyz.out
 Initial command:
 /home/timn/tmp/g03.e01/l1.exe /home/timn/tmp/g03.e01/Gau-28108.inp -scrdir=/home/timn/tmp/g03.e01/
 Default is to use a total of   2 processors:
                                2 via shared-memory
                                1 via Linda
 Entering Link 1 = /home/timn/tmp/g03.e01/l1.exe PID=     28109.
  
 Copyright (c) 1988,1990,1992,1993,1995,1998,2003,2004,2007, Gaussian, Inc.
                  All Rights Reserved.
  
 This is the Gaussian(R) 03 program.  It is based on the
 the Gaussian(R) 98 system (copyright 1998, Gaussian, Inc.),
 the Gaussian(R) 94 system (copyright 1995, Gaussian, Inc.),
 the Gaussian 92(TM) system (copyright 1992, Gaussian, Inc.),
 the Gaussian 90(TM) system (copyright 1990, Gaussian, Inc.),
 the Gaussian 88(TM) system (copyright 1988, Gaussian, Inc.),
 the Gaussian 86(TM) system (copyright 1986, Carnegie Mellon
 University), and the Gaussian 82(TM) system (copyright 1983,
 Carnegie Mellon University). Gaussian is a federally registered
 trademark of Gaussian, Inc.
  
 This software contains proprietary and confidential information,
 including trade secrets, belonging to Gaussian, Inc.
  
 This software is provided under written license and may be
 used, copied, transmitted, or stored only in accord with that
 written license.
  
 The following legend is applicable only to US Government
 contracts under FAR:
  
                    RESTRICTED RIGHTS LEGEND
  
 Use, reproduction and disclosure by the US Government is
 subject to restrictions as set forth in subparagraphs (a)
 and (c) of the Commercial Computer Software - Restricted
 Rights clause in FAR 52.227-19.
  
 Gaussian, Inc.
 340 Quinnipiac St., Bldg. 40, Wallingford CT 06492
  
  
 ---------------------------------------------------------------
 Warning -- This program may not be used in any manner that
 competes with the business of Gaussian, Inc. or will provide
 assistance to any competitor of Gaussian, Inc.  The licensee
 of this program is prohibited from giving any competitor of
 Gaussian, Inc. access to this program.  By using this program,
 the user acknowledges that Gaussian, Inc. is engaged in the
 business of creating and licensing software in the field of
 computational chemistry and represents and warrants to the
 licensee that it is not a competitor of Gaussian, Inc. and that
 it will not use this program in any manner prohibited above.
 ---------------------------------------------------------------
  

 Cite this work as:
 Gaussian 03, Revision E.01,
 M. J. Frisch, G. W. Trucks, H. B. Schlegel, G. E. Scuseria, 
 M. A. Robb, J. R. Cheeseman, J. A. Montgomery, Jr., T. Vreven, 
 K. N. Kudin, J. C. Burant, J. M. Millam, S. S. Iyengar, J. Tomasi, 
 V. Barone, B. Mennucci, M. Cossi, G. Scalmani, N. Rega, 
 G. A. Petersson, H. Nakatsuji, M. Hada, M. Ehara, K. Toyota, 
 R. Fukuda, J. Hasegawa, M. Ishida, T. Nakajima, Y. Honda, O. Kitao, 
 H. Nakai, M. Klene, X. Li, J. E. Knox, H. P. Hratchian, J. B. Cross, 
 V. Bakken, C. Adamo, J. Jaramillo, R. Gomperts, R. E. Stratmann, 
 O. Yazyev, A. J. Austin, R. Cammi, C. Pomelli, J. W. Ochterski, 
 P. Y. Ayala, K. Morokuma, G. A. Voth, P. Salvador, J. J. Dannenberg, 
 V. G. Zakrzewski, S. Dapprich, A. D. Daniels, M. C. Strain, 
 O. Farkas, D. K. Malick, A. D. Rabuck, K. Raghavachari, 
 J. B. Foresman, J. V. Ortiz, Q. Cui, A. G. Baboul, S. Clifford, 
 J. Cioslowski, B. B. Stefanov, G. Liu, A. Liashenko, P. Piskorz, 
 I. Komaromi, R. L. Martin, D. J. Fox, T. Keith, M. A. Al-Laham, 
 C. Y. Peng, A. Nanayakkara, M. Challacombe, P. M. W. Gill, 
 B. Johnson, W. Chen, M. W. Wong, C. Gonzalez, and J. A. Pople, 
 Gaussian, Inc., Wallingford CT, 2004.
 
 ******************************************
 Gaussian 03:  EM64T-G03RevE.01 11-Sep-2007
                 4-May-2015 
 ******************************************
 %nproc=2
 Will use up to    2 processors via shared memory.
 Default route:  MP2=Direct MaxDisk=2000MB
 --------------------------------------------
 # b3lyp/6-31G(d,p) pop=(ReadRadii,MK) scf=qc
 --------------------------------------------
 1/38=1/1;
 2/17=6,18=5,40=1/2;
 3/5=1,6=6,7=101,11=2,16=1,25=1,30=1,74=-5/1,2,3;
 4//1;
 5/5=2,8=3,32=1,38=5/8;
 6/7=2,8=2,9=2,10=2,15=8,20=101,28=1/1,2;
 99/5=1,9=1/99;
 ----------
 Ca2HPO4_28
 ----------
 Symbolic Z-matrix:
 Charge =  0 Multiplicity = 1
 O                     1.5236   -0.13824   0. 
 O                     1.75265  -1.57147   0. 
 Ca                   -0.00082  -2.8052    0. 
 O                    -1.75237  -1.57122   0. 
 O                    -1.52289  -0.13825   0. 
 P                     0.        0.67183   0. 
 H                     0.00033   5.48494   0. 
 Ca                    0.00041   3.39475   0. 
 
                          Input orientation:                          
 ---------------------------------------------------------------------
 Center     Atomic     Atomic              Coordinates (Angstroms)
 Number     Number      Type              X           Y           Z
 ---------------------------------------------------------------------
    1          8             0        1.523600   -0.138238    0.000000
    2          8             0        1.752650   -1.571470    0.000000
    3         20             0       -0.000822   -2.805200    0.000000
    4          8             0       -1.752370   -1.571220    0.000000
    5          8             0       -1.522890   -0.138246    0.000000
    6         15             0        0.000000    0.671827    0.000000
    7          1             0        0.000331    5.484940    0.000000
    8         20             0        0.000409    3.394750    0.000000
 ---------------------------------------------------------------------
                    Distance matrix (angstroms):
                    1          2          3          4          5
     1  O    0.000000
     2  O    1.451419   0.000000
     3  Ca   3.071897   2.144004   0.000000
     4  O    3.575670   3.505020   2.142575   0.000000
     5  O    3.046490   3.575373   3.070722   1.451232   0.000000
     6  P    1.725561   2.846781   3.477027   2.846412   1.724938
     7  H    5.825846   7.270732   8.290140   7.270581   5.825841
     8  Ca   3.847352   5.266279   6.199950   5.266222   3.847402
                    6          7          8
     6  P    0.000000
     7  H    4.813113   0.000000
     8  Ca   2.722923   2.090190   0.000000
 Stoichiometry    Ca2HO4P
 Framework group  CS[SG(Ca2HO4P)]
 Deg. of freedom    13
 Full point group                 CS
 Largest Abelian subgroup         CS      NOp   2
 Largest concise Abelian subgroup C1      NOp   1
                         Standard orientation:                         
 ---------------------------------------------------------------------
 Center     Atomic     Atomic              Coordinates (Angstroms)
 Number     Number      Type              X           Y           Z
 ---------------------------------------------------------------------
    1          8             0        1.523600   -0.138237    0.000000
    2          8             0        1.752650   -1.571469    0.000000
    3         20             0       -0.000821   -2.805199    0.000000
    4          8             0       -1.752370   -1.571220    0.000000
    5          8             0       -1.522890   -0.138246    0.000000
    6         15             0        0.000000    0.671828    0.000000
    7          1             0        0.000330    5.484941    0.000000
    8         20             0        0.000409    3.394751    0.000000
 ---------------------------------------------------------------------
 Rotational constants (GHZ):      2.9301528      0.5622937      0.4717628
 Standard basis: 6-31G(d,p) (6D, 7F)
 There are    96 symmetry adapted basis functions of A'  symmetry.
 There are    34 symmetry adapted basis functions of A"  symmetry.
 Integral buffers will be    131072 words long.
 Raffenetti 2 integral format.
 Two-electron integral symmetry is turned on.
   130 basis functions,   323 primitive gaussians,   130 cartesian basis functions
    44 alpha electrons       44 beta electrons
       nuclear repulsion energy       563.6433925809 Hartrees.
 NAtoms=    8 NActive=    8 NUniq=    8 SFac= 7.50D-01 NAtFMM=   80 NAOKFM=F Big=F
 One-electron integrals computed using PRISM.
 NBasis=   130 RedAO= T  NBF=    96    34
 NBsUse=   130 1.00D-06 NBFU=    96    34
 Harris functional with IExCor=  402 diagonalized for initial guess.
 ExpMin= 2.60D-02 ExpMax= 3.53D+04 ExpMxC= 5.30D+03 IAcc=3 IRadAn=         5 AccDes= 0.00D+00
 HarFok:  IExCor= 402 AccDes= 0.00D+00 IRadAn=         5 IDoV=1
 ScaDFX=  1.000000  1.000000  1.000000  1.000000
 Initial guess orbital symmetries:
       Occupied  (A') (A') (A') (A') (A') (A') (A') (A') (A') (A')
                 (A') (A") (A') (A') (A") (A') (A') (A') (A") (A')
                 (A') (A') (A') (A') (A') (A") (A") (A') (A') (A')
                 (A') (A') (A') (A') (A") (A') (A") (A') (A') (A')
                 (A") (A") (A') (A")
       Virtual   (A') (A') (A') (A') (A') (A') (A") (A") (A') (A')
                 (A') (A') (A') (A') (A") (A') (A") (A') (A') (A")
                 (A') (A") (A') (A") (A") (A') (A') (A') (A') (A")
                 (A') (A') (A') (A') (A') (A") (A') (A") (A') (A')
                 (A') (A") (A') (A') (A") (A') (A') (A') (A') (A")
                 (A") (A') (A') (A') (A') (A') (A') (A") (A") (A')
                 (A') (A') (A") (A") (A') (A') (A") (A") (A') (A')
                 (A") (A') (A') (A') (A') (A") (A") (A') (A') (A')
                 (A') (A') (A') (A') (A') (A')
 The electronic state of the initial guess is 1-A'.
 Keep R1 integrals in memory in canonical form, NReq=    37576323.
 Gradient too large for Newton-Raphson -- use scaled steepest descent instead.
 Gradient too large for Newton-Raphson -- use scaled steepest descent instead.
 Gradient too large for Newton-Raphson -- use scaled steepest descent instead.
 Gradient too large for Newton-Raphson -- use scaled steepest descent instead.
 Gradient too large for Newton-Raphson -- use scaled steepest descent instead.
 Gradient too large for Newton-Raphson -- use scaled steepest descent instead.
 LinEq1:  Iter=  0 NonCon=   1 RMS=3.21D-04 Max=1.46D-02
 AX will form   1 AO Fock derivatives at one time.
 LinEq1:  Iter=  1 NonCon=   1 RMS=3.51D-04 Max=1.10D-02
 LinEq1:  Iter=  2 NonCon=   1 RMS=5.23D-05 Max=1.62D-03
 LinEq1:  Iter=  3 NonCon=   1 RMS=2.03D-05 Max=3.57D-04
 LinEq1:  Iter=  4 NonCon=   1 RMS=1.08D-05 Max=1.72D-04
 LinEq1:  Iter=  5 NonCon=   1 RMS=5.76D-06 Max=1.23D-04
 LinEq1:  Iter=  6 NonCon=   1 RMS=4.05D-06 Max=7.58D-05
 LinEq1:  Iter=  7 NonCon=   1 RMS=2.20D-06 Max=3.33D-05
 LinEq1:  Iter=  8 NonCon=   1 RMS=2.13D-06 Max=2.44D-05
 LinEq1:  Iter=  9 NonCon=   1 RMS=5.31D-07 Max=1.81D-05
 LinEq1:  Iter= 10 NonCon=   1 RMS=1.96D-07 Max=5.23D-06
 LinEq1:  Iter= 11 NonCon=   1 RMS=1.08D-07 Max=2.49D-06
 LinEq1:  Iter= 12 NonCon=   1 RMS=8.28D-08 Max=2.13D-06
 LinEq1:  Iter= 13 NonCon=   1 RMS=2.11D-08 Max=3.13D-07
 LinEq1:  Iter= 14 NonCon=   0 RMS=3.06D-09 Max=3.95D-08
 Linear equations converged to 8.699D-09 8.699D-08 after  14 iterations.
 LinEq1:  Iter=  0 NonCon=   1 RMS=7.77D-06 Max=3.30D-04
 LinEq1:  Iter=  1 NonCon=   1 RMS=5.56D-06 Max=1.49D-04
 LinEq1:  Iter=  2 NonCon=   1 RMS=2.94D-06 Max=1.04D-04
 LinEq1:  Iter=  3 NonCon=   1 RMS=2.25D-06 Max=6.26D-05
 LinEq1:  Iter=  4 NonCon=   1 RMS=1.36D-06 Max=3.48D-05
 LinEq1:  Iter=  5 NonCon=   1 RMS=8.74D-07 Max=1.43D-05
 LinEq1:  Iter=  6 NonCon=   1 RMS=2.67D-07 Max=4.46D-06
 LinEq1:  Iter=  7 NonCon=   1 RMS=7.55D-08 Max=2.30D-06
 LinEq1:  Iter=  8 NonCon=   1 RMS=4.21D-08 Max=7.56D-07
 LinEq1:  Iter=  9 NonCon=   1 RMS=4.04D-08 Max=8.79D-07
 LinEq1:  Iter= 10 NonCon=   1 RMS=1.52D-08 Max=2.12D-07
 LinEq1:  Iter= 11 NonCon=   1 RMS=1.46D-08 Max=2.41D-07
 LinEq1:  Iter= 12 NonCon=   1 RMS=5.85D-09 Max=1.44D-07
 LinEq1:  Iter= 13 NonCon=   0 RMS=7.22D-10 Max=7.65D-09
 Linear equations converged to 2.038D-09 2.038D-08 after  13 iterations.
 LinEq1:  Iter=  0 NonCon=   1 RMS=4.91D-09 Max=6.13D-08
 LinEq1:  Iter=  1 NonCon=   1 RMS=4.28D-09 Max=1.34D-07
 LinEq1:  Iter=  2 NonCon=   1 RMS=1.53D-09 Max=4.06D-08
 LinEq1:  Iter=  3 NonCon=   1 RMS=1.41D-09 Max=3.09D-08
 LinEq1:  Iter=  4 NonCon=   1 RMS=9.35D-10 Max=3.55D-08
 LinEq1:  Iter=  5 NonCon=   1 RMS=7.76D-10 Max=1.67D-08
 LinEq1:  Iter=  6 NonCon=   1 RMS=3.37D-10 Max=5.79D-09
 LinEq1:  Iter=  7 NonCon=   1 RMS=2.79D-10 Max=4.21D-09
 LinEq1:  Iter=  8 NonCon=   1 RMS=1.39D-10 Max=3.46D-09
 LinEq1:  Iter=  9 NonCon=   1 RMS=1.85D-10 Max=8.57D-09
 LinEq1:  Iter= 10 NonCon=   1 RMS=1.94D-10 Max=5.85D-09
 LinEq1:  Iter= 11 NonCon=   1 RMS=1.66D-10 Max=2.56D-09
 LinEq1:  Iter= 12 NonCon=   0 RMS=5.04D-11 Max=1.05D-09
 Linear equations converged to 1.351D-10 1.351D-09 after  12 iterations.
 SCF Done:  E(RB+HF-LYP) =  -1997.71013011     a.u. after   10 cycles
            Convg  =    0.8313D-06                    67 Fock formations.
              S**2 =  0.0000                  -V/T =  2.0029

 **********************************************************************

            Population analysis using the SCF density.

 **********************************************************************

 Orbital symmetries:
       Occupied  (A') (A') (A') (A') (A') (A') (A') (A') (A') (A")
                 (A') (A') (A') (A") (A') (A') (A') (A') (A") (A')
                 (A') (A") (A') (A') (A') (A") (A') (A') (A') (A')
                 (A') (A') (A') (A') (A") (A') (A") (A') (A') (A")
                 (A') (A') (A") (A")
       Virtual   (A') (A') (A') (A") (A") (A') (A') (A') (A') (A')
                 (A') (A') (A') (A") (A') (A") (A') (A') (A') (A")
                 (A') (A") (A") (A") (A') (A') (A') (A') (A') (A')
                 (A") (A') (A') (A') (A') (A') (A") (A") (A') (A')
                 (A') (A") (A') (A') (A") (A') (A') (A') (A') (A")
                 (A") (A') (A') (A') (A') (A') (A') (A") (A") (A')
                 (A') (A') (A") (A") (A') (A') (A") (A") (A') (A')
                 (A") (A') (A') (A') (A') (A") (A") (A') (A') (A')
                 (A') (A') (A') (A') (A') (A')
 The electronic state is 1-A'.
 Alpha  occ. eigenvalues -- -145.39965-145.38936 -77.07755 -19.14870 -19.14861
 Alpha  occ. eigenvalues --  -19.10878 -19.10870 -15.47038 -15.46199 -12.60245
 Alpha  occ. eigenvalues --  -12.60214 -12.60099 -12.59440 -12.59362 -12.59187
 Alpha  occ. eigenvalues --   -6.54148  -4.70756  -4.70318  -4.69697  -1.84464
 Alpha  occ. eigenvalues --   -1.83694  -1.12185  -1.12152  -1.11857  -1.11612
 Alpha  occ. eigenvalues --   -1.11267  -1.10249  -1.01104  -1.00048  -0.79091
 Alpha  occ. eigenvalues --   -0.76850  -0.52386  -0.43536  -0.37673  -0.35368
 Alpha  occ. eigenvalues --   -0.34031  -0.33172  -0.32782  -0.23199  -0.21688
 Alpha  occ. eigenvalues --   -0.21671  -0.20741  -0.18745  -0.10325
 Alpha virt. eigenvalues --   -0.10853  -0.04636  -0.03614  -0.02010  -0.00673
 Alpha virt. eigenvalues --   -0.00475   0.00260   0.02989   0.03550   0.05258
 Alpha virt. eigenvalues --    0.06143   0.09038   0.09918   0.10452   0.10658
 Alpha virt. eigenvalues --    0.12583   0.13891   0.15764   0.16002   0.18597
 Alpha virt. eigenvalues --    0.18642   0.19708   0.21247   0.21517   0.21927
 Alpha virt. eigenvalues --    0.27412   0.29183   0.33018   0.37187   0.40612
 Alpha virt. eigenvalues --    0.40710   0.41372   0.42911   0.43412   0.44274
 Alpha virt. eigenvalues --    0.67010   0.67880   0.72717   0.84218   0.84637
 Alpha virt. eigenvalues --    0.86562   0.95749   0.95989   0.97371   1.01015
 Alpha virt. eigenvalues --    1.05510   1.06008   1.06136   1.08949   1.13264
 Alpha virt. eigenvalues --    1.14294   1.21540   1.23400   1.32340   1.33544
 Alpha virt. eigenvalues --    1.37247   1.51413   1.58788   1.61657   1.63321
 Alpha virt. eigenvalues --    1.69976   1.74917   1.80202   1.80721   1.92182
 Alpha virt. eigenvalues --    1.95047   2.00344   2.00565   2.05586   2.06689
 Alpha virt. eigenvalues --    2.13363   2.13389   2.22687   2.24714   2.33264
 Alpha virt. eigenvalues --    2.41328   2.42296   2.56102   2.60583   3.10176
 Alpha virt. eigenvalues --    3.12013   3.53664   3.55230   3.60610   3.92248
 Alpha virt. eigenvalues --    3.97953
          Condensed to atoms (all electrons):
              1          2          3          4          5          6
     1  O    8.245386   0.047356  -0.016186  -0.000232  -0.004802   0.106759
     2  O    0.047356   8.295407   0.192975  -0.000272  -0.000233  -0.014163
     3  Ca  -0.016186   0.192975  18.400029   0.192882  -0.016184   0.026182
     4  O   -0.000232  -0.000272   0.192882   8.295626   0.047332  -0.014172
     5  O   -0.004802  -0.000233  -0.016184   0.047332   8.245279   0.106768
     6  P    0.106759  -0.014163   0.026182  -0.014172   0.106768  14.289446
     7  H    0.000000   0.000000   0.000273   0.000000   0.000000  -0.000923
     8  Ca  -0.006579  -0.000619   0.000978  -0.000618  -0.006600   0.299390
              7          8
     1  O    0.000000  -0.006579
     2  O    0.000000  -0.000619
     3  Ca   0.000273   0.000978
     4  O    0.000000  -0.000618
     5  O    0.000000  -0.006600
     6  P   -0.000923   0.299390
     7  H    0.944459   0.334988
     8  Ca   0.334988  18.735769
 Mulliken atomic charges:
              1
     1  O   -0.371702
     2  O   -0.520451
     3  Ca   1.219051
     4  O   -0.520545
     5  O   -0.371559
     6  P    0.200712
     7  H   -0.278798
     8  Ca   0.643291
 Sum of Mulliken charges=   0.00000
 Atomic charges with hydrogens summed into heavy atoms:
              1
     1  O   -0.371702
     2  O   -0.520451
     3  Ca   1.219051
     4  O   -0.520545
     5  O   -0.371559
     6  P    0.200712
     7  H    0.000000
     8  Ca   0.364493
 Sum of Mulliken charges=   0.00000
 Electronic spatial extent (au):  <R**2>=  2117.5416
 Charge=     0.0000 electrons
 Dipole moment (field-independent basis, Debye):
    X=    -0.0066    Y=    -9.9191    Z=     0.0000  Tot=     9.9191
 Quadrupole moment (field-independent basis, Debye-Ang):
   XX=   -84.6285   YY=   -47.8299   ZZ=   -70.0969
   XY=     0.0221   XZ=     0.0000   YZ=     0.0000
 Traceless Quadrupole moment (field-independent basis, Debye-Ang):
   XX=   -17.1101   YY=    19.6885   ZZ=    -2.5785
   XY=     0.0221   XZ=     0.0000   YZ=     0.0000
 Octapole moment (field-independent basis, Debye-Ang**2):
  XXX=    -0.0209  YYY=  -453.7234  ZZZ=     0.0000  XYY=    -0.0630
  XXY=    12.4427  XXZ=     0.0000  XZZ=    -0.0060  YZZ=   -28.7972
  YYZ=     0.0000  XYZ=     0.0000
 Hexadecapole moment (field-independent basis, Debye-Ang**3):
 XXXX=  -526.7090 YYYY= -3476.1623 ZZZZ=  -138.5675 XXXY=    -0.1128
 XXXZ=     0.0000 YYYX=    -0.0219 YYYZ=     0.0000 ZZZX=     0.0000
 ZZZY=     0.0000 XXYY=  -486.6843 XXZZ=  -102.0729 YYZZ=  -423.6502
 XXYZ=     0.0000 YYXZ=     0.0000 ZZXY=    -0.0424
 N-N= 5.636433925809D+02 E-N=-5.861301219940D+03  KE= 1.992005322947D+03
 Symmetry A'   KE= 1.797209875115D+03
 Symmetry A"   KE= 1.947954478319D+02
 Merz-Kollman atomic radii used.
 Read replacement radii for each type of atom:
 Rad(20) =   1.188000000000D+00
 Atom Element Radius
    1     8    1.40
    2     8    1.40
    3    20    1.19
    4     8    1.40
    5     8    1.40
    6    15    1.80
    7     1    1.20
    8    20    1.19

 **********************************************************************

            Electrostatic Properties Using The SCF Density

 **********************************************************************

       Atomic Center    1 is at   1.523600 -0.138237  0.000000
       Atomic Center    2 is at   1.752650 -1.571469  0.000000
       Atomic Center    3 is at  -0.000821 -2.805199  0.000000
       Atomic Center    4 is at  -1.752370 -1.571220  0.000000
       Atomic Center    5 is at  -1.522890 -0.138246  0.000000
       Atomic Center    6 is at   0.000000  0.671828  0.000000
       Atomic Center    7 is at   0.000330  5.484941  0.000000
       Atomic Center    8 is at   0.000409  3.394751  0.000000
     803 points will be used for fitting atomic charges
 Fitting point charges to eletrostatic potential
 Charges from ESP fit, RMS=   0.00967 RRMS=   0.14086:
 Charge=   0.00000 Dipole=    -0.0001    -9.7890     0.0000 Tot=     9.7890
              1
     1  O    0.137871
     2  O   -0.767552
     3  Ca   1.636154
     4  O   -0.773587
     5  O    0.144103
     6  P   -1.091210
     7  H   -0.728379
     8  Ca   1.442599
 -----------------------------------------------------------------

              Electrostatic Properties (Atomic Units)

 -----------------------------------------------------------------
    Center     Electric         -------- Electric Field --------
               Potential          X             Y             Z
 -----------------------------------------------------------------
    1 Atom    -22.317597
    2 Atom    -22.357697
    3 Atom    -80.142985
    4 Atom    -22.357615
    5 Atom    -22.317495
    6 Atom    -54.137798
    7 Atom     -1.202373
    8 Atom    -80.154106
 -----------------------------------------------------------------
 1\1\GINC-N041\SP\RB3LYP\6-31G(d,p)\Ca2H1O4P1\TIMN\04-May-2015\0\\# b3l
 yp/6-31G(d,p) pop=(ReadRadii,MK) scf=qc\\Ca2HPO4_28\\0,1\O,0,1.5236,-0
 .138238,0.\O,0,1.75265,-1.57147,0.\Ca,0,-0.000822,-2.8052,0.\O,0,-1.75
 237,-1.57122,0.\O,0,-1.52289,-0.138246,0.\P,0,0.,0.671827,0.\H,0,0.000
 331,5.48494,0.\Ca,0,0.000409,3.39475,0.\\Version=EM64T-G03RevE.01\Stat
 e=1-A'\HF=-1997.7101301\RMSD=0.000e+00\Thermal=0.\Dipole=-0.0026097,-3
 .9024634,0.\PG=CS [SG(Ca2H1O4P1)]\\@


 WHAT, THEN, IS TIME?  IF NO ONE ASKS ME, I KNOW WHAT IT IS.
 IF I WISH TO EXPLAIN WHAT IT IS TO HIM WHO ASKS ME, I DO NOT KNOW.
                                   -- ST. AUGUSTINE (FIFTH CENTURY)
 Job cpu time:  0 days  0 hours  1 minutes 44.2 seconds.
 File lengths (MBytes):  RWF=     17 Int=      0 D2E=      0 Chk=     10 Scr=      1
 Normal termination of Gaussian 03 at Mon May  4 21:03:12 2015.
