 Entering Gaussian System, Link 0=/home/timn/tmp/g03.e01/g03
 Input=Ca2HPO4_60.xyz.gjf
 Output=Ca2HPO4_60.xyz.out
 Initial command:
 /home/timn/tmp/g03.e01/l1.exe /home/timn/tmp/g03.e01/Gau-20228.inp -scrdir=/home/timn/tmp/g03.e01/
 Default is to use a total of   2 processors:
                                2 via shared-memory
                                1 via Linda
 Entering Link 1 = /home/timn/tmp/g03.e01/l1.exe PID=     20229.
  
 Copyright (c) 1988,1990,1992,1993,1995,1998,2003,2004,2007, Gaussian, Inc.
                  All Rights Reserved.
  
 This is the Gaussian(R) 03 program.  It is based on the
 the Gaussian(R) 98 system (copyright 1998, Gaussian, Inc.),
 the Gaussian(R) 94 system (copyright 1995, Gaussian, Inc.),
 the Gaussian 92(TM) system (copyright 1992, Gaussian, Inc.),
 the Gaussian 90(TM) system (copyright 1990, Gaussian, Inc.),
 the Gaussian 88(TM) system (copyright 1988, Gaussian, Inc.),
 the Gaussian 86(TM) system (copyright 1986, Carnegie Mellon
 University), and the Gaussian 82(TM) system (copyright 1983,
 Carnegie Mellon University). Gaussian is a federally registered
 trademark of Gaussian, Inc.
  
 This software contains proprietary and confidential information,
 including trade secrets, belonging to Gaussian, Inc.
  
 This software is provided under written license and may be
 used, copied, transmitted, or stored only in accord with that
 written license.
  
 The following legend is applicable only to US Government
 contracts under FAR:
  
                    RESTRICTED RIGHTS LEGEND
  
 Use, reproduction and disclosure by the US Government is
 subject to restrictions as set forth in subparagraphs (a)
 and (c) of the Commercial Computer Software - Restricted
 Rights clause in FAR 52.227-19.
  
 Gaussian, Inc.
 340 Quinnipiac St., Bldg. 40, Wallingford CT 06492
  
  
 ---------------------------------------------------------------
 Warning -- This program may not be used in any manner that
 competes with the business of Gaussian, Inc. or will provide
 assistance to any competitor of Gaussian, Inc.  The licensee
 of this program is prohibited from giving any competitor of
 Gaussian, Inc. access to this program.  By using this program,
 the user acknowledges that Gaussian, Inc. is engaged in the
 business of creating and licensing software in the field of
 computational chemistry and represents and warrants to the
 licensee that it is not a competitor of Gaussian, Inc. and that
 it will not use this program in any manner prohibited above.
 ---------------------------------------------------------------
  

 Cite this work as:
 Gaussian 03, Revision E.01,
 M. J. Frisch, G. W. Trucks, H. B. Schlegel, G. E. Scuseria, 
 M. A. Robb, J. R. Cheeseman, J. A. Montgomery, Jr., T. Vreven, 
 K. N. Kudin, J. C. Burant, J. M. Millam, S. S. Iyengar, J. Tomasi, 
 V. Barone, B. Mennucci, M. Cossi, G. Scalmani, N. Rega, 
 G. A. Petersson, H. Nakatsuji, M. Hada, M. Ehara, K. Toyota, 
 R. Fukuda, J. Hasegawa, M. Ishida, T. Nakajima, Y. Honda, O. Kitao, 
 H. Nakai, M. Klene, X. Li, J. E. Knox, H. P. Hratchian, J. B. Cross, 
 V. Bakken, C. Adamo, J. Jaramillo, R. Gomperts, R. E. Stratmann, 
 O. Yazyev, A. J. Austin, R. Cammi, C. Pomelli, J. W. Ochterski, 
 P. Y. Ayala, K. Morokuma, G. A. Voth, P. Salvador, J. J. Dannenberg, 
 V. G. Zakrzewski, S. Dapprich, A. D. Daniels, M. C. Strain, 
 O. Farkas, D. K. Malick, A. D. Rabuck, K. Raghavachari, 
 J. B. Foresman, J. V. Ortiz, Q. Cui, A. G. Baboul, S. Clifford, 
 J. Cioslowski, B. B. Stefanov, G. Liu, A. Liashenko, P. Piskorz, 
 I. Komaromi, R. L. Martin, D. J. Fox, T. Keith, M. A. Al-Laham, 
 C. Y. Peng, A. Nanayakkara, M. Challacombe, P. M. W. Gill, 
 B. Johnson, W. Chen, M. W. Wong, C. Gonzalez, and J. A. Pople, 
 Gaussian, Inc., Wallingford CT, 2004.
 
 ******************************************
 Gaussian 03:  EM64T-G03RevE.01 11-Sep-2007
                 4-May-2015 
 ******************************************
 %nproc=2
 Will use up to    2 processors via shared memory.
 Default route:  MP2=Direct MaxDisk=2000MB
 -------------------------------------
 # b3lyp/6-31G(d,p) pop=(ReadRadii,MK)
 -------------------------------------
 1/38=1/1;
 2/17=6,18=5,40=1/2;
 3/5=1,6=6,7=101,11=2,16=1,25=1,30=1,74=-5/1,2,3;
 4//1;
 5/5=2,32=1,38=5/2;
 6/7=2,8=2,9=2,10=2,15=8,20=101,28=1/1,2;
 99/5=1,9=1/99;
 ----------
 Ca2HPO4_60
 ----------
 Symbolic Z-matrix:
 Charge =  0 Multiplicity = 1
 O                     0.18352   2.43783   0.67899 
 H                     1.08784   2.77497   0.61679 
 O                     1.42285   0.74041  -0.81858 
 P                     0.09144   1.00432  -0.08187 
 O                    -1.22734   0.94898  -0.87046 
 Ca                   -1.97539  -1.05068   0.02465 
 O                    -0.02584  -0.17787   0.99599 
 Ca                    1.71114  -1.42105   0.01154 
 
                          Input orientation:                          
 ---------------------------------------------------------------------
 Center     Atomic     Atomic              Coordinates (Angstroms)
 Number     Number      Type              X           Y           Z
 ---------------------------------------------------------------------
    1          8             0        0.183520    2.437830    0.678991
    2          1             0        1.087840    2.774970    0.616791
    3          8             0        1.422850    0.740407   -0.818579
    4         15             0        0.091438    1.004320   -0.081873
    5          8             0       -1.227340    0.948983   -0.870461
    6         20             0       -1.975390   -1.050680    0.024648
    7          8             0       -0.025840   -0.177867    0.995985
    8         20             0        1.711140   -1.421050    0.011543
 ---------------------------------------------------------------------
                    Distance matrix (angstroms):
                    1          2          3          4          5
     1  O    0.000000
     2  H    0.967123   0.000000
     3  O    2.580678   2.512363   0.000000
     4  P    1.625529   2.148523   1.544359   0.000000
     5  O    2.570602   3.302454   2.658891   1.537566   0.000000
     6  Ca   4.154366   4.936558   3.932818   2.916530   2.315049
     7  O    2.643140   3.178572   2.496913   1.604088   2.489380
     8  Ca   4.203578   4.285022   2.333262   2.917975   3.876810
                    6          7          8
     6  Ca   0.000000
     7  O    2.346496   0.000000
     8  Ca   3.705111   2.351963   0.000000
 Stoichiometry    Ca2HO4P
 Framework group  C1[X(Ca2HO4P)]
 Deg. of freedom    18
 Full point group                 C1
 Largest Abelian subgroup         C1      NOp   1
 Largest concise Abelian subgroup C1      NOp   1
                         Standard orientation:                         
 ---------------------------------------------------------------------
 Center     Atomic     Atomic              Coordinates (Angstroms)
 Number     Number      Type              X           Y           Z
 ---------------------------------------------------------------------
    1          8             0        0.183517    2.437830    0.678991
    2          1             0        1.087836    2.774972    0.616791
    3          8             0        1.422850    0.740409   -0.818579
    4         15             0        0.091437    1.004320   -0.081873
    5          8             0       -1.227341    0.948981   -0.870461
    6         20             0       -1.975387   -1.050683    0.024648
    7          8             0       -0.025839   -0.177867    0.995985
    8         20             0        1.711143   -1.421047    0.011543
 ---------------------------------------------------------------------
 Rotational constants (GHZ):      1.5358184      1.3360052      0.8231243
 Standard basis: 6-31G(d,p) (6D, 7F)
 There are   130 symmetry adapted basis functions of A   symmetry.
 Integral buffers will be    131072 words long.
 Raffenetti 2 integral format.
 Two-electron integral symmetry is turned on.
   130 basis functions,   323 primitive gaussians,   130 cartesian basis functions
    44 alpha electrons       44 beta electrons
       nuclear repulsion energy       651.8722957620 Hartrees.
 NAtoms=    8 NActive=    8 NUniq=    8 SFac= 7.50D-01 NAtFMM=   80 NAOKFM=F Big=F
 One-electron integrals computed using PRISM.
 NBasis=   130 RedAO= T  NBF=   130
 NBsUse=   130 1.00D-06 NBFU=   130
 Harris functional with IExCor=  402 diagonalized for initial guess.
 ExpMin= 2.60D-02 ExpMax= 3.53D+04 ExpMxC= 5.30D+03 IAcc=3 IRadAn=         5 AccDes= 0.00D+00
 HarFok:  IExCor= 402 AccDes= 0.00D+00 IRadAn=         5 IDoV=1
 ScaDFX=  1.000000  1.000000  1.000000  1.000000
 Initial guess orbital symmetries:
       Occupied  (A) (A) (A) (A) (A) (A) (A) (A) (A) (A) (A) (A)
                 (A) (A) (A) (A) (A) (A) (A) (A) (A) (A) (A) (A)
                 (A) (A) (A) (A) (A) (A) (A) (A) (A) (A) (A) (A)
                 (A) (A) (A) (A) (A) (A) (A) (A)
       Virtual   (A) (A) (A) (A) (A) (A) (A) (A) (A) (A) (A) (A)
                 (A) (A) (A) (A) (A) (A) (A) (A) (A) (A) (A) (A)
                 (A) (A) (A) (A) (A) (A) (A) (A) (A) (A) (A) (A)
                 (A) (A) (A) (A) (A) (A) (A) (A) (A) (A) (A) (A)
                 (A) (A) (A) (A) (A) (A) (A) (A) (A) (A) (A) (A)
                 (A) (A) (A) (A) (A) (A) (A) (A) (A) (A) (A) (A)
                 (A) (A) (A) (A) (A) (A) (A) (A) (A) (A) (A) (A)
                 (A) (A)
 The electronic state of the initial guess is 1-A.
 Requested convergence on RMS density matrix=1.00D-04 within 128 cycles.
 Requested convergence on MAX density matrix=1.00D-02.
 Requested convergence on             energy=1.00D-02.
 No special actions if energy rises.
 Keep R1 integrals in memory in canonical form, NReq=    38354117.
 SCF Done:  E(RB+HF-LYP) =  -1998.17688075     A.U. after    8 cycles
             Convg  =    0.8220D-04             -V/T =  2.0030
             S**2   =   0.0000

 **********************************************************************

            Population analysis using the SCF density.

 **********************************************************************

 Orbital symmetries:
       Occupied  (A) (A) (A) (A) (A) (A) (A) (A) (A) (A) (A) (A)
                 (A) (A) (A) (A) (A) (A) (A) (A) (A) (A) (A) (A)
                 (A) (A) (A) (A) (A) (A) (A) (A) (A) (A) (A) (A)
                 (A) (A) (A) (A) (A) (A) (A) (A)
       Virtual   (A) (A) (A) (A) (A) (A) (A) (A) (A) (A) (A) (A)
                 (A) (A) (A) (A) (A) (A) (A) (A) (A) (A) (A) (A)
                 (A) (A) (A) (A) (A) (A) (A) (A) (A) (A) (A) (A)
                 (A) (A) (A) (A) (A) (A) (A) (A) (A) (A) (A) (A)
                 (A) (A) (A) (A) (A) (A) (A) (A) (A) (A) (A) (A)
                 (A) (A) (A) (A) (A) (A) (A) (A) (A) (A) (A) (A)
                 (A) (A) (A) (A) (A) (A) (A) (A) (A) (A) (A) (A)
                 (A) (A)
 The electronic state is 1-A.
 Alpha  occ. eigenvalues -- -145.38750-145.38698 -77.20456 -19.15937 -19.11123
 Alpha  occ. eigenvalues --  -19.10017 -19.09701 -15.45849 -15.45801 -12.59058
 Alpha  occ. eigenvalues --  -12.59009 -12.58996 -12.58947 -12.58926 -12.58876
 Alpha  occ. eigenvalues --   -6.64933  -4.81374  -4.81264  -4.81165  -1.83139
 Alpha  occ. eigenvalues --   -1.83089  -1.11234  -1.10737  -1.10701  -1.10491
 Alpha  occ. eigenvalues --   -1.10403  -1.10365  -1.04231  -0.97438  -0.92347
 Alpha  occ. eigenvalues --   -0.91618  -0.57044  -0.47075  -0.42595  -0.41696
 Alpha  occ. eigenvalues --   -0.38388  -0.34034  -0.33734  -0.32737  -0.30557
 Alpha  occ. eigenvalues --   -0.27885  -0.27104  -0.26010  -0.14241
 Alpha virt. eigenvalues --   -0.09490  -0.04075  -0.02310  -0.01207  -0.00415
 Alpha virt. eigenvalues --   -0.00037   0.02845   0.05074   0.08060   0.08986
 Alpha virt. eigenvalues --    0.09915   0.11715   0.13358   0.13748   0.14191
 Alpha virt. eigenvalues --    0.14924   0.15600   0.17730   0.18774   0.19163
 Alpha virt. eigenvalues --    0.19319   0.20351   0.22473   0.22674   0.24650
 Alpha virt. eigenvalues --    0.28144   0.30505   0.33372   0.36953   0.38774
 Alpha virt. eigenvalues --    0.38960   0.40536   0.42754   0.48726   0.50748
 Alpha virt. eigenvalues --    0.53492   0.69528   0.73518   0.79609   0.90207
 Alpha virt. eigenvalues --    0.91344   0.94267   0.96614   1.01792   1.04598
 Alpha virt. eigenvalues --    1.07857   1.10305   1.15210   1.19256   1.19328
 Alpha virt. eigenvalues --    1.20914   1.22580   1.25839   1.29376   1.40009
 Alpha virt. eigenvalues --    1.41672   1.48512   1.58840   1.64801   1.69595
 Alpha virt. eigenvalues --    1.77836   1.81629   1.83618   1.84616   1.86582
 Alpha virt. eigenvalues --    1.89989   1.90330   1.92663   2.04438   2.10302
 Alpha virt. eigenvalues --    2.14576   2.24010   2.24992   2.34689   2.50581
 Alpha virt. eigenvalues --    2.63620   2.68431   2.71941   2.80686   2.83329
 Alpha virt. eigenvalues --    3.37802   3.54964   3.78877   3.82363   3.89270
 Alpha virt. eigenvalues --    4.01954
          Condensed to atoms (all electrons):
              1          2          3          4          5          6
     1  O    8.075264   0.292468  -0.035153   0.267565  -0.032861   0.008373
     2  H    0.292468   0.374120   0.001816  -0.006238   0.001052  -0.003574
     3  O   -0.035153   0.001816   8.319709   0.365733  -0.026045  -0.013352
     4  P    0.267565  -0.006238   0.365733  12.551138   0.376895  -0.022838
     5  O   -0.032861   0.001052  -0.026045   0.376895   8.284981   0.147425
     6  Ca   0.008373  -0.003574  -0.013352  -0.022838   0.147425  19.030263
     7  O   -0.027761  -0.000001  -0.046948   0.231985  -0.050216   0.088889
     8  Ca  -0.001789   0.001993   0.143330  -0.019834  -0.013702   0.177391
              7          8
     1  O   -0.027761  -0.001789
     2  H   -0.000001   0.001993
     3  O   -0.046948   0.143330
     4  P    0.231985  -0.019834
     5  O   -0.050216  -0.013702
     6  Ca   0.088889   0.177391
     7  O    8.509853   0.086700
     8  Ca   0.086700  19.072061
 Mulliken atomic charges:
              1
     1  O   -0.546107
     2  H    0.338363
     3  O   -0.709091
     4  P    1.255595
     5  O   -0.687531
     6  Ca   0.587422
     7  O   -0.792501
     8  Ca   0.553850
 Sum of Mulliken charges=   0.00000
 Atomic charges with hydrogens summed into heavy atoms:
              1
     1  O   -0.207744
     2  H    0.000000
     3  O   -0.709091
     4  P    1.255595
     5  O   -0.687531
     6  Ca   0.587422
     7  O   -0.792501
     8  Ca   0.553850
 Sum of Mulliken charges=   0.00000
 Electronic spatial extent (au):  <R**2>=  1353.8806
 Charge=     0.0000 electrons
 Dipole moment (field-independent basis, Debye):
    X=     0.7059    Y=    -2.5049    Z=     1.8025  Tot=     3.1657
 Quadrupole moment (field-independent basis, Debye-Ang):
   XX=   -55.1626   YY=   -79.9866   ZZ=   -78.4267
   XY=     2.5177   XZ=     1.1040   YZ=     2.6673
 Traceless Quadrupole moment (field-independent basis, Debye-Ang):
   XX=    16.0294   YY=    -8.7946   ZZ=    -7.2348
   XY=     2.5177   XZ=     1.1040   YZ=     2.6673
 Octapole moment (field-independent basis, Debye-Ang**2):
  XXX=    -2.8036  YYY=    97.6543  ZZZ=     2.9471  XYY=    22.2064
  XXY=     7.2450  XXZ=    14.3696  XZZ=     1.7853  YZZ=    15.8703
  YYZ=     4.3995  XYZ=     2.4733
 Hexadecapole moment (field-independent basis, Debye-Ang**3):
 XXXX=  -940.7885 YYYY= -1070.7457 ZZZZ=  -264.3983 XXXY=    -6.4205
 XXXZ=     3.6595 YYYX=    41.3185 YYYZ=    -0.0209 ZZZX=     0.7281
 ZZZY=     2.4230 XXYY=  -345.1126 XXZZ=  -212.3651 YYZZ=  -217.7060
 XXYZ=    11.0064 YYXZ=     7.8198 ZZXY=     1.4147
 N-N= 6.518722957620D+02 E-N=-6.036089500567D+03  KE= 1.992217747819D+03
 Merz-Kollman atomic radii used.
 Read replacement radii for each type of atom:
 Rad(20) =   1.188000000000D+00
 Atom Element Radius
    1     8    1.40
    2     1    1.20
    3     8    1.40
    4    15    1.80
    5     8    1.40
    6    20    1.19
    7     8    1.40
    8    20    1.19

 **********************************************************************

            Electrostatic Properties Using The SCF Density

 **********************************************************************

       Atomic Center    1 is at   0.183517  2.437830  0.678991
       Atomic Center    2 is at   1.087836  2.774972  0.616791
       Atomic Center    3 is at   1.422850  0.740409 -0.818579
       Atomic Center    4 is at   0.091437  1.004320 -0.081873
       Atomic Center    5 is at  -1.227341  0.948981 -0.870461
       Atomic Center    6 is at  -1.975387 -1.050683  0.024648
       Atomic Center    7 is at  -0.025839 -0.177867  0.995985
       Atomic Center    8 is at   1.711143 -1.421047  0.011543
     633 points will be used for fitting atomic charges
 Fitting point charges to eletrostatic potential
 Charges from ESP fit, RMS=   0.03368 RRMS=   0.55913:
 Charge=   0.00000 Dipole=    -0.0167    -9.4406     0.8925 Tot=     9.4827
              1
     1  O   -0.681164
     2  H    0.317726
     3  O   -0.816126
     4  P    1.582513
     5  O   -0.823716
     6  Ca   0.645368
     7  O   -0.829382
     8  Ca   0.604782
 -----------------------------------------------------------------

              Electrostatic Properties (Atomic Units)

 -----------------------------------------------------------------
    Center     Electric         -------- Electric Field --------
               Potential          X             Y             Z
 -----------------------------------------------------------------
    1 Atom    -22.300379
    2 Atom     -0.979485
    3 Atom    -22.365195
    4 Atom    -54.000266
    5 Atom    -22.368665
    6 Atom    -80.156847
    7 Atom    -22.352928
    8 Atom    -80.156357
 -----------------------------------------------------------------
 1\1\GINC-N036\SP\RB3LYP\6-31G(d,p)\Ca2H1O4P1\TIMN\04-May-2015\0\\# b3l
 yp/6-31G(d,p) pop=(ReadRadii,MK)\\Ca2HPO4_60\\0,1\O,0,0.18352,2.43783,
 0.678991\H,0,1.08784,2.77497,0.616791\O,0,1.42285,0.740407,-0.818579\P
 ,0,0.091438,1.00432,-0.081873\O,0,-1.22734,0.948983,-0.870461\Ca,0,-1.
 97539,-1.05068,0.024648\O,0,-0.02584,-0.177867,0.995985\Ca,0,1.71114,-
 1.42105,0.011543\\Version=EM64T-G03RevE.01\State=1-A\HF=-1998.1768808\
 RMSD=8.220e-05\Thermal=0.\Dipole=0.2777345,-0.9855112,0.7091409\PG=C01
  [X(Ca2H1O4P1)]\\@


 EDUCATION DOESN'T COST 
           ... IT PAYS!

 -- POSTMARK, UNIV. OF MISSISSIPPI, DEC 78
 Job cpu time:  0 days  0 hours  0 minutes 20.6 seconds.
 File lengths (MBytes):  RWF=     21 Int=      0 D2E=      0 Chk=     10 Scr=      1
 Normal termination of Gaussian 03 at Mon May  4 20:08:40 2015.
