 Entering Gaussian System, Link 0=/home/timn/tmp/g03.e01/g03
 Input=Ca2HPO4_32.xyz.gjf
 Output=Ca2HPO4_32.xyz.out
 Initial command:
 /home/timn/tmp/g03.e01/l1.exe /home/timn/tmp/g03.e01/Gau-12421.inp -scrdir=/home/timn/tmp/g03.e01/
 Default is to use a total of   2 processors:
                                2 via shared-memory
                                1 via Linda
 Entering Link 1 = /home/timn/tmp/g03.e01/l1.exe PID=     12422.
  
 Copyright (c) 1988,1990,1992,1993,1995,1998,2003,2004,2007, Gaussian, Inc.
                  All Rights Reserved.
  
 This is the Gaussian(R) 03 program.  It is based on the
 the Gaussian(R) 98 system (copyright 1998, Gaussian, Inc.),
 the Gaussian(R) 94 system (copyright 1995, Gaussian, Inc.),
 the Gaussian 92(TM) system (copyright 1992, Gaussian, Inc.),
 the Gaussian 90(TM) system (copyright 1990, Gaussian, Inc.),
 the Gaussian 88(TM) system (copyright 1988, Gaussian, Inc.),
 the Gaussian 86(TM) system (copyright 1986, Carnegie Mellon
 University), and the Gaussian 82(TM) system (copyright 1983,
 Carnegie Mellon University). Gaussian is a federally registered
 trademark of Gaussian, Inc.
  
 This software contains proprietary and confidential information,
 including trade secrets, belonging to Gaussian, Inc.
  
 This software is provided under written license and may be
 used, copied, transmitted, or stored only in accord with that
 written license.
  
 The following legend is applicable only to US Government
 contracts under FAR:
  
                    RESTRICTED RIGHTS LEGEND
  
 Use, reproduction and disclosure by the US Government is
 subject to restrictions as set forth in subparagraphs (a)
 and (c) of the Commercial Computer Software - Restricted
 Rights clause in FAR 52.227-19.
  
 Gaussian, Inc.
 340 Quinnipiac St., Bldg. 40, Wallingford CT 06492
  
  
 ---------------------------------------------------------------
 Warning -- This program may not be used in any manner that
 competes with the business of Gaussian, Inc. or will provide
 assistance to any competitor of Gaussian, Inc.  The licensee
 of this program is prohibited from giving any competitor of
 Gaussian, Inc. access to this program.  By using this program,
 the user acknowledges that Gaussian, Inc. is engaged in the
 business of creating and licensing software in the field of
 computational chemistry and represents and warrants to the
 licensee that it is not a competitor of Gaussian, Inc. and that
 it will not use this program in any manner prohibited above.
 ---------------------------------------------------------------
  

 Cite this work as:
 Gaussian 03, Revision E.01,
 M. J. Frisch, G. W. Trucks, H. B. Schlegel, G. E. Scuseria, 
 M. A. Robb, J. R. Cheeseman, J. A. Montgomery, Jr., T. Vreven, 
 K. N. Kudin, J. C. Burant, J. M. Millam, S. S. Iyengar, J. Tomasi, 
 V. Barone, B. Mennucci, M. Cossi, G. Scalmani, N. Rega, 
 G. A. Petersson, H. Nakatsuji, M. Hada, M. Ehara, K. Toyota, 
 R. Fukuda, J. Hasegawa, M. Ishida, T. Nakajima, Y. Honda, O. Kitao, 
 H. Nakai, M. Klene, X. Li, J. E. Knox, H. P. Hratchian, J. B. Cross, 
 V. Bakken, C. Adamo, J. Jaramillo, R. Gomperts, R. E. Stratmann, 
 O. Yazyev, A. J. Austin, R. Cammi, C. Pomelli, J. W. Ochterski, 
 P. Y. Ayala, K. Morokuma, G. A. Voth, P. Salvador, J. J. Dannenberg, 
 V. G. Zakrzewski, S. Dapprich, A. D. Daniels, M. C. Strain, 
 O. Farkas, D. K. Malick, A. D. Rabuck, K. Raghavachari, 
 J. B. Foresman, J. V. Ortiz, Q. Cui, A. G. Baboul, S. Clifford, 
 J. Cioslowski, B. B. Stefanov, G. Liu, A. Liashenko, P. Piskorz, 
 I. Komaromi, R. L. Martin, D. J. Fox, T. Keith, M. A. Al-Laham, 
 C. Y. Peng, A. Nanayakkara, M. Challacombe, P. M. W. Gill, 
 B. Johnson, W. Chen, M. W. Wong, C. Gonzalez, and J. A. Pople, 
 Gaussian, Inc., Wallingford CT, 2004.
 
 ******************************************
 Gaussian 03:  EM64T-G03RevE.01 11-Sep-2007
                 4-May-2015 
 ******************************************
 %nproc=2
 Will use up to    2 processors via shared memory.
 Default route:  MP2=Direct MaxDisk=2000MB
 -------------------------------------
 # b3lyp/6-31G(d,p) pop=(ReadRadii,MK)
 -------------------------------------
 1/38=1/1;
 2/17=6,18=5,40=1/2;
 3/5=1,6=6,7=101,11=2,16=1,25=1,30=1,74=-5/1,2,3;
 4//1;
 5/5=2,32=1,38=5/2;
 6/7=2,8=2,9=2,10=2,15=8,20=101,28=1/1,2;
 99/5=1,9=1/99;
 ----------
 Ca2HPO4_32
 ----------
 Symbolic Z-matrix:
 Charge =  0 Multiplicity = 1
 O                    -1.94936   0.4835    0.10524 
 O                    -3.11614  -0.43088  -0.18386 
 P                    -1.50479  -1.17584   0.08271 
 H                    -1.33093  -1.45147  -1.31703 
 O                     0.3665   -0.61884  -0.19156 
 O                     0.90983   0.01955   1.08706 
 Ca                    2.72311  -0.54312  -0.18751 
 Ca                   -0.01231   1.71624  -0.13543 
 
                          Input orientation:                          
 ---------------------------------------------------------------------
 Center     Atomic     Atomic              Coordinates (Angstroms)
 Number     Number      Type              X           Y           Z
 ---------------------------------------------------------------------
    1          8             0       -1.949360    0.483499    0.105243
    2          8             0       -3.116140   -0.430881   -0.183855
    3         15             0       -1.504790   -1.175840    0.082714
    4          1             0       -1.330930   -1.451470   -1.317030
    5          8             0        0.366504   -0.618842   -0.191559
    6          8             0        0.909834    0.019554    1.087060
    7         20             0        2.723110   -0.543116   -0.187506
    8         20             0       -0.012312    1.716240   -0.135434
 ---------------------------------------------------------------------
                    Distance matrix (angstroms):
                    1          2          3          4          5
     1  O    0.000000
     2  O    1.510313   0.000000
     3  P    1.718009   1.795124   0.000000
     4  H    2.479803   2.347906   1.437179   0.000000
     5  O    2.581951   3.487721   1.971602   2.200281   0.000000
     6  O    3.058464   4.245772   2.875428   3.600637   1.528929
     7  Ca   4.792871   5.840330   4.283515   4.305365   2.357826
     8  Ca   2.308621   3.774417   3.261780   3.628954   2.366275
                    6          7          8
     6  O    0.000000
     7  Ca   2.286719   0.000000
     8  Ca   2.285517   3.548230   0.000000
 Stoichiometry    Ca2HO4P
 Framework group  C1[X(Ca2HO4P)]
 Deg. of freedom    18
 Full point group                 C1
 Largest Abelian subgroup         C1      NOp   1
 Largest concise Abelian subgroup C1      NOp   1
                         Standard orientation:                         
 ---------------------------------------------------------------------
 Center     Atomic     Atomic              Coordinates (Angstroms)
 Number     Number      Type              X           Y           Z
 ---------------------------------------------------------------------
    1          8             0       -1.949359    0.483499    0.105243
    2          8             0       -3.116139   -0.430881   -0.183855
    3         15             0       -1.504789   -1.175840    0.082714
    4          1             0       -1.330929   -1.451470   -1.317030
    5          8             0        0.366505   -0.618843   -0.191559
    6          8             0        0.909835    0.019553    1.087060
    7         20             0        2.723111   -0.543117   -0.187506
    8         20             0       -0.012310    1.716239   -0.135434
 ---------------------------------------------------------------------
 Rotational constants (GHZ):      2.3886911      0.8098790      0.6421067
 Standard basis: 6-31G(d,p) (6D, 7F)
 There are   130 symmetry adapted basis functions of A   symmetry.
 Integral buffers will be    131072 words long.
 Raffenetti 2 integral format.
 Two-electron integral symmetry is turned on.
   130 basis functions,   323 primitive gaussians,   130 cartesian basis functions
    44 alpha electrons       44 beta electrons
       nuclear repulsion energy       613.0084217434 Hartrees.
 NAtoms=    8 NActive=    8 NUniq=    8 SFac= 7.50D-01 NAtFMM=   80 NAOKFM=F Big=F
 One-electron integrals computed using PRISM.
 NBasis=   130 RedAO= T  NBF=   130
 NBsUse=   130 1.00D-06 NBFU=   130
 Harris functional with IExCor=  402 diagonalized for initial guess.
 ExpMin= 2.60D-02 ExpMax= 3.53D+04 ExpMxC= 5.30D+03 IAcc=3 IRadAn=         5 AccDes= 0.00D+00
 HarFok:  IExCor= 402 AccDes= 0.00D+00 IRadAn=         5 IDoV=1
 ScaDFX=  1.000000  1.000000  1.000000  1.000000
 Initial guess orbital symmetries:
       Occupied  (A) (A) (A) (A) (A) (A) (A) (A) (A) (A) (A) (A)
                 (A) (A) (A) (A) (A) (A) (A) (A) (A) (A) (A) (A)
                 (A) (A) (A) (A) (A) (A) (A) (A) (A) (A) (A) (A)
                 (A) (A) (A) (A) (A) (A) (A) (A)
       Virtual   (A) (A) (A) (A) (A) (A) (A) (A) (A) (A) (A) (A)
                 (A) (A) (A) (A) (A) (A) (A) (A) (A) (A) (A) (A)
                 (A) (A) (A) (A) (A) (A) (A) (A) (A) (A) (A) (A)
                 (A) (A) (A) (A) (A) (A) (A) (A) (A) (A) (A) (A)
                 (A) (A) (A) (A) (A) (A) (A) (A) (A) (A) (A) (A)
                 (A) (A) (A) (A) (A) (A) (A) (A) (A) (A) (A) (A)
                 (A) (A) (A) (A) (A) (A) (A) (A) (A) (A) (A) (A)
                 (A) (A)
 The electronic state of the initial guess is 1-A.
 Requested convergence on RMS density matrix=1.00D-04 within 128 cycles.
 Requested convergence on MAX density matrix=1.00D-02.
 Requested convergence on             energy=1.00D-02.
 No special actions if energy rises.
 Keep R1 integrals in memory in canonical form, NReq=    38353978.
 EnCoef did     2 forward-backward iterations
 EnCoef did     1 forward-backward iterations
 SCF Done:  E(RB+HF-LYP) =  -1997.84078988     A.U. after   12 cycles
             Convg  =    0.8921D-04             -V/T =  2.0029
             S**2   =   0.0000

 **********************************************************************

            Population analysis using the SCF density.

 **********************************************************************

 Orbital symmetries:
       Occupied  (A) (A) (A) (A) (A) (A) (A) (A) (A) (A) (A) (A)
                 (A) (A) (A) (A) (A) (A) (A) (A) (A) (A) (A) (A)
                 (A) (A) (A) (A) (A) (A) (A) (A) (A) (A) (A) (A)
                 (A) (A) (A) (A) (A) (A) (A) (A)
       Virtual   (A) (A) (A) (A) (A) (A) (A) (A) (A) (A) (A) (A)
                 (A) (A) (A) (A) (A) (A) (A) (A) (A) (A) (A) (A)
                 (A) (A) (A) (A) (A) (A) (A) (A) (A) (A) (A) (A)
                 (A) (A) (A) (A) (A) (A) (A) (A) (A) (A) (A) (A)
                 (A) (A) (A) (A) (A) (A) (A) (A) (A) (A) (A) (A)
                 (A) (A) (A) (A) (A) (A) (A) (A) (A) (A) (A) (A)
                 (A) (A) (A) (A) (A) (A) (A) (A) (A) (A) (A) (A)
                 (A) (A)
 The electronic state is 1-A.
 Alpha  occ. eigenvalues -- -145.39168-145.38656 -77.14516 -19.19371 -19.17557
 Alpha  occ. eigenvalues --  -19.16519 -19.14097 -15.46252 -15.45771 -12.59451
 Alpha  occ. eigenvalues --  -12.59391 -12.59359 -12.58965 -12.58932 -12.58834
 Alpha  occ. eigenvalues --   -6.60071  -4.76471  -4.76349  -4.75743  -1.83593
 Alpha  occ. eigenvalues --   -1.83058  -1.12233  -1.11528  -1.11123  -1.10568
 Alpha  occ. eigenvalues --   -1.10519  -1.10309  -1.08164  -1.00539  -0.82283
 Alpha  occ. eigenvalues --   -0.80067  -0.59773  -0.45806  -0.43196  -0.41463
 Alpha  occ. eigenvalues --   -0.39695  -0.38863  -0.36419  -0.30146  -0.26609
 Alpha  occ. eigenvalues --   -0.25310  -0.23720  -0.22736  -0.14546
 Alpha virt. eigenvalues --   -0.09638  -0.04390  -0.03912  -0.01369  -0.00696
 Alpha virt. eigenvalues --   -0.00519   0.00923   0.01980   0.02688   0.04572
 Alpha virt. eigenvalues --    0.05128   0.07171   0.09209   0.09602   0.10902
 Alpha virt. eigenvalues --    0.12353   0.13292   0.14272   0.16092   0.17952
 Alpha virt. eigenvalues --    0.18429   0.19161   0.19901   0.21257   0.23743
 Alpha virt. eigenvalues --    0.28377   0.29845   0.32502   0.33049   0.34409
 Alpha virt. eigenvalues --    0.35568   0.38625   0.40839   0.41997   0.51112
 Alpha virt. eigenvalues --    0.53781   0.61873   0.64630   0.72148   0.76215
 Alpha virt. eigenvalues --    0.80927   0.91881   0.94677   0.95910   1.00320
 Alpha virt. eigenvalues --    1.04733   1.05798   1.07471   1.10890   1.16946
 Alpha virt. eigenvalues --    1.18049   1.21839   1.32103   1.33083   1.42464
 Alpha virt. eigenvalues --    1.43835   1.47880   1.54038   1.56525   1.57992
 Alpha virt. eigenvalues --    1.66985   1.67945   1.81549   1.83354   1.87706
 Alpha virt. eigenvalues --    1.88109   1.89371   1.91355   1.95476   2.04506
 Alpha virt. eigenvalues --    2.10375   2.15346   2.19127   2.30495   2.30733
 Alpha virt. eigenvalues --    2.32922   2.40979   2.52572   2.72680   3.06525
 Alpha virt. eigenvalues --    3.08667   3.60376   3.69209   3.72991   3.86881
 Alpha virt. eigenvalues --    3.91212
          Condensed to atoms (all electrons):
              1          2          3          4          5          6
     1  O    8.370638  -0.014052   0.120113  -0.008393  -0.032680   0.001081
     2  O   -0.014052   8.305572   0.101935  -0.030728   0.003280  -0.000016
     3  P    0.120113   0.101935  13.674758   0.245514   0.025770  -0.009232
     4  H   -0.008393  -0.030728   0.245514   0.893253  -0.023019   0.001641
     5  O   -0.032680   0.003280   0.025770  -0.023019   8.528535  -0.018218
     6  O    0.001081  -0.000016  -0.009232   0.001641  -0.018218   8.390703
     7  Ca  -0.006250  -0.001047   0.002514   0.004751   0.036105   0.077327
     8  Ca   0.096227   0.003501   0.002922   0.001088   0.048082   0.083518
              7          8
     1  O   -0.006250   0.096227
     2  O   -0.001047   0.003501
     3  P    0.002514   0.002922
     4  H    0.004751   0.001088
     5  O    0.036105   0.048082
     6  O    0.077327   0.083518
     7  Ca  19.150658   0.198503
     8  Ca   0.198503  18.865410
 Mulliken atomic charges:
              1
     1  O   -0.526686
     2  O   -0.368445
     3  P    0.835706
     4  H   -0.084107
     5  O   -0.567856
     6  O   -0.526803
     7  Ca   0.537441
     8  Ca   0.700750
 Sum of Mulliken charges=   0.00000
 Atomic charges with hydrogens summed into heavy atoms:
              1
     1  O   -0.526686
     2  O   -0.368445
     3  P    0.751599
     4  H    0.000000
     5  O   -0.567856
     6  O   -0.526803
     7  Ca   0.537441
     8  Ca   0.700750
 Sum of Mulliken charges=   0.00000
 Electronic spatial extent (au):  <R**2>=  1620.4576
 Charge=     0.0000 electrons
 Dipole moment (field-independent basis, Debye):
    X=     3.2319    Y=     1.5783    Z=    -0.6171  Tot=     3.6493
 Quadrupole moment (field-independent basis, Debye-Ang):
   XX=   -84.3898   YY=   -64.0253   ZZ=   -76.6504
   XY=    -9.4929   XZ=     3.3013   YZ=     2.7591
 Traceless Quadrupole moment (field-independent basis, Debye-Ang):
   XX=    -9.3680   YY=    10.9965   ZZ=    -1.6285
   XY=    -9.4929   XZ=     3.3013   YZ=     2.7591
 Octapole moment (field-independent basis, Debye-Ang**2):
  XXX=   -24.6569  YYY=   -10.0893  ZZZ=    16.2166  XYY=   -30.5055
  XXY=   -26.4499  XXZ=    18.7164  XZZ=   -24.9434  YZZ=    -3.3938
  YYZ=     7.9968  XYZ=     0.4860
 Hexadecapole moment (field-independent basis, Debye-Ang**3):
 XXXX= -1993.6163 YYYY=  -673.3998 ZZZZ=  -236.1677 XXXY=   -56.4647
 XXXZ=    79.9901 YYYX=   -50.5752 YYYZ=    29.2560 ZZZX=    41.1632
 ZZZY=    15.4257 XXYY=  -409.7230 XXZZ=  -352.9302 YYZZ=  -153.6738
 XXYZ=     6.6954 YYXZ=    23.1861 ZZXY=   -12.6478
 N-N= 6.130084217434D+02 E-N=-5.958096642035D+03  KE= 1.992044972855D+03
 Merz-Kollman atomic radii used.
 Read replacement radii for each type of atom:
 Rad(20) =   1.188000000000D+00
 Atom Element Radius
    1     8    1.40
    2     8    1.40
    3    15    1.80
    4     1    1.20
    5     8    1.40
    6     8    1.40
    7    20    1.19
    8    20    1.19

 **********************************************************************

            Electrostatic Properties Using The SCF Density

 **********************************************************************

       Atomic Center    1 is at  -1.949359  0.483499  0.105243
       Atomic Center    2 is at  -3.116139 -0.430881 -0.183855
       Atomic Center    3 is at  -1.504789 -1.175840  0.082714
       Atomic Center    4 is at  -1.330929 -1.451470 -1.317030
       Atomic Center    5 is at   0.366505 -0.618843 -0.191559
       Atomic Center    6 is at   0.909835  0.019553  1.087060
       Atomic Center    7 is at   2.723111 -0.543117 -0.187506
       Atomic Center    8 is at  -0.012310  1.716239 -0.135434
     688 points will be used for fitting atomic charges
 Fitting point charges to eletrostatic potential
 Charges from ESP fit, RMS=   0.03131 RRMS=   0.54335:
 Charge=   0.00000 Dipole=     9.2032     5.0726    -2.7551 Tot=    10.8638
              1
     1  O    0.020242
     2  O   -0.447119
     3  P    0.118550
     4  H   -0.094014
     5  O   -0.063958
     6  O   -0.587377
     7  Ca   0.433692
     8  Ca   0.619982
 -----------------------------------------------------------------

              Electrostatic Properties (Atomic Units)

 -----------------------------------------------------------------
    Center     Electric         -------- Electric Field --------
               Potential          X             Y             Z
 -----------------------------------------------------------------
    1 Atom    -22.273800
    2 Atom    -22.309308
    3 Atom    -54.071973
    4 Atom     -1.123933
    5 Atom    -22.294791
    6 Atom    -22.331495
    7 Atom    -80.159628
    8 Atom    -80.150427
 -----------------------------------------------------------------
 1\1\GINC-N029\SP\RB3LYP\6-31G(d,p)\Ca2H1O4P1\TIMN\04-May-2015\0\\# b3l
 yp/6-31G(d,p) pop=(ReadRadii,MK)\\Ca2HPO4_32\\0,1\O,0,-1.94936,0.48349
 9,0.105243\O,0,-3.11614,-0.430881,-0.183855\P,0,-1.50479,-1.17584,0.08
 2714\H,0,-1.33093,-1.45147,-1.31703\O,0,0.366504,-0.618842,-0.191559\O
 ,0,0.909834,0.019554,1.08706\Ca,0,2.72311,-0.543116,-0.187506\Ca,0,-0.
 012312,1.71624,-0.135434\\Version=EM64T-G03RevE.01\State=1-A\HF=-1997.
 8407899\RMSD=8.921e-05\Thermal=0.\Dipole=1.271543,0.6209411,-0.2427771
 \PG=C01 [X(Ca2H1O4P1)]\\@


 THOSE WHO ARE UNABLE TO LEARN FROM PAST MEETINGS
 ARE CONDEMNED TO REPEAT THEM.
 Job cpu time:  0 days  0 hours  0 minutes 25.0 seconds.
 File lengths (MBytes):  RWF=     21 Int=      0 D2E=      0 Chk=     10 Scr=      1
 Normal termination of Gaussian 03 at Mon May  4 20:08:27 2015.
