 Entering Gaussian System, Link 0=/home/timn/tmp/g03.e01/g03
 Input=Ca2HPO4_36.xyz.gjf
 Output=Ca2HPO4_36.xyz.out
 Initial command:
 /home/timn/tmp/g03.e01/l1.exe /home/timn/tmp/g03.e01/Gau-5457.inp -scrdir=/home/timn/tmp/g03.e01/
 Default is to use a total of   2 processors:
                                2 via shared-memory
                                1 via Linda
 Entering Link 1 = /home/timn/tmp/g03.e01/l1.exe PID=      5458.
  
 Copyright (c) 1988,1990,1992,1993,1995,1998,2003,2004,2007, Gaussian, Inc.
                  All Rights Reserved.
  
 This is the Gaussian(R) 03 program.  It is based on the
 the Gaussian(R) 98 system (copyright 1998, Gaussian, Inc.),
 the Gaussian(R) 94 system (copyright 1995, Gaussian, Inc.),
 the Gaussian 92(TM) system (copyright 1992, Gaussian, Inc.),
 the Gaussian 90(TM) system (copyright 1990, Gaussian, Inc.),
 the Gaussian 88(TM) system (copyright 1988, Gaussian, Inc.),
 the Gaussian 86(TM) system (copyright 1986, Carnegie Mellon
 University), and the Gaussian 82(TM) system (copyright 1983,
 Carnegie Mellon University). Gaussian is a federally registered
 trademark of Gaussian, Inc.
  
 This software contains proprietary and confidential information,
 including trade secrets, belonging to Gaussian, Inc.
  
 This software is provided under written license and may be
 used, copied, transmitted, or stored only in accord with that
 written license.
  
 The following legend is applicable only to US Government
 contracts under FAR:
  
                    RESTRICTED RIGHTS LEGEND
  
 Use, reproduction and disclosure by the US Government is
 subject to restrictions as set forth in subparagraphs (a)
 and (c) of the Commercial Computer Software - Restricted
 Rights clause in FAR 52.227-19.
  
 Gaussian, Inc.
 340 Quinnipiac St., Bldg. 40, Wallingford CT 06492
  
  
 ---------------------------------------------------------------
 Warning -- This program may not be used in any manner that
 competes with the business of Gaussian, Inc. or will provide
 assistance to any competitor of Gaussian, Inc.  The licensee
 of this program is prohibited from giving any competitor of
 Gaussian, Inc. access to this program.  By using this program,
 the user acknowledges that Gaussian, Inc. is engaged in the
 business of creating and licensing software in the field of
 computational chemistry and represents and warrants to the
 licensee that it is not a competitor of Gaussian, Inc. and that
 it will not use this program in any manner prohibited above.
 ---------------------------------------------------------------
  

 Cite this work as:
 Gaussian 03, Revision E.01,
 M. J. Frisch, G. W. Trucks, H. B. Schlegel, G. E. Scuseria, 
 M. A. Robb, J. R. Cheeseman, J. A. Montgomery, Jr., T. Vreven, 
 K. N. Kudin, J. C. Burant, J. M. Millam, S. S. Iyengar, J. Tomasi, 
 V. Barone, B. Mennucci, M. Cossi, G. Scalmani, N. Rega, 
 G. A. Petersson, H. Nakatsuji, M. Hada, M. Ehara, K. Toyota, 
 R. Fukuda, J. Hasegawa, M. Ishida, T. Nakajima, Y. Honda, O. Kitao, 
 H. Nakai, M. Klene, X. Li, J. E. Knox, H. P. Hratchian, J. B. Cross, 
 V. Bakken, C. Adamo, J. Jaramillo, R. Gomperts, R. E. Stratmann, 
 O. Yazyev, A. J. Austin, R. Cammi, C. Pomelli, J. W. Ochterski, 
 P. Y. Ayala, K. Morokuma, G. A. Voth, P. Salvador, J. J. Dannenberg, 
 V. G. Zakrzewski, S. Dapprich, A. D. Daniels, M. C. Strain, 
 O. Farkas, D. K. Malick, A. D. Rabuck, K. Raghavachari, 
 J. B. Foresman, J. V. Ortiz, Q. Cui, A. G. Baboul, S. Clifford, 
 J. Cioslowski, B. B. Stefanov, G. Liu, A. Liashenko, P. Piskorz, 
 I. Komaromi, R. L. Martin, D. J. Fox, T. Keith, M. A. Al-Laham, 
 C. Y. Peng, A. Nanayakkara, M. Challacombe, P. M. W. Gill, 
 B. Johnson, W. Chen, M. W. Wong, C. Gonzalez, and J. A. Pople, 
 Gaussian, Inc., Wallingford CT, 2004.
 
 ******************************************
 Gaussian 03:  EM64T-G03RevE.01 11-Sep-2007
                 4-May-2015 
 ******************************************
 %nproc=2
 Will use up to    2 processors via shared memory.
 Default route:  MP2=Direct MaxDisk=2000MB
 -------------------------------------
 # b3lyp/6-31G(d,p) pop=(ReadRadii,MK)
 -------------------------------------
 1/38=1/1;
 2/17=6,18=5,40=1/2;
 3/5=1,6=6,7=101,11=2,16=1,25=1,30=1,74=-5/1,2,3;
 4//1;
 5/5=2,32=1,38=5/2;
 6/7=2,8=2,9=2,10=2,15=8,20=101,28=1/1,2;
 99/5=1,9=1/99;
 ----------
 Ca2HPO4_36
 ----------
 Symbolic Z-matrix:
 Charge =  0 Multiplicity = 1
 O                     0.96389   0.5161   -0.44038 
 O                     0.79334   2.05448  -0.41572 
 Ca                   -1.22418   1.31712   0.1518 
 P                     2.34964  -0.09679   0.4231 
 H                     3.2346   -0.19627  -0.70313 
 O                    -1.65167  -0.74762   0.92685 
 O                    -1.93708  -0.67806  -0.61321 
 Ca                    0.03282  -1.69268  -0.21698 
 
                          Input orientation:                          
 ---------------------------------------------------------------------
 Center     Atomic     Atomic              Coordinates (Angstroms)
 Number     Number      Type              X           Y           Z
 ---------------------------------------------------------------------
    1          8             0        0.963886    0.516101   -0.440379
    2          8             0        0.793342    2.054480   -0.415723
    3         20             0       -1.224180    1.317120    0.151799
    4         15             0        2.349640   -0.096785    0.423095
    5          1             0        3.234600   -0.196265   -0.703132
    6          8             0       -1.651670   -0.747616    0.926849
    7          8             0       -1.937080   -0.678057   -0.613207
    8         20             0        0.032822   -1.692680   -0.216980
 ---------------------------------------------------------------------
                    Distance matrix (angstroms):
                    1          2          3          4          5
     1  O    0.000000
     2  O    1.548000   0.000000
     3  Ca   2.404150   2.221751   0.000000
     4  P    1.743998   2.784532   3.852910   0.000000
     5  H    2.394295   3.332896   4.785599   1.435771   0.000000
     6  O    3.210518   3.953774   2.246461   4.085074   5.180392
     7  O    3.141892   3.867940   2.252597   4.448344   5.194852
     8  Ca   2.407385   3.828720   3.282522   2.885173   3.567490
                    6          7          8
     6  O    0.000000
     7  O    1.567823   0.000000
     8  Ca   2.244773   2.250993   0.000000
 Stoichiometry    Ca2HO4P
 Framework group  C1[X(Ca2HO4P)]
 Deg. of freedom    18
 Full point group                 C1
 Largest Abelian subgroup         C1      NOp   1
 Largest concise Abelian subgroup C1      NOp   1
                         Standard orientation:                         
 ---------------------------------------------------------------------
 Center     Atomic     Atomic              Coordinates (Angstroms)
 Number     Number      Type              X           Y           Z
 ---------------------------------------------------------------------
    1          8             0        0.963889    0.516099   -0.440379
    2          8             0        0.793347    2.054478   -0.415723
    3         20             0       -1.224176    1.317122    0.151799
    4         15             0        2.349641   -0.096790    0.423095
    5          1             0        3.234601   -0.196271   -0.703132
    6          8             0       -1.651670   -0.747613    0.926849
    7          8             0       -1.937080   -0.678054   -0.613207
    8         20             0        0.032820   -1.692680   -0.216980
 ---------------------------------------------------------------------
 Rotational constants (GHZ):      1.6480724      1.2493533      0.7868202
 Standard basis: 6-31G(d,p) (6D, 7F)
 There are   130 symmetry adapted basis functions of A   symmetry.
 Integral buffers will be    131072 words long.
 Raffenetti 2 integral format.
 Two-electron integral symmetry is turned on.
   130 basis functions,   323 primitive gaussians,   130 cartesian basis functions
    44 alpha electrons       44 beta electrons
       nuclear repulsion energy       628.4735690113 Hartrees.
 NAtoms=    8 NActive=    8 NUniq=    8 SFac= 7.50D-01 NAtFMM=   80 NAOKFM=F Big=F
 One-electron integrals computed using PRISM.
 NBasis=   130 RedAO= T  NBF=   130
 NBsUse=   130 1.00D-06 NBFU=   130
 Harris functional with IExCor=  402 diagonalized for initial guess.
 ExpMin= 2.60D-02 ExpMax= 3.53D+04 ExpMxC= 5.30D+03 IAcc=3 IRadAn=         5 AccDes= 0.00D+00
 HarFok:  IExCor= 402 AccDes= 0.00D+00 IRadAn=         5 IDoV=1
 ScaDFX=  1.000000  1.000000  1.000000  1.000000
 Initial guess orbital symmetries:
       Occupied  (A) (A) (A) (A) (A) (A) (A) (A) (A) (A) (A) (A)
                 (A) (A) (A) (A) (A) (A) (A) (A) (A) (A) (A) (A)
                 (A) (A) (A) (A) (A) (A) (A) (A) (A) (A) (A) (A)
                 (A) (A) (A) (A) (A) (A) (A) (A)
       Virtual   (A) (A) (A) (A) (A) (A) (A) (A) (A) (A) (A) (A)
                 (A) (A) (A) (A) (A) (A) (A) (A) (A) (A) (A) (A)
                 (A) (A) (A) (A) (A) (A) (A) (A) (A) (A) (A) (A)
                 (A) (A) (A) (A) (A) (A) (A) (A) (A) (A) (A) (A)
                 (A) (A) (A) (A) (A) (A) (A) (A) (A) (A) (A) (A)
                 (A) (A) (A) (A) (A) (A) (A) (A) (A) (A) (A) (A)
                 (A) (A) (A) (A) (A) (A) (A) (A) (A) (A) (A) (A)
                 (A) (A)
 The electronic state of the initial guess is 1-A.
 Requested convergence on RMS density matrix=1.00D-04 within 128 cycles.
 Requested convergence on MAX density matrix=1.00D-02.
 Requested convergence on             energy=1.00D-02.
 No special actions if energy rises.
 Keep R1 integrals in memory in canonical form, NReq=    38353825.
 SCF Done:  E(RB+HF-LYP) =  -1997.90183055     A.U. after    7 cycles
             Convg  =    0.7982D-04             -V/T =  2.0029
             S**2   =   0.0000

 **********************************************************************

            Population analysis using the SCF density.

 **********************************************************************

 Orbital symmetries:
       Occupied  (A) (A) (A) (A) (A) (A) (A) (A) (A) (A) (A) (A)
                 (A) (A) (A) (A) (A) (A) (A) (A) (A) (A) (A) (A)
                 (A) (A) (A) (A) (A) (A) (A) (A) (A) (A) (A) (A)
                 (A) (A) (A) (A) (A) (A) (A) (A)
       Virtual   (A) (A) (A) (A) (A) (A) (A) (A) (A) (A) (A) (A)
                 (A) (A) (A) (A) (A) (A) (A) (A) (A) (A) (A) (A)
                 (A) (A) (A) (A) (A) (A) (A) (A) (A) (A) (A) (A)
                 (A) (A) (A) (A) (A) (A) (A) (A) (A) (A) (A) (A)
                 (A) (A) (A) (A) (A) (A) (A) (A) (A) (A) (A) (A)
                 (A) (A) (A) (A) (A) (A) (A) (A) (A) (A) (A) (A)
                 (A) (A) (A) (A) (A) (A) (A) (A) (A) (A) (A) (A)
                 (A) (A)
 The electronic state is 1-A.
 Alpha  occ. eigenvalues -- -145.36021-145.34516 -77.04720 -19.16270 -19.09845
 Alpha  occ. eigenvalues --  -19.09600 -19.09066 -15.43154 -15.41692 -12.56359
 Alpha  occ. eigenvalues --  -12.56341 -12.56197 -12.54906 -12.54890 -12.54705
 Alpha  occ. eigenvalues --   -6.51455  -4.68000  -4.67424  -4.67150  -1.80700
 Alpha  occ. eigenvalues --   -1.79377  -1.09240  -1.08483  -1.08212  -1.07531
 Alpha  occ. eigenvalues --   -1.07134  -1.06691  -0.98061  -0.92256  -0.78016
 Alpha  occ. eigenvalues --   -0.73632  -0.54058  -0.39289  -0.37638  -0.35611
 Alpha  occ. eigenvalues --   -0.33377  -0.31917  -0.30316  -0.25219  -0.21369
 Alpha  occ. eigenvalues --   -0.20477  -0.19054  -0.18454  -0.16593
 Alpha virt. eigenvalues --   -0.07252  -0.06153  -0.01502  -0.00161   0.01105
 Alpha virt. eigenvalues --    0.02081   0.02440   0.04303   0.04957   0.06642
 Alpha virt. eigenvalues --    0.07771   0.07895   0.09415   0.12330   0.14081
 Alpha virt. eigenvalues --    0.15294   0.17039   0.18498   0.19495   0.20485
 Alpha virt. eigenvalues --    0.22446   0.23504   0.25669   0.28633   0.29636
 Alpha virt. eigenvalues --    0.34814   0.35961   0.37016   0.38794   0.41513
 Alpha virt. eigenvalues --    0.42606   0.42901   0.44635   0.48412   0.50072
 Alpha virt. eigenvalues --    0.62890   0.68858   0.72493   0.77875   0.83352
 Alpha virt. eigenvalues --    0.88384   0.94531   0.99285   1.00773   1.01087
 Alpha virt. eigenvalues --    1.09643   1.10322   1.11677   1.14406   1.17427
 Alpha virt. eigenvalues --    1.19786   1.23454   1.28455   1.36053   1.42024
 Alpha virt. eigenvalues --    1.43557   1.48377   1.58346   1.62309   1.63667
 Alpha virt. eigenvalues --    1.68949   1.75715   1.86981   1.87629   1.89587
 Alpha virt. eigenvalues --    1.91720   1.92699   1.95326   1.98835   1.99978
 Alpha virt. eigenvalues --    2.02990   2.14831   2.18456   2.28752   2.32037
 Alpha virt. eigenvalues --    2.32329   2.32718   2.44910   2.74060   3.06045
 Alpha virt. eigenvalues --    3.09401   3.58276   3.66716   3.75310   3.86999
 Alpha virt. eigenvalues --    3.94139
          Condensed to atoms (all electrons):
              1          2          3          4          5          6
     1  O    8.385029  -0.006287   0.050133   0.080246  -0.019277  -0.002406
     2  O   -0.006287   8.359894   0.156566  -0.006118  -0.000749  -0.000016
     3  Ca   0.050133   0.156566  18.466441   0.009128  -0.001669   0.105805
     4  P    0.080246  -0.006118   0.009128  14.443206   0.250198  -0.000628
     5  H   -0.019277  -0.000749  -0.001669   0.250198   0.845150   0.000002
     6  O   -0.002406  -0.000016   0.105805  -0.000628   0.000002   8.379479
     7  O   -0.002964   0.000009   0.110416  -0.000239  -0.000002  -0.004483
     8  Ca   0.056325  -0.007813  -0.100601   0.202615  -0.015246   0.116990
              7          8
     1  O   -0.002964   0.056325
     2  O    0.000009  -0.007813
     3  Ca   0.110416  -0.100601
     4  P   -0.000239   0.202615
     5  H   -0.000002  -0.015246
     6  O   -0.004483   0.116990
     7  O    8.378015   0.110675
     8  Ca   0.110675  18.581568
 Mulliken atomic charges:
              1
     1  O   -0.540798
     2  O   -0.495487
     3  Ca   1.203783
     4  P    0.021592
     5  H   -0.058407
     6  O   -0.594742
     7  O   -0.591427
     8  Ca   1.055487
 Sum of Mulliken charges=   0.00000
 Atomic charges with hydrogens summed into heavy atoms:
              1
     1  O   -0.540798
     2  O   -0.495487
     3  Ca   1.203783
     4  P   -0.036815
     5  H    0.000000
     6  O   -0.594742
     7  O   -0.591427
     8  Ca   1.055487
 Sum of Mulliken charges=   0.00000
 Electronic spatial extent (au):  <R**2>=  1363.8163
 Charge=     0.0000 electrons
 Dipole moment (field-independent basis, Debye):
    X=    -4.4142    Y=    -1.9015    Z=    -0.6182  Tot=     4.8460
 Quadrupole moment (field-independent basis, Debye-Ang):
   XX=   -80.1286   YY=   -48.2855   ZZ=   -67.1057
   XY=   -21.4193   XZ=    -1.9277   YZ=     7.5957
 Traceless Quadrupole moment (field-independent basis, Debye-Ang):
   XX=   -14.9553   YY=    16.8877   ZZ=    -1.9324
   XY=   -21.4193   XZ=    -1.9277   YZ=     7.5957
 Octapole moment (field-independent basis, Debye-Ang**2):
  XXX=   -28.2446  YYY=   -29.1793  ZZZ=    -7.7782  XYY=   -41.8066
  XXY=    31.8308  XXZ=    -5.8903  XZZ=   -11.3094  YZZ=     2.0865
  YYZ=    -0.2141  XYZ=    -2.9711
 Hexadecapole moment (field-independent basis, Debye-Ang**3):
 XXXX= -1049.6645 YYYY=  -560.3712 ZZZZ=  -167.0583 XXXY=   -72.9537
 XXXZ=   -27.0260 YYYX=   -50.8952 YYYZ=    29.4210 ZZZX=   -11.6772
 ZZZY=    11.3705 XXYY=  -271.2351 XXZZ=  -215.1708 YYZZ=  -130.6887
 XXYZ=     1.3957 YYXZ=    -3.9528 ZZXY=   -13.3547
 N-N= 6.284735690113D+02 E-N=-5.993631536105D+03  KE= 1.992180624286D+03
 Merz-Kollman atomic radii used.
 Read replacement radii for each type of atom:
 Rad(20) =   1.188000000000D+00
 Atom Element Radius
    1     8    1.40
    2     8    1.40
    3    20    1.19
    4    15    1.80
    5     1    1.20
    6     8    1.40
    7     8    1.40
    8    20    1.19

 **********************************************************************

            Electrostatic Properties Using The SCF Density

 **********************************************************************

       Atomic Center    1 is at   0.963889  0.516099 -0.440379
       Atomic Center    2 is at   0.793347  2.054478 -0.415723
       Atomic Center    3 is at  -1.224176  1.317122  0.151799
       Atomic Center    4 is at   2.349641 -0.096790  0.423095
       Atomic Center    5 is at   3.234601 -0.196271 -0.703132
       Atomic Center    6 is at  -1.651670 -0.747613  0.926849
       Atomic Center    7 is at  -1.937080 -0.678054 -0.613207
       Atomic Center    8 is at   0.032820 -1.692680 -0.216980
     758 points will be used for fitting atomic charges
 Fitting point charges to eletrostatic potential
 Charges from ESP fit, RMS=   0.00974 RRMS=   0.16363:
 Charge=   0.00000 Dipole=    -4.7485    -2.4048    -0.8504 Tot=     5.3903
              1
     1  O   -0.429776
     2  O   -0.513374
     3  Ca   1.463326
     4  P   -0.553333
     5  H    0.130047
     6  O   -0.675533
     7  O   -0.694971
     8  Ca   1.273613
 -----------------------------------------------------------------

              Electrostatic Properties (Atomic Units)

 -----------------------------------------------------------------
    Center     Electric         -------- Electric Field --------
               Potential          X             Y             Z
 -----------------------------------------------------------------
    1 Atom    -22.300519
    2 Atom    -22.384481
    3 Atom    -80.195994
    4 Atom    -54.168645
    5 Atom     -1.143700
    6 Atom    -22.375470
    7 Atom    -22.369104
    8 Atom    -80.182725
 -----------------------------------------------------------------
 1\1\GINC-N027\SP\RB3LYP\6-31G(d,p)\Ca2H1O4P1\TIMN\04-May-2015\0\\# b3l
 yp/6-31G(d,p) pop=(ReadRadii,MK)\\Ca2HPO4_36\\0,1\O,0,0.963886,0.51610
 1,-0.440379\O,0,0.793342,2.05448,-0.415723\Ca,0,-1.22418,1.31712,0.151
 799\P,0,2.34964,-0.096785,0.423095\H,0,3.2346,-0.196265,-0.703132\O,0,
 -1.65167,-0.747616,0.926849\O,0,-1.93708,-0.678057,-0.613207\Ca,0,0.03
 2822,-1.69268,-0.21698\\Version=EM64T-G03RevE.01\State=1-A\HF=-1997.90
 18305\RMSD=7.982e-05\Thermal=0.\Dipole=-1.7366967,-0.7480997,-0.243233
 9\PG=C01 [X(Ca2H1O4P1)]\\@


 Boundary, n.  In political geography, an imaginary
 line between two nations, separating the imaginary
 rights of one from the imaginary rights of another.
                               -- Ambrose Bierce
 Job cpu time:  0 days  0 hours  0 minutes 18.0 seconds.
 File lengths (MBytes):  RWF=     21 Int=      0 D2E=      0 Chk=     10 Scr=      1
 Normal termination of Gaussian 03 at Mon May  4 20:08:26 2015.
