 Entering Gaussian System, Link 0=/home/timn/tmp/g03.e01/g03
 Input=Ca2HPO4_31.xyz.gjf
 Output=Ca2HPO4_31.xyz.out
 Initial command:
 /home/timn/tmp/g03.e01/l1.exe /home/timn/tmp/g03.e01/Gau-12425.inp -scrdir=/home/timn/tmp/g03.e01/
 Default is to use a total of   2 processors:
                                2 via shared-memory
                                1 via Linda
 Entering Link 1 = /home/timn/tmp/g03.e01/l1.exe PID=     12426.
  
 Copyright (c) 1988,1990,1992,1993,1995,1998,2003,2004,2007, Gaussian, Inc.
                  All Rights Reserved.
  
 This is the Gaussian(R) 03 program.  It is based on the
 the Gaussian(R) 98 system (copyright 1998, Gaussian, Inc.),
 the Gaussian(R) 94 system (copyright 1995, Gaussian, Inc.),
 the Gaussian 92(TM) system (copyright 1992, Gaussian, Inc.),
 the Gaussian 90(TM) system (copyright 1990, Gaussian, Inc.),
 the Gaussian 88(TM) system (copyright 1988, Gaussian, Inc.),
 the Gaussian 86(TM) system (copyright 1986, Carnegie Mellon
 University), and the Gaussian 82(TM) system (copyright 1983,
 Carnegie Mellon University). Gaussian is a federally registered
 trademark of Gaussian, Inc.
  
 This software contains proprietary and confidential information,
 including trade secrets, belonging to Gaussian, Inc.
  
 This software is provided under written license and may be
 used, copied, transmitted, or stored only in accord with that
 written license.
  
 The following legend is applicable only to US Government
 contracts under FAR:
  
                    RESTRICTED RIGHTS LEGEND
  
 Use, reproduction and disclosure by the US Government is
 subject to restrictions as set forth in subparagraphs (a)
 and (c) of the Commercial Computer Software - Restricted
 Rights clause in FAR 52.227-19.
  
 Gaussian, Inc.
 340 Quinnipiac St., Bldg. 40, Wallingford CT 06492
  
  
 ---------------------------------------------------------------
 Warning -- This program may not be used in any manner that
 competes with the business of Gaussian, Inc. or will provide
 assistance to any competitor of Gaussian, Inc.  The licensee
 of this program is prohibited from giving any competitor of
 Gaussian, Inc. access to this program.  By using this program,
 the user acknowledges that Gaussian, Inc. is engaged in the
 business of creating and licensing software in the field of
 computational chemistry and represents and warrants to the
 licensee that it is not a competitor of Gaussian, Inc. and that
 it will not use this program in any manner prohibited above.
 ---------------------------------------------------------------
  

 Cite this work as:
 Gaussian 03, Revision E.01,
 M. J. Frisch, G. W. Trucks, H. B. Schlegel, G. E. Scuseria, 
 M. A. Robb, J. R. Cheeseman, J. A. Montgomery, Jr., T. Vreven, 
 K. N. Kudin, J. C. Burant, J. M. Millam, S. S. Iyengar, J. Tomasi, 
 V. Barone, B. Mennucci, M. Cossi, G. Scalmani, N. Rega, 
 G. A. Petersson, H. Nakatsuji, M. Hada, M. Ehara, K. Toyota, 
 R. Fukuda, J. Hasegawa, M. Ishida, T. Nakajima, Y. Honda, O. Kitao, 
 H. Nakai, M. Klene, X. Li, J. E. Knox, H. P. Hratchian, J. B. Cross, 
 V. Bakken, C. Adamo, J. Jaramillo, R. Gomperts, R. E. Stratmann, 
 O. Yazyev, A. J. Austin, R. Cammi, C. Pomelli, J. W. Ochterski, 
 P. Y. Ayala, K. Morokuma, G. A. Voth, P. Salvador, J. J. Dannenberg, 
 V. G. Zakrzewski, S. Dapprich, A. D. Daniels, M. C. Strain, 
 O. Farkas, D. K. Malick, A. D. Rabuck, K. Raghavachari, 
 J. B. Foresman, J. V. Ortiz, Q. Cui, A. G. Baboul, S. Clifford, 
 J. Cioslowski, B. B. Stefanov, G. Liu, A. Liashenko, P. Piskorz, 
 I. Komaromi, R. L. Martin, D. J. Fox, T. Keith, M. A. Al-Laham, 
 C. Y. Peng, A. Nanayakkara, M. Challacombe, P. M. W. Gill, 
 B. Johnson, W. Chen, M. W. Wong, C. Gonzalez, and J. A. Pople, 
 Gaussian, Inc., Wallingford CT, 2004.
 
 ******************************************
 Gaussian 03:  EM64T-G03RevE.01 11-Sep-2007
                 4-May-2015 
 ******************************************
 %nproc=2
 Will use up to    2 processors via shared memory.
 Default route:  MP2=Direct MaxDisk=2000MB
 -------------------------------------
 # b3lyp/6-31G(d,p) pop=(ReadRadii,MK)
 -------------------------------------
 1/38=1/1;
 2/17=6,18=5,40=1/2;
 3/5=1,6=6,7=101,11=2,16=1,25=1,30=1,74=-5/1,2,3;
 4//1;
 5/5=2,32=1,38=5/2;
 6/7=2,8=2,9=2,10=2,15=8,20=101,28=1/1,2;
 99/5=1,9=1/99;
 ----------
 Ca2HPO4_31
 ----------
 Symbolic Z-matrix:
 Charge =  0 Multiplicity = 1
 O                    -0.10793  -1.10838   0.01297 
 O                     2.12131   0.05396  -0.47737 
 O                     2.18502   0.94091   0.75977 
 P                     1.48927  -1.43505   0.04113 
 H                     1.68466  -1.969    -1.29508 
 Ca                   -2.27262  -0.72833   0.11084 
 O                    -1.99391   1.34184  -0.10719 
 Ca                    0.18964   1.41173  -0.1522 
 
                          Input orientation:                          
 ---------------------------------------------------------------------
 Center     Atomic     Atomic              Coordinates (Angstroms)
 Number     Number      Type              X           Y           Z
 ---------------------------------------------------------------------
    1          8             0       -0.107926   -1.108380    0.012969
    2          8             0        2.121310    0.053955   -0.477366
    3          8             0        2.185020    0.940913    0.759767
    4         15             0        1.489270   -1.435050    0.041127
    5          1             0        1.684660   -1.969000   -1.295080
    6         20             0       -2.272620   -0.728331    0.110842
    7          8             0       -1.993910    1.341840   -0.107192
    8         20             0        0.189640    1.411730   -0.152204
 ---------------------------------------------------------------------
                    Distance matrix (angstroms):
                    1          2          3          4          5
     1  O    0.000000
     2  O    2.561434   0.000000
     3  O    3.164634   1.523565   0.000000
     4  P    1.630503   1.698660   2.577928   0.000000
     5  H    2.380131   2.225234   3.597270   1.452146   0.000000
     6  Ca   2.199981   4.501620   4.803960   3.828332   4.379034
     7  O    3.094342   4.327899   4.286702   4.457091   5.089658
     8  Ca   2.542987   2.383408   2.243859   3.135374   3.869184
                    6          7          8
     6  Ca   0.000000
     7  O    2.100197   0.000000
     8  Ca   3.272885   2.185132   0.000000
 Stoichiometry    Ca2HO4P
 Framework group  C1[X(Ca2HO4P)]
 Deg. of freedom    18
 Full point group                 C1
 Largest Abelian subgroup         C1      NOp   1
 Largest concise Abelian subgroup C1      NOp   1
                         Standard orientation:                         
 ---------------------------------------------------------------------
 Center     Atomic     Atomic              Coordinates (Angstroms)
 Number     Number      Type              X           Y           Z
 ---------------------------------------------------------------------
    1          8             0       -0.107926   -1.108378    0.012969
    2          8             0        2.121309    0.053958   -0.477366
    3          8             0        2.185019    0.940916    0.759767
    4         15             0        1.489270   -1.435047    0.041127
    5          1             0        1.684660   -1.968997   -1.295080
    6         20             0       -2.272620   -0.728331    0.110842
    7          8             0       -1.993912    1.341840   -0.107192
    8         20             0        0.189638    1.411732   -0.152204
 ---------------------------------------------------------------------
 Rotational constants (GHZ):      2.0428389      0.9954297      0.6992490
 Standard basis: 6-31G(d,p) (6D, 7F)
 There are   130 symmetry adapted basis functions of A   symmetry.
 Integral buffers will be    131072 words long.
 Raffenetti 2 integral format.
 Two-electron integral symmetry is turned on.
   130 basis functions,   323 primitive gaussians,   130 cartesian basis functions
    44 alpha electrons       44 beta electrons
       nuclear repulsion energy       621.6489585526 Hartrees.
 NAtoms=    8 NActive=    8 NUniq=    8 SFac= 7.50D-01 NAtFMM=   80 NAOKFM=F Big=F
 One-electron integrals computed using PRISM.
 NBasis=   130 RedAO= T  NBF=   130
 NBsUse=   130 1.00D-06 NBFU=   130
 Harris functional with IExCor=  402 diagonalized for initial guess.
 ExpMin= 2.60D-02 ExpMax= 3.53D+04 ExpMxC= 5.30D+03 IAcc=3 IRadAn=         5 AccDes= 0.00D+00
 HarFok:  IExCor= 402 AccDes= 0.00D+00 IRadAn=         5 IDoV=1
 ScaDFX=  1.000000  1.000000  1.000000  1.000000
 Initial guess orbital symmetries:
       Occupied  (A) (A) (A) (A) (A) (A) (A) (A) (A) (A) (A) (A)
                 (A) (A) (A) (A) (A) (A) (A) (A) (A) (A) (A) (A)
                 (A) (A) (A) (A) (A) (A) (A) (A) (A) (A) (A) (A)
                 (A) (A) (A) (A) (A) (A) (A) (A)
       Virtual   (A) (A) (A) (A) (A) (A) (A) (A) (A) (A) (A) (A)
                 (A) (A) (A) (A) (A) (A) (A) (A) (A) (A) (A) (A)
                 (A) (A) (A) (A) (A) (A) (A) (A) (A) (A) (A) (A)
                 (A) (A) (A) (A) (A) (A) (A) (A) (A) (A) (A) (A)
                 (A) (A) (A) (A) (A) (A) (A) (A) (A) (A) (A) (A)
                 (A) (A) (A) (A) (A) (A) (A) (A) (A) (A) (A) (A)
                 (A) (A) (A) (A) (A) (A) (A) (A) (A) (A) (A) (A)
                 (A) (A)
 The electronic state of the initial guess is 1-A.
 Requested convergence on RMS density matrix=1.00D-04 within 128 cycles.
 Requested convergence on MAX density matrix=1.00D-02.
 Requested convergence on             energy=1.00D-02.
 No special actions if energy rises.
 Keep R1 integrals in memory in canonical form, NReq=    38353971.
 SCF Done:  E(RB+HF-LYP) =  -1997.99589755     A.U. after    8 cycles
             Convg  =    0.3714D-04             -V/T =  2.0029
             S**2   =   0.0000

 **********************************************************************

            Population analysis using the SCF density.

 **********************************************************************

 Orbital symmetries:
       Occupied  (A) (A) (A) (A) (A) (A) (A) (A) (A) (A) (A) (A)
                 (A) (A) (A) (A) (A) (A) (A) (A) (A) (A) (A) (A)
                 (A) (A) (A) (A) (A) (A) (A) (A) (A) (A) (A) (A)
                 (A) (A) (A) (A) (A) (A) (A) (A)
       Virtual   (A) (A) (A) (A) (A) (A) (A) (A) (A) (A) (A) (A)
                 (A) (A) (A) (A) (A) (A) (A) (A) (A) (A) (A) (A)
                 (A) (A) (A) (A) (A) (A) (A) (A) (A) (A) (A) (A)
                 (A) (A) (A) (A) (A) (A) (A) (A) (A) (A) (A) (A)
                 (A) (A) (A) (A) (A) (A) (A) (A) (A) (A) (A) (A)
                 (A) (A) (A) (A) (A) (A) (A) (A) (A) (A) (A) (A)
                 (A) (A) (A) (A) (A) (A) (A) (A) (A) (A) (A) (A)
                 (A) (A)
 The electronic state is 1-A.
 Alpha  occ. eigenvalues -- -145.37334-145.30872 -77.10473 -19.15092 -19.09509
 Alpha  occ. eigenvalues --  -19.08049 -19.00741 -15.44412 -15.38133 -12.57630
 Alpha  occ. eigenvalues --  -12.57561 -12.57475 -12.51365 -12.51336 -12.51099
 Alpha  occ. eigenvalues --   -6.56343  -4.72741  -4.72597  -4.72051  -1.81903
 Alpha  occ. eigenvalues --   -1.75971  -1.09761  -1.09605  -1.08904  -1.04785
 Alpha  occ. eigenvalues --   -1.04036  -1.03603  -0.98362  -0.91335  -0.76524
 Alpha  occ. eigenvalues --   -0.74545  -0.54065  -0.40150  -0.39703  -0.36825
 Alpha  occ. eigenvalues --   -0.32993  -0.29953  -0.28451  -0.20698  -0.19996
 Alpha  occ. eigenvalues --   -0.19204  -0.18674  -0.18512  -0.18263
 Alpha virt. eigenvalues --   -0.09902  -0.03216  -0.02214  -0.00452   0.00829
 Alpha virt. eigenvalues --    0.01130   0.04281   0.04937   0.05926   0.06971
 Alpha virt. eigenvalues --    0.09190   0.09557   0.11490   0.11960   0.13672
 Alpha virt. eigenvalues --    0.15684   0.16708   0.18944   0.20090   0.22018
 Alpha virt. eigenvalues --    0.22809   0.23646   0.26135   0.29188   0.31006
 Alpha virt. eigenvalues --    0.32833   0.35668   0.36520   0.37978   0.40715
 Alpha virt. eigenvalues --    0.43153   0.44472   0.46679   0.49913   0.51274
 Alpha virt. eigenvalues --    0.61704   0.65711   0.69684   0.74853   0.80612
 Alpha virt. eigenvalues --    0.94794   0.96969   1.04020   1.07308   1.08184
 Alpha virt. eigenvalues --    1.09574   1.12188   1.13092   1.16593   1.18778
 Alpha virt. eigenvalues --    1.20897   1.25088   1.28182   1.35139   1.39098
 Alpha virt. eigenvalues --    1.48295   1.54219   1.58720   1.62989   1.72433
 Alpha virt. eigenvalues --    1.82045   1.84293   1.88138   1.91787   1.93293
 Alpha virt. eigenvalues --    1.94279   1.95465   1.96418   1.99029   2.00880
 Alpha virt. eigenvalues --    2.02744   2.09383   2.14895   2.18884   2.21881
 Alpha virt. eigenvalues --    2.36591   2.37665   2.48621   2.67634   2.74722
 Alpha virt. eigenvalues --    3.11601   3.62653   3.66145   3.80458   3.89652
 Alpha virt. eigenvalues --    3.93216
          Condensed to atoms (all electrons):
              1          2          3          4          5          6
     1  O    8.474460  -0.034783  -0.000732   0.225501  -0.035121   0.153142
     2  O   -0.034783   8.282893   0.011454   0.169073  -0.023498  -0.003306
     3  O   -0.000732   0.011454   8.345709  -0.010618   0.002327  -0.013075
     4  P    0.225501   0.169073  -0.010618  13.684036   0.192848  -0.004252
     5  H   -0.035121  -0.023498   0.002327   0.192848   0.995188  -0.007350
     6  Ca   0.153142  -0.003306  -0.013075  -0.004252  -0.007350  18.885065
     7  O   -0.005561  -0.000009  -0.000108  -0.000559   0.000005   0.256886
     8  Ca   0.060436   0.063885   0.158448   0.006163   0.004246  -0.362685
              7          8
     1  O   -0.005561   0.060436
     2  O   -0.000009   0.063885
     3  O   -0.000108   0.158448
     4  P   -0.000559   0.006163
     5  H    0.000005   0.004246
     6  Ca   0.256886  -0.362685
     7  O    8.434479   0.205711
     8  Ca   0.205711  18.881233
 Mulliken atomic charges:
              1
     1  O   -0.837342
     2  O   -0.465709
     3  O   -0.493406
     4  P    0.737808
     5  H   -0.128645
     6  Ca   1.095574
     7  O   -0.890844
     8  Ca   0.982563
 Sum of Mulliken charges=   0.00000
 Atomic charges with hydrogens summed into heavy atoms:
              1
     1  O   -0.837342
     2  O   -0.465709
     3  O   -0.493406
     4  P    0.609163
     5  H    0.000000
     6  Ca   1.095574
     7  O   -0.890844
     8  Ca   0.982563
 Sum of Mulliken charges=   0.00000
 Electronic spatial extent (au):  <R**2>=  1470.5879
 Charge=     0.0000 electrons
 Dipole moment (field-independent basis, Debye):
    X=    -8.5512    Y=    -2.8408    Z=    -1.3260  Tot=     9.1077
 Quadrupole moment (field-independent basis, Debye-Ang):
   XX=   -68.9246   YY=   -59.6191   ZZ=   -63.9257
   XY=    20.4238   XZ=    -6.7608   YZ=    -2.0836
 Traceless Quadrupole moment (field-independent basis, Debye-Ang):
   XX=    -4.7681   YY=     4.5374   ZZ=     0.2307
   XY=    20.4238   XZ=    -6.7608   YZ=    -2.0836
 Octapole moment (field-independent basis, Debye-Ang**2):
  XXX=   -87.8750  YYY=    19.6672  ZZZ=    -1.1842  XYY=     2.2415
  XXY=   -67.1611  XXZ=    -1.3367  XZZ=   -12.4549  YZZ=     4.6732
  YYZ=    -5.5718  XYZ=    -2.1603
 Hexadecapole moment (field-independent basis, Debye-Ang**3):
 XXXX= -1125.4733 YYYY=  -573.8470 ZZZZ=  -131.2585 XXXY=   137.6100
 XXXZ=   -37.6497 YYYX=    75.1819 YYYZ=    -2.7040 ZZZX=    -8.5999
 ZZZY=    -5.0582 XXYY=  -322.6846 XXZZ=  -222.1891 YYZZ=  -121.6304
 XXYZ=    -4.1614 YYXZ=   -13.7213 ZZXY=    19.9307
 N-N= 6.216489585526D+02 E-N=-5.980459995794D+03  KE= 1.992228821237D+03
 Merz-Kollman atomic radii used.
 Read replacement radii for each type of atom:
 Rad(20) =   1.188000000000D+00
 Atom Element Radius
    1     8    1.40
    2     8    1.40
    3     8    1.40
    4    15    1.80
    5     1    1.20
    6    20    1.19
    7     8    1.40
    8    20    1.19

 **********************************************************************

            Electrostatic Properties Using The SCF Density

 **********************************************************************

       Atomic Center    1 is at  -0.107926 -1.108378  0.012969
       Atomic Center    2 is at   2.121309  0.053958 -0.477366
       Atomic Center    3 is at   2.185019  0.940916  0.759767
       Atomic Center    4 is at   1.489270 -1.435047  0.041127
       Atomic Center    5 is at   1.684660 -1.968997 -1.295080
       Atomic Center    6 is at  -2.272620 -0.728331  0.110842
       Atomic Center    7 is at  -1.993912  1.341840 -0.107192
       Atomic Center    8 is at   0.189638  1.411732 -0.152204
     731 points will be used for fitting atomic charges
 Fitting point charges to eletrostatic potential
 Charges from ESP fit, RMS=   0.00678 RRMS=   0.10665:
 Charge=   0.00000 Dipole=    -9.2112    -2.8545    -1.3505 Tot=     9.7374
              1
     1  O   -0.863998
     2  O   -0.307785
     3  O   -0.606885
     4  P    0.141204
     5  H    0.026251
     6  Ca   1.438744
     7  O   -1.351236
     8  Ca   1.523704
 -----------------------------------------------------------------

              Electrostatic Properties (Atomic Units)

 -----------------------------------------------------------------
    Center     Electric         -------- Electric Field --------
               Potential          X             Y             Z
 -----------------------------------------------------------------
    1 Atom    -22.363838
    2 Atom    -22.322370
    3 Atom    -22.391675
    4 Atom    -54.110669
    5 Atom     -1.155157
    6 Atom    -80.169706
    7 Atom    -22.457687
    8 Atom    -80.233409
 -----------------------------------------------------------------
 1\1\GINC-N029\SP\RB3LYP\6-31G(d,p)\Ca2H1O4P1\TIMN\04-May-2015\0\\# b3l
 yp/6-31G(d,p) pop=(ReadRadii,MK)\\Ca2HPO4_31\\0,1\O,0,-0.107926,-1.108
 38,0.012969\O,0,2.12131,0.053955,-0.477366\O,0,2.18502,0.940913,0.7597
 67\P,0,1.48927,-1.43505,0.041127\H,0,1.68466,-1.969,-1.29508\Ca,0,-2.2
 7262,-0.728331,0.110842\O,0,-1.99391,1.34184,-0.107192\Ca,0,0.18964,1.
 41173,-0.152204\\Version=EM64T-G03RevE.01\State=1-A\HF=-1997.9958976\R
 MSD=3.714e-05\Thermal=0.\Dipole=-3.3642871,-1.1176545,-0.5216722\PG=C0
 1 [X(Ca2H1O4P1)]\\@


  THE LARGE PRINT GIVETH,
  AND THE SMALL PRINT TAKETH AWAY.

                     -- TOM WAITES
 Job cpu time:  0 days  0 hours  0 minutes 19.4 seconds.
 File lengths (MBytes):  RWF=     21 Int=      0 D2E=      0 Chk=     10 Scr=      1
 Normal termination of Gaussian 03 at Mon May  4 20:08:24 2015.
