 Entering Gaussian System, Link 0=/home/timn/tmp/g03.e01/g03
 Input=Ca2HPO4_46.xyz.gjf
 Output=Ca2HPO4_46.xyz.out
 Initial command:
 /home/timn/tmp/g03.e01/l1.exe /home/timn/tmp/g03.e01/Gau-31539.inp -scrdir=/home/timn/tmp/g03.e01/
 Default is to use a total of   2 processors:
                                2 via shared-memory
                                1 via Linda
 Entering Link 1 = /home/timn/tmp/g03.e01/l1.exe PID=     31540.
  
 Copyright (c) 1988,1990,1992,1993,1995,1998,2003,2004,2007, Gaussian, Inc.
                  All Rights Reserved.
  
 This is the Gaussian(R) 03 program.  It is based on the
 the Gaussian(R) 98 system (copyright 1998, Gaussian, Inc.),
 the Gaussian(R) 94 system (copyright 1995, Gaussian, Inc.),
 the Gaussian 92(TM) system (copyright 1992, Gaussian, Inc.),
 the Gaussian 90(TM) system (copyright 1990, Gaussian, Inc.),
 the Gaussian 88(TM) system (copyright 1988, Gaussian, Inc.),
 the Gaussian 86(TM) system (copyright 1986, Carnegie Mellon
 University), and the Gaussian 82(TM) system (copyright 1983,
 Carnegie Mellon University). Gaussian is a federally registered
 trademark of Gaussian, Inc.
  
 This software contains proprietary and confidential information,
 including trade secrets, belonging to Gaussian, Inc.
  
 This software is provided under written license and may be
 used, copied, transmitted, or stored only in accord with that
 written license.
  
 The following legend is applicable only to US Government
 contracts under FAR:
  
                    RESTRICTED RIGHTS LEGEND
  
 Use, reproduction and disclosure by the US Government is
 subject to restrictions as set forth in subparagraphs (a)
 and (c) of the Commercial Computer Software - Restricted
 Rights clause in FAR 52.227-19.
  
 Gaussian, Inc.
 340 Quinnipiac St., Bldg. 40, Wallingford CT 06492
  
  
 ---------------------------------------------------------------
 Warning -- This program may not be used in any manner that
 competes with the business of Gaussian, Inc. or will provide
 assistance to any competitor of Gaussian, Inc.  The licensee
 of this program is prohibited from giving any competitor of
 Gaussian, Inc. access to this program.  By using this program,
 the user acknowledges that Gaussian, Inc. is engaged in the
 business of creating and licensing software in the field of
 computational chemistry and represents and warrants to the
 licensee that it is not a competitor of Gaussian, Inc. and that
 it will not use this program in any manner prohibited above.
 ---------------------------------------------------------------
  

 Cite this work as:
 Gaussian 03, Revision E.01,
 M. J. Frisch, G. W. Trucks, H. B. Schlegel, G. E. Scuseria, 
 M. A. Robb, J. R. Cheeseman, J. A. Montgomery, Jr., T. Vreven, 
 K. N. Kudin, J. C. Burant, J. M. Millam, S. S. Iyengar, J. Tomasi, 
 V. Barone, B. Mennucci, M. Cossi, G. Scalmani, N. Rega, 
 G. A. Petersson, H. Nakatsuji, M. Hada, M. Ehara, K. Toyota, 
 R. Fukuda, J. Hasegawa, M. Ishida, T. Nakajima, Y. Honda, O. Kitao, 
 H. Nakai, M. Klene, X. Li, J. E. Knox, H. P. Hratchian, J. B. Cross, 
 V. Bakken, C. Adamo, J. Jaramillo, R. Gomperts, R. E. Stratmann, 
 O. Yazyev, A. J. Austin, R. Cammi, C. Pomelli, J. W. Ochterski, 
 P. Y. Ayala, K. Morokuma, G. A. Voth, P. Salvador, J. J. Dannenberg, 
 V. G. Zakrzewski, S. Dapprich, A. D. Daniels, M. C. Strain, 
 O. Farkas, D. K. Malick, A. D. Rabuck, K. Raghavachari, 
 J. B. Foresman, J. V. Ortiz, Q. Cui, A. G. Baboul, S. Clifford, 
 J. Cioslowski, B. B. Stefanov, G. Liu, A. Liashenko, P. Piskorz, 
 I. Komaromi, R. L. Martin, D. J. Fox, T. Keith, M. A. Al-Laham, 
 C. Y. Peng, A. Nanayakkara, M. Challacombe, P. M. W. Gill, 
 B. Johnson, W. Chen, M. W. Wong, C. Gonzalez, and J. A. Pople, 
 Gaussian, Inc., Wallingford CT, 2004.
 
 ******************************************
 Gaussian 03:  EM64T-G03RevE.01 11-Sep-2007
                 4-May-2015 
 ******************************************
 %nproc=2
 Will use up to    2 processors via shared memory.
 Default route:  MP2=Direct MaxDisk=2000MB
 -------------------------------------
 # b3lyp/6-31G(d,p) pop=(ReadRadii,MK)
 -------------------------------------
 1/38=1/1;
 2/17=6,18=5,40=1/2;
 3/5=1,6=6,7=101,11=2,16=1,25=1,30=1,74=-5/1,2,3;
 4//1;
 5/5=2,32=1,38=5/2;
 6/7=2,8=2,9=2,10=2,15=8,20=101,28=1/1,2;
 99/5=1,9=1/99;
 ----------
 Ca2HPO4_46
 ----------
 Symbolic Z-matrix:
 Charge =  0 Multiplicity = 1
 O                    -1.65643  -3.52619   0. 
 O                    -0.27885  -3.95881   0. 
 O                     1.65431   2.38681   0. 
 O                     0.        0.48816   0. 
 P                     1.60587   0.83136   0. 
 Ca                   -0.34524  -1.78039   0. 
 H                    -2.36478   3.96748   0. 
 Ca                   -0.62853   2.80251   0. 
 
                          Input orientation:                          
 ---------------------------------------------------------------------
 Center     Atomic     Atomic              Coordinates (Angstroms)
 Number     Number      Type              X           Y           Z
 ---------------------------------------------------------------------
    1          8             0       -1.656430   -3.526190    0.000000
    2          8             0       -0.278845   -3.958810    0.000000
    3          8             0        1.654310    2.386810    0.000000
    4          8             0        0.000000    0.488161    0.000000
    5         15             0        1.605870    0.831356    0.000000
    6         20             0       -0.345244   -1.780390    0.000000
    7          1             0       -2.364780    3.967480    0.000000
    8         20             0       -0.628534    2.802510    0.000000
 ---------------------------------------------------------------------
                    Distance matrix (angstroms):
                    1          2          3          4          5
     1  O    0.000000
     2  O    1.443918   0.000000
     3  O    6.776767   6.633550   0.000000
     4  O    4.342669   4.455705   2.518255   0.000000
     5  P    5.443419   5.147605   1.556208   1.642133   0.000000
     6  Ca   2.183352   2.179432   4.622096   2.294671   3.260071
     7  H    7.527074   8.196170   4.318750   4.206881   5.059776
     8  Ca   6.411631   6.770357   2.320384   2.398180   2.979599
                    6          7          8
     6  Ca   0.000000
     7  H    6.092334   0.000000
     8  Ca   4.591647   2.090862   0.000000
 Stoichiometry    Ca2HO4P
 Framework group  CS[SG(Ca2HO4P)]
 Deg. of freedom    13
 Full point group                 CS
 Largest Abelian subgroup         CS      NOp   2
 Largest concise Abelian subgroup C1      NOp   1
                         Standard orientation:                         
 ---------------------------------------------------------------------
 Center     Atomic     Atomic              Coordinates (Angstroms)
 Number     Number      Type              X           Y           Z
 ---------------------------------------------------------------------
    1          8             0       -1.656429   -3.526190    0.000000
    2          8             0       -0.278844   -3.958810    0.000000
    3          8             0        1.654310    2.386811    0.000000
    4          8             0        0.000000    0.488161    0.000000
    5         15             0        1.605870    0.831357    0.000000
    6         20             0       -0.345243   -1.780390    0.000000
    7          1             0       -2.364781    3.967480    0.000000
    8         20             0       -0.628535    2.802510    0.000000
 ---------------------------------------------------------------------
 Rotational constants (GHZ):      3.0651557      0.4802866      0.4152241
 Standard basis: 6-31G(d,p) (6D, 7F)
 There are    96 symmetry adapted basis functions of A'  symmetry.
 There are    34 symmetry adapted basis functions of A"  symmetry.
 Integral buffers will be    131072 words long.
 Raffenetti 2 integral format.
 Two-electron integral symmetry is turned on.
   130 basis functions,   323 primitive gaussians,   130 cartesian basis functions
    44 alpha electrons       44 beta electrons
       nuclear repulsion energy       555.7413312655 Hartrees.
 NAtoms=    8 NActive=    8 NUniq=    8 SFac= 7.50D-01 NAtFMM=   80 NAOKFM=F Big=F
 One-electron integrals computed using PRISM.
 NBasis=   130 RedAO= T  NBF=    96    34
 NBsUse=   130 1.00D-06 NBFU=    96    34
 Harris functional with IExCor=  402 diagonalized for initial guess.
 ExpMin= 2.60D-02 ExpMax= 3.53D+04 ExpMxC= 5.30D+03 IAcc=3 IRadAn=         5 AccDes= 0.00D+00
 HarFok:  IExCor= 402 AccDes= 0.00D+00 IRadAn=         5 IDoV=1
 ScaDFX=  1.000000  1.000000  1.000000  1.000000
 Initial guess orbital symmetries:
       Occupied  (A') (A') (A') (A') (A') (A') (A') (A') (A') (A')
                 (A') (A") (A') (A') (A") (A') (A') (A') (A") (A')
                 (A') (A') (A') (A') (A') (A") (A") (A') (A') (A')
                 (A') (A') (A') (A') (A') (A") (A') (A") (A') (A")
                 (A') (A') (A') (A")
       Virtual   (A") (A') (A') (A') (A") (A') (A') (A") (A') (A')
                 (A') (A') (A') (A') (A") (A") (A') (A') (A") (A')
                 (A") (A') (A") (A") (A') (A') (A') (A') (A') (A")
                 (A') (A') (A') (A') (A') (A') (A") (A") (A') (A')
                 (A') (A") (A') (A') (A") (A') (A") (A') (A') (A")
                 (A') (A') (A') (A') (A') (A') (A') (A') (A") (A')
                 (A") (A') (A") (A") (A') (A') (A") (A") (A') (A")
                 (A') (A') (A") (A') (A') (A') (A") (A') (A') (A')
                 (A') (A') (A') (A') (A') (A')
 The electronic state of the initial guess is 1-A'.
 Requested convergence on RMS density matrix=1.00D-04 within 128 cycles.
 Requested convergence on MAX density matrix=1.00D-02.
 Requested convergence on             energy=1.00D-02.
 No special actions if energy rises.
 Keep R1 integrals in memory in canonical form, NReq=    38354313.
 EnCoef did   100 forward-backward iterations
 EnCoef did   100 forward-backward iterations
 EnCoef did    10 forward-backward iterations
 EnCoef did   100 forward-backward iterations
 EnCoef did   100 forward-backward iterations
 EnCoef did     1 forward-backward iterations
 SCF Done:  E(RB+HF-LYP) =  -1997.94919447     A.U. after   13 cycles
             Convg  =    0.6580D-04             -V/T =  2.0029
             S**2   =   0.0000

 **********************************************************************

            Population analysis using the SCF density.

 **********************************************************************

 Orbital symmetries:
       Occupied  (A') (A') (A') (A') (A') (A') (A') (A') (A') (A")
                 (A') (A') (A") (A') (A') (A') (A') (A") (A') (A')
                 (A') (A") (A') (A') (A') (A") (A') (A') (A') (A')
                 (A') (A') (A') (A') (A") (A") (A') (A') (A') (A')
                 (A") (A') (A') (A")
       Virtual   (A") (A') (A') (A") (A') (A") (A') (A') (A') (A')
                 (A') (A') (A') (A") (A") (A') (A') (A') (A") (A')
                 (A") (A') (A") (A") (A') (A') (A') (A') (A") (A')
                 (A') (A') (A') (A') (A') (A') (A") (A") (A') (A')
                 (A') (A') (A") (A') (A") (A') (A") (A') (A") (A')
                 (A') (A') (A') (A') (A') (A') (A') (A') (A") (A')
                 (A") (A") (A') (A') (A') (A") (A") (A") (A") (A')
                 (A') (A') (A") (A') (A') (A') (A") (A') (A') (A')
                 (A') (A') (A') (A') (A') (A')
 The electronic state is 1-A'.
 Alpha  occ. eigenvalues -- -145.39701-145.37385 -77.17338 -19.17636 -19.15816
 Alpha  occ. eigenvalues --  -19.09814 -19.09557 -15.46978 -15.44594 -12.60221
 Alpha  occ. eigenvalues --  -12.60157 -12.59943 -12.57852 -12.57781 -12.57567
 Alpha  occ. eigenvalues --   -6.63287  -4.79604  -4.79445  -4.79198  -1.84595
 Alpha  occ. eigenvalues --   -1.82275  -1.12633  -1.12318  -1.11792  -1.10394
 Alpha  occ. eigenvalues --   -1.10353  -1.09986  -1.01560  -0.96757  -0.95151
 Alpha  occ. eigenvalues --   -0.69725  -0.56539  -0.44444  -0.43358  -0.41386
 Alpha  occ. eigenvalues --   -0.34121  -0.34021  -0.33734  -0.31225  -0.30557
 Alpha  occ. eigenvalues --   -0.30314  -0.23653  -0.16635  -0.13142
 Alpha virt. eigenvalues --   -0.10963  -0.07573  -0.05590  -0.03711  -0.02583
 Alpha virt. eigenvalues --   -0.00562  -0.00027   0.01903   0.03605   0.05303
 Alpha virt. eigenvalues --    0.07492   0.08552   0.09947   0.10814   0.11791
 Alpha virt. eigenvalues --    0.13010   0.15259   0.16098   0.17785   0.17929
 Alpha virt. eigenvalues --    0.18409   0.19274   0.19343   0.23467   0.24663
 Alpha virt. eigenvalues --    0.26790   0.30789   0.31107   0.31967   0.33673
 Alpha virt. eigenvalues --    0.35315   0.38449   0.40929   0.42739   0.45315
 Alpha virt. eigenvalues --    0.48737   0.63143   0.65172   0.70818   0.86876
 Alpha virt. eigenvalues --    0.90043   0.92404   0.97636   0.99363   0.99812
 Alpha virt. eigenvalues --    1.00464   1.04189   1.04478   1.05655   1.07194
 Alpha virt. eigenvalues --    1.13330   1.16675   1.18368   1.25043   1.34246
 Alpha virt. eigenvalues --    1.41829   1.44045   1.44863   1.60586   1.63913
 Alpha virt. eigenvalues --    1.75595   1.78915   1.79815   1.81688   1.84972
 Alpha virt. eigenvalues --    1.85240   1.90201   1.97824   1.98648   2.02464
 Alpha virt. eigenvalues --    2.07142   2.10245   2.12088   2.13154   2.19465
 Alpha virt. eigenvalues --    2.37105   2.46001   2.46966   2.52126   2.70957
 Alpha virt. eigenvalues --    3.08046   3.48422   3.65830   3.67683   3.75765
 Alpha virt. eigenvalues --    3.77491
          Condensed to atoms (all electrons):
              1          2          3          4          5          6
     1  O    8.301448  -0.000804   0.000000  -0.000059  -0.000042   0.140005
     2  O   -0.000804   8.279150   0.000000  -0.000071  -0.000118   0.151840
     3  O    0.000000   0.000000   8.325153  -0.042739   0.266395  -0.006877
     4  O   -0.000059  -0.000071  -0.042739   8.575708   0.086362   0.105401
     5  P   -0.000042  -0.000118   0.266395   0.086362  14.014435   0.037816
     6  Ca   0.140005   0.151840  -0.006877   0.105401   0.037816  18.422085
     7  H    0.000000   0.000000  -0.000217  -0.000224   0.000325  -0.001836
     8  Ca  -0.001289  -0.001103   0.131720   0.094133   0.005698  -0.020743
              7          8
     1  O    0.000000  -0.001289
     2  O    0.000000  -0.001103
     3  O   -0.000217   0.131720
     4  O   -0.000224   0.094133
     5  P    0.000325   0.005698
     6  Ca  -0.001836  -0.020743
     7  H    0.941268   0.340265
     8  Ca   0.340265  18.573074
 Mulliken atomic charges:
              1
     1  O   -0.439260
     2  O   -0.428894
     3  O   -0.673434
     4  O   -0.818513
     5  P    0.589128
     6  Ca   1.172309
     7  H   -0.279581
     8  Ca   0.878245
 Sum of Mulliken charges=   0.00000
 Atomic charges with hydrogens summed into heavy atoms:
              1
     1  O   -0.439260
     2  O   -0.428894
     3  O   -0.673434
     4  O   -0.818513
     5  P    0.589128
     6  Ca   1.172309
     7  H    0.000000
     8  Ca   0.598664
 Sum of Mulliken charges=   0.00000
 Electronic spatial extent (au):  <R**2>=  2404.0329
 Charge=     0.0000 electrons
 Dipole moment (field-independent basis, Debye):
    X=     2.7866    Y=     5.5452    Z=     0.0000  Tot=     6.2060
 Quadrupole moment (field-independent basis, Debye-Ang):
   XX=   -86.4618   YY=  -119.1312   ZZ=   -59.8139
   XY=    -2.9427   XZ=     0.0000   YZ=     0.0000
 Traceless Quadrupole moment (field-independent basis, Debye-Ang):
   XX=     2.0071   YY=   -30.6622   ZZ=    28.6551
   XY=    -2.9427   XZ=     0.0000   YZ=     0.0000
 Octapole moment (field-independent basis, Debye-Ang**2):
  XXX=    34.1590  YYY=   107.1196  ZZZ=     0.0000  XYY=   104.4481
  XXY=   -51.8580  XXZ=     0.0000  XZZ=    -0.7321  YZZ=    -6.1235
  YYZ=     0.0000  XYZ=     0.0000
 Hexadecapole moment (field-independent basis, Debye-Ang**3):
 XXXX=  -709.9645 YYYY= -3633.9295 ZZZZ=   -75.7004 XXXY=   -46.7230
 XXXZ=     0.0000 YYYX=   -31.1725 YYYZ=     0.0000 ZZZX=     0.0000
 ZZZY=     0.0000 XXYY=  -828.4378 XXZZ=  -116.6469 YYZZ=  -402.9812
 XXYZ=     0.0000 YYXZ=     0.0000 ZZXY=   -36.0538
 N-N= 5.557413312655D+02 E-N=-5.844351347259D+03  KE= 1.992233537391D+03
 Symmetry A'   KE= 1.801660700102D+03
 Symmetry A"   KE= 1.905728372893D+02
 Merz-Kollman atomic radii used.
 Read replacement radii for each type of atom:
 Rad(20) =   1.188000000000D+00
 Atom Element Radius
    1     8    1.40
    2     8    1.40
    3     8    1.40
    4     8    1.40
    5    15    1.80
    6    20    1.19
    7     1    1.20
    8    20    1.19

 **********************************************************************

            Electrostatic Properties Using The SCF Density

 **********************************************************************

       Atomic Center    1 is at  -1.656429 -3.526190  0.000000
       Atomic Center    2 is at  -0.278844 -3.958810  0.000000
       Atomic Center    3 is at   1.654310  2.386811  0.000000
       Atomic Center    4 is at   0.000000  0.488161  0.000000
       Atomic Center    5 is at   1.605870  0.831357  0.000000
       Atomic Center    6 is at  -0.345243 -1.780390  0.000000
       Atomic Center    7 is at  -2.364781  3.967480  0.000000
       Atomic Center    8 is at  -0.628535  2.802510  0.000000
     902 points will be used for fitting atomic charges
 Fitting point charges to eletrostatic potential
 Charges from ESP fit, RMS=   0.00659 RRMS=   0.10923:
 Charge=   0.00000 Dipole=     2.8273     5.9489     0.0000 Tot=     6.5866
              1
     1  O   -0.533856
     2  O   -0.530281
     3  O   -0.509709
     4  O   -0.742223
     5  P    0.103724
     6  Ca   1.448100
     7  H   -0.698879
     8  Ca   1.463123
 -----------------------------------------------------------------

              Electrostatic Properties (Atomic Units)

 -----------------------------------------------------------------
    Center     Electric         -------- Electric Field --------
               Potential          X             Y             Z
 -----------------------------------------------------------------
    1 Atom    -22.366916
    2 Atom    -22.364263
    3 Atom    -22.311817
    4 Atom    -22.289215
    5 Atom    -54.048238
    6 Atom    -80.167194
    7 Atom     -1.190538
    8 Atom    -80.147649
 -----------------------------------------------------------------
 1\1\GINC-N026\SP\RB3LYP\6-31G(d,p)\Ca2H1O4P1\TIMN\04-May-2015\0\\# b3l
 yp/6-31G(d,p) pop=(ReadRadii,MK)\\Ca2HPO4_46\\0,1\O,0,-1.65643,-3.5261
 9,0.\O,0,-0.278845,-3.95881,0.\O,0,1.65431,2.38681,0.\O,0,0.,0.488161,
 0.\P,0,1.60587,0.831356,0.\Ca,0,-0.345244,-1.78039,0.\H,0,-2.36478,3.9
 6748,0.\Ca,0,-0.628534,2.80251,0.\\Version=EM64T-G03RevE.01\State=1-A'
 \HF=-1997.9491945\RMSD=6.580e-05\Thermal=0.\Dipole=1.0963388,2.1816377
 ,0.\PG=CS [SG(Ca2H1O4P1)]\\@


 ALL PAPERS THAT YOU SAVE WILL NEVER BE NEEDED UNTIL
 SUCH TIME AS THEY ARE DISPOSED OF, WHEN THEY BECOME
 ESSENTIAL.

           -- JOHN CORCORAN IN
              PAUL DICKSON'S "THE OFFICIAL RULES"
 Job cpu time:  0 days  0 hours  0 minutes 16.4 seconds.
 File lengths (MBytes):  RWF=     21 Int=      0 D2E=      0 Chk=     10 Scr=      1
 Normal termination of Gaussian 03 at Mon May  4 20:41:33 2015.
