 Entering Gaussian System, Link 0=/home/timn/tmp/g03.e01/g03
 Input=Ca2HPO4_29.xyz.gjf
 Output=Ca2HPO4_29.xyz.out
 Initial command:
 /home/timn/tmp/g03.e01/l1.exe /home/timn/tmp/g03.e01/Gau-30381.inp -scrdir=/home/timn/tmp/g03.e01/
 Default is to use a total of   2 processors:
                                2 via shared-memory
                                1 via Linda
 Entering Link 1 = /home/timn/tmp/g03.e01/l1.exe PID=     30382.
  
 Copyright (c) 1988,1990,1992,1993,1995,1998,2003,2004,2007, Gaussian, Inc.
                  All Rights Reserved.
  
 This is the Gaussian(R) 03 program.  It is based on the
 the Gaussian(R) 98 system (copyright 1998, Gaussian, Inc.),
 the Gaussian(R) 94 system (copyright 1995, Gaussian, Inc.),
 the Gaussian 92(TM) system (copyright 1992, Gaussian, Inc.),
 the Gaussian 90(TM) system (copyright 1990, Gaussian, Inc.),
 the Gaussian 88(TM) system (copyright 1988, Gaussian, Inc.),
 the Gaussian 86(TM) system (copyright 1986, Carnegie Mellon
 University), and the Gaussian 82(TM) system (copyright 1983,
 Carnegie Mellon University). Gaussian is a federally registered
 trademark of Gaussian, Inc.
  
 This software contains proprietary and confidential information,
 including trade secrets, belonging to Gaussian, Inc.
  
 This software is provided under written license and may be
 used, copied, transmitted, or stored only in accord with that
 written license.
  
 The following legend is applicable only to US Government
 contracts under FAR:
  
                    RESTRICTED RIGHTS LEGEND
  
 Use, reproduction and disclosure by the US Government is
 subject to restrictions as set forth in subparagraphs (a)
 and (c) of the Commercial Computer Software - Restricted
 Rights clause in FAR 52.227-19.
  
 Gaussian, Inc.
 340 Quinnipiac St., Bldg. 40, Wallingford CT 06492
  
  
 ---------------------------------------------------------------
 Warning -- This program may not be used in any manner that
 competes with the business of Gaussian, Inc. or will provide
 assistance to any competitor of Gaussian, Inc.  The licensee
 of this program is prohibited from giving any competitor of
 Gaussian, Inc. access to this program.  By using this program,
 the user acknowledges that Gaussian, Inc. is engaged in the
 business of creating and licensing software in the field of
 computational chemistry and represents and warrants to the
 licensee that it is not a competitor of Gaussian, Inc. and that
 it will not use this program in any manner prohibited above.
 ---------------------------------------------------------------
  

 Cite this work as:
 Gaussian 03, Revision E.01,
 M. J. Frisch, G. W. Trucks, H. B. Schlegel, G. E. Scuseria, 
 M. A. Robb, J. R. Cheeseman, J. A. Montgomery, Jr., T. Vreven, 
 K. N. Kudin, J. C. Burant, J. M. Millam, S. S. Iyengar, J. Tomasi, 
 V. Barone, B. Mennucci, M. Cossi, G. Scalmani, N. Rega, 
 G. A. Petersson, H. Nakatsuji, M. Hada, M. Ehara, K. Toyota, 
 R. Fukuda, J. Hasegawa, M. Ishida, T. Nakajima, Y. Honda, O. Kitao, 
 H. Nakai, M. Klene, X. Li, J. E. Knox, H. P. Hratchian, J. B. Cross, 
 V. Bakken, C. Adamo, J. Jaramillo, R. Gomperts, R. E. Stratmann, 
 O. Yazyev, A. J. Austin, R. Cammi, C. Pomelli, J. W. Ochterski, 
 P. Y. Ayala, K. Morokuma, G. A. Voth, P. Salvador, J. J. Dannenberg, 
 V. G. Zakrzewski, S. Dapprich, A. D. Daniels, M. C. Strain, 
 O. Farkas, D. K. Malick, A. D. Rabuck, K. Raghavachari, 
 J. B. Foresman, J. V. Ortiz, Q. Cui, A. G. Baboul, S. Clifford, 
 J. Cioslowski, B. B. Stefanov, G. Liu, A. Liashenko, P. Piskorz, 
 I. Komaromi, R. L. Martin, D. J. Fox, T. Keith, M. A. Al-Laham, 
 C. Y. Peng, A. Nanayakkara, M. Challacombe, P. M. W. Gill, 
 B. Johnson, W. Chen, M. W. Wong, C. Gonzalez, and J. A. Pople, 
 Gaussian, Inc., Wallingford CT, 2004.
 
 ******************************************
 Gaussian 03:  EM64T-G03RevE.01 11-Sep-2007
                 4-May-2015 
 ******************************************
 %nproc=2
 Will use up to    2 processors via shared memory.
 Default route:  MP2=Direct MaxDisk=2000MB
 -------------------------------------
 # b3lyp/6-31G(d,p) pop=(ReadRadii,MK)
 -------------------------------------
 1/38=1/1;
 2/17=6,18=5,40=1/2;
 3/5=1,6=6,7=101,11=2,16=1,25=1,30=1,74=-5/1,2,3;
 4//1;
 5/5=2,32=1,38=5/2;
 6/7=2,8=2,9=2,10=2,15=8,20=101,28=1/1,2;
 99/5=1,9=1/99;
 ----------
 Ca2HPO4_29
 ----------
 Symbolic Z-matrix:
 Charge =  0 Multiplicity = 1
 O                     0.00217   0.82249   1.46649 
 O                    -0.00148  -0.69533   1.14067 
 O                     1.30694   1.09316  -0.74329 
 P                     0.00271   1.48363  -0.03615 
 H                     0.00472   2.83679   0.33713 
 O                    -1.30281   1.09657  -0.74266 
 Ca                    1.83992  -1.09322  -0.21911 
 Ca                   -1.84412  -1.0881   -0.21912 
 
                          Input orientation:                          
 ---------------------------------------------------------------------
 Center     Atomic     Atomic              Coordinates (Angstroms)
 Number     Number      Type              X           Y           Z
 ---------------------------------------------------------------------
    1          8             0        0.002170    0.822492    1.466490
    2          8             0       -0.001479   -0.695328    1.140670
    3          8             0        1.306940    1.093160   -0.743289
    4         15             0        0.002713    1.483630   -0.036153
    5          1             0        0.004716    2.836790    0.337129
    6          8             0       -1.302810    1.096570   -0.742659
    7         20             0        1.839920   -1.093220   -0.219105
    8         20             0       -1.844120   -1.088100   -0.219122
 ---------------------------------------------------------------------
                    Distance matrix (angstroms):
                    1          2          3          4          5
     1  O    0.000000
     2  O    1.552401   0.000000
     3  O    2.580467   2.908600   0.000000
     4  P    1.641658   2.476447   1.534117   0.000000
     5  H    2.309298   3.622371   2.429678   1.403704   0.000000
     6  O    2.580394   2.907110   2.609752   1.534065   2.429801
     7  Ca   3.144600   2.323372   2.310648   3.170009   4.372911
     8  Ca   3.146496   2.323495   3.868052   3.171445   4.374057
                    6          7          8
     6  O    0.000000
     7  Ca   3.866011   0.000000
     8  Ca   2.310820   3.684044   0.000000
 Stoichiometry    Ca2HO4P
 Framework group  C1[X(Ca2HO4P)]
 Deg. of freedom    18
 Full point group                 C1
 Largest Abelian subgroup         C1      NOp   1
 Largest concise Abelian subgroup C1      NOp   1
                         Standard orientation:                         
 ---------------------------------------------------------------------
 Center     Atomic     Atomic              Coordinates (Angstroms)
 Number     Number      Type              X           Y           Z
 ---------------------------------------------------------------------
    1          8             0        0.002167    0.822492    1.466490
    2          8             0       -0.001476   -0.695328    1.140670
    3          8             0        1.306936    1.093165   -0.743289
    4         15             0        0.002708    1.483630   -0.036153
    5          1             0        0.004706    2.836790    0.337129
    6          8             0       -1.302814    1.096565   -0.742659
    7         20             0        1.839924   -1.093213   -0.219105
    8         20             0       -1.844116   -1.088107   -0.219122
 ---------------------------------------------------------------------
 Rotational constants (GHZ):      1.6563572      1.2555610      0.9123677
 Standard basis: 6-31G(d,p) (6D, 7F)
 There are   130 symmetry adapted basis functions of A   symmetry.
 Integral buffers will be    131072 words long.
 Raffenetti 2 integral format.
 Two-electron integral symmetry is turned on.
   130 basis functions,   323 primitive gaussians,   130 cartesian basis functions
    44 alpha electrons       44 beta electrons
       nuclear repulsion energy       649.8089624674 Hartrees.
 NAtoms=    8 NActive=    8 NUniq=    8 SFac= 7.50D-01 NAtFMM=   80 NAOKFM=F Big=F
 One-electron integrals computed using PRISM.
 NBasis=   130 RedAO= T  NBF=   130
 NBsUse=   130 1.00D-06 NBFU=   130
 Harris functional with IExCor=  402 diagonalized for initial guess.
 ExpMin= 2.60D-02 ExpMax= 3.53D+04 ExpMxC= 5.30D+03 IAcc=3 IRadAn=         5 AccDes= 0.00D+00
 HarFok:  IExCor= 402 AccDes= 0.00D+00 IRadAn=         5 IDoV=1
 ScaDFX=  1.000000  1.000000  1.000000  1.000000
 Initial guess orbital symmetries:
       Occupied  (A) (A) (A) (A) (A) (A) (A) (A) (A) (A) (A) (A)
                 (A) (A) (A) (A) (A) (A) (A) (A) (A) (A) (A) (A)
                 (A) (A) (A) (A) (A) (A) (A) (A) (A) (A) (A) (A)
                 (A) (A) (A) (A) (A) (A) (A) (A)
       Virtual   (A) (A) (A) (A) (A) (A) (A) (A) (A) (A) (A) (A)
                 (A) (A) (A) (A) (A) (A) (A) (A) (A) (A) (A) (A)
                 (A) (A) (A) (A) (A) (A) (A) (A) (A) (A) (A) (A)
                 (A) (A) (A) (A) (A) (A) (A) (A) (A) (A) (A) (A)
                 (A) (A) (A) (A) (A) (A) (A) (A) (A) (A) (A) (A)
                 (A) (A) (A) (A) (A) (A) (A) (A) (A) (A) (A) (A)
                 (A) (A) (A) (A) (A) (A) (A) (A) (A) (A) (A) (A)
                 (A) (A)
 The electronic state of the initial guess is 1-A.
 Requested convergence on RMS density matrix=1.00D-04 within 128 cycles.
 Requested convergence on MAX density matrix=1.00D-02.
 Requested convergence on             energy=1.00D-02.
 No special actions if energy rises.
 Keep R1 integrals in memory in canonical form, NReq=    38354117.
 EnCoef did     8 forward-backward iterations
 EnCoef did     7 forward-backward iterations
 EnCoef did     3 forward-backward iterations
 SCF Done:  E(RB+HF-LYP) =  -1998.05074515     A.U. after   10 cycles
             Convg  =    0.4540D-04             -V/T =  2.0030
             S**2   =   0.0000

 **********************************************************************

            Population analysis using the SCF density.

 **********************************************************************

 Orbital symmetries:
       Occupied  (A) (A) (A) (A) (A) (A) (A) (A) (A) (A) (A) (A)
                 (A) (A) (A) (A) (A) (A) (A) (A) (A) (A) (A) (A)
                 (A) (A) (A) (A) (A) (A) (A) (A) (A) (A) (A) (A)
                 (A) (A) (A) (A) (A) (A) (A) (A)
       Virtual   (A) (A) (A) (A) (A) (A) (A) (A) (A) (A) (A) (A)
                 (A) (A) (A) (A) (A) (A) (A) (A) (A) (A) (A) (A)
                 (A) (A) (A) (A) (A) (A) (A) (A) (A) (A) (A) (A)
                 (A) (A) (A) (A) (A) (A) (A) (A) (A) (A) (A) (A)
                 (A) (A) (A) (A) (A) (A) (A) (A) (A) (A) (A) (A)
                 (A) (A) (A) (A) (A) (A) (A) (A) (A) (A) (A) (A)
                 (A) (A) (A) (A) (A) (A) (A) (A) (A) (A) (A) (A)
                 (A) (A)
 The electronic state is 1-A.
 Alpha  occ. eigenvalues -- -145.38225-145.38200 -77.19600 -19.18251 -19.15344
 Alpha  occ. eigenvalues --  -19.11479 -19.11453 -15.45330 -15.45307 -12.58540
 Alpha  occ. eigenvalues --  -12.58516 -12.58462 -12.58439 -12.58418 -12.58394
 Alpha  occ. eigenvalues --   -6.64654  -4.81076  -4.80880  -4.80856  -1.82646
 Alpha  occ. eigenvalues --   -1.82617  -1.10746  -1.10285  -1.10233  -1.10075
 Alpha  occ. eigenvalues --   -1.09986  -1.09823  -1.04771  -0.97662  -0.93649
 Alpha  occ. eigenvalues --   -0.83570  -0.56788  -0.46209  -0.44519  -0.42097
 Alpha  occ. eigenvalues --   -0.38778  -0.37799  -0.32342  -0.31042  -0.30430
 Alpha  occ. eigenvalues --   -0.28987  -0.27254  -0.25087  -0.13975
 Alpha virt. eigenvalues --   -0.09080  -0.04170  -0.02848  -0.00780  -0.00559
 Alpha virt. eigenvalues --    0.00134   0.01435   0.03059   0.05663   0.08216
 Alpha virt. eigenvalues --    0.08842   0.10232   0.12322   0.13235   0.13366
 Alpha virt. eigenvalues --    0.14176   0.14790   0.14916   0.15578   0.18549
 Alpha virt. eigenvalues --    0.19088   0.20343   0.21076   0.22895   0.22940
 Alpha virt. eigenvalues --    0.29531   0.31230   0.33190   0.35460   0.37148
 Alpha virt. eigenvalues --    0.39075   0.39217   0.41734   0.44501   0.49980
 Alpha virt. eigenvalues --    0.55295   0.66349   0.69177   0.75450   0.87906
 Alpha virt. eigenvalues --    0.90923   0.94873   1.00099   1.03830   1.04505
 Alpha virt. eigenvalues --    1.07225   1.11226   1.14745   1.17080   1.17390
 Alpha virt. eigenvalues --    1.20430   1.22507   1.23061   1.28053   1.33026
 Alpha virt. eigenvalues --    1.43869   1.45368   1.60321   1.65771   1.68116
 Alpha virt. eigenvalues --    1.76856   1.82435   1.82757   1.83921   1.85245
 Alpha virt. eigenvalues --    1.87786   1.89337   1.91278   1.98781   2.04449
 Alpha virt. eigenvalues --    2.15185   2.17949   2.21890   2.26272   2.30502
 Alpha virt. eigenvalues --    2.37607   2.52478   2.72811   2.83672   2.85799
 Alpha virt. eigenvalues --    3.04991   3.53122   3.61627   3.81916   3.91401
 Alpha virt. eigenvalues --    4.03968
          Condensed to atoms (all electrons):
              1          2          3          4          5          6
     1  O    8.224354   0.003027  -0.029573   0.213735  -0.034707  -0.029555
     2  O    0.003027   8.403951  -0.005044   0.001971   0.001789  -0.005067
     3  O   -0.029573  -0.005044   8.286967   0.386839  -0.041937  -0.030090
     4  P    0.213735   0.001971   0.386839  12.596417   0.289941   0.386768
     5  H   -0.034707   0.001789  -0.041937   0.289941   0.901689  -0.041919
     6  O   -0.029555  -0.005067  -0.030090   0.386768  -0.041919   8.287692
     7  Ca   0.019030   0.068633   0.136840  -0.025509   0.002423  -0.010464
     8  Ca   0.018913   0.068628  -0.010456  -0.025498   0.002385   0.136669
              7          8
     1  O    0.019030   0.018913
     2  O    0.068633   0.068628
     3  O    0.136840  -0.010456
     4  P   -0.025509  -0.025498
     5  H    0.002423   0.002385
     6  O   -0.010464   0.136669
     7  Ca  19.033383   0.166134
     8  Ca   0.166134  19.037730
 Mulliken atomic charges:
              1
     1  O   -0.385224
     2  O   -0.537889
     3  O   -0.693546
     4  P    1.175334
     5  H   -0.079665
     6  O   -0.694035
     7  Ca   0.609530
     8  Ca   0.605494
 Sum of Mulliken charges=   0.00000
 Atomic charges with hydrogens summed into heavy atoms:
              1
     1  O   -0.385224
     2  O   -0.537889
     3  O   -0.693546
     4  P    1.095670
     5  H    0.000000
     6  O   -0.694035
     7  Ca   0.609530
     8  Ca   0.605494
 Sum of Mulliken charges=   0.00000
 Electronic spatial extent (au):  <R**2>=  1298.5178
 Charge=     0.0000 electrons
 Dipole moment (field-independent basis, Debye):
    X=     0.0489    Y=    -1.2362    Z=     0.0934  Tot=     1.2407
 Quadrupole moment (field-independent basis, Debye-Ang):
   XX=   -57.1224   YY=   -79.0880   ZZ=   -80.1797
   XY=    -0.1218   XZ=    -0.0161   YZ=     1.8512
 Traceless Quadrupole moment (field-independent basis, Debye-Ang):
   XX=    15.0076   YY=    -6.9580   ZZ=    -8.0496
   XY=    -0.1218   XZ=    -0.0161   YZ=     1.8512
 Octapole moment (field-independent basis, Debye-Ang**2):
  XXX=     0.5134  YYY=    85.0554  ZZZ=     9.8104  XYY=     0.3678
  XXY=    -1.7464  XXZ=    14.4552  XZZ=     0.1189  YZZ=    15.4645
  YYZ=    13.9443  XYZ=     0.0359
 Hexadecapole moment (field-independent basis, Debye-Ang**3):
 XXXX=  -934.2255 YYYY=  -908.9399 ZZZZ=  -339.4044 XXXY=    -1.2387
 XXXZ=    -0.2315 YYYX=    -0.6639 YYYZ=   -35.4987 ZZZX=    -0.1510
 ZZZY=   -26.4109 XXYY=  -346.4252 XXZZ=  -223.0206 YYZZ=  -211.8863
 XXYZ=    -7.7997 YYXZ=    -0.1156 ZZXY=    -0.2174
 N-N= 6.498089624674D+02 E-N=-6.031732386212D+03  KE= 1.992117053714D+03
 Merz-Kollman atomic radii used.
 Read replacement radii for each type of atom:
 Rad(20) =   1.188000000000D+00
 Atom Element Radius
    1     8    1.40
    2     8    1.40
    3     8    1.40
    4    15    1.80
    5     1    1.20
    6     8    1.40
    7    20    1.19
    8    20    1.19

 **********************************************************************

            Electrostatic Properties Using The SCF Density

 **********************************************************************

       Atomic Center    1 is at   0.002167  0.822492  1.466490
       Atomic Center    2 is at  -0.001476 -0.695328  1.140670
       Atomic Center    3 is at   1.306936  1.093165 -0.743289
       Atomic Center    4 is at   0.002708  1.483630 -0.036153
       Atomic Center    5 is at   0.004706  2.836790  0.337129
       Atomic Center    6 is at  -1.302814  1.096565 -0.742659
       Atomic Center    7 is at   1.839924 -1.093213 -0.219105
       Atomic Center    8 is at  -1.844116 -1.088107 -0.219122
     655 points will be used for fitting atomic charges
 Fitting point charges to eletrostatic potential
 Charges from ESP fit, RMS=   0.03129 RRMS=   0.56809:
 Charge=   0.00000 Dipole=     0.1465    -7.4395    -2.0442 Tot=     7.7166
              1
     1  O    0.019626
     2  O   -0.869027
     3  O   -0.634005
     4  P    0.841101
     5  H   -0.165432
     6  O   -0.628079
     7  Ca   0.729042
     8  Ca   0.706774
 -----------------------------------------------------------------

              Electrostatic Properties (Atomic Units)

 -----------------------------------------------------------------
    Center     Electric         -------- Electric Field --------
               Potential          X             Y             Z
 -----------------------------------------------------------------
    1 Atom    -22.283397
    2 Atom    -22.317575
    3 Atom    -22.348501
    4 Atom    -54.010193
    5 Atom     -1.087182
    6 Atom    -22.349331
    7 Atom    -80.161673
    8 Atom    -80.162523
 -----------------------------------------------------------------
 1\1\GINC-N028\SP\RB3LYP\6-31G(d,p)\Ca2H1O4P1\TIMN\04-May-2015\0\\# b3l
 yp/6-31G(d,p) pop=(ReadRadii,MK)\\Ca2HPO4_29\\0,1\O,0,0.00217,0.822492
 ,1.46649\O,0,-0.001479,-0.695328,1.14067\O,0,1.30694,1.09316,-0.743289
 \P,0,0.002713,1.48363,-0.036153\H,0,0.004716,2.83679,0.337129\O,0,-1.3
 0281,1.09657,-0.742659\Ca,0,1.83992,-1.09322,-0.219105\Ca,0,-1.84412,-
 1.0881,-0.219122\\Version=EM64T-G03RevE.01\State=1-A\HF=-1998.0507451\
 RMSD=4.540e-05\Thermal=0.\Dipole=0.0192354,-0.4863586,0.0367521\PG=C01
  [X(Ca2H1O4P1)]\\@


 A MAN SHOULD NEVER BE ASHAMED TO OWN HE HAS BEEN IN THE WRONG
 WHICH IS BUT SAYING IN OTHER WORDS,
 THAT HE IS WISER TODAY THAN HE WAS YESTERDAY.

                          -- JONATHAN SWIFT
 Job cpu time:  0 days  0 hours  0 minutes 23.7 seconds.
 File lengths (MBytes):  RWF=     21 Int=      0 D2E=      0 Chk=     10 Scr=      1
 Normal termination of Gaussian 03 at Mon May  4 20:08:33 2015.
