 Entering Gaussian System, Link 0=/home/timn/tmp/g03.e01/g03
 Input=Ca2HPO4_72.xyz.gjf
 Output=Ca2HPO4_72.xyz.out
 Initial command:
 /home/timn/tmp/g03.e01/l1.exe /home/timn/tmp/g03.e01/Gau-12577.inp -scrdir=/home/timn/tmp/g03.e01/
 Default is to use a total of   2 processors:
                                2 via shared-memory
                                1 via Linda
 Entering Link 1 = /home/timn/tmp/g03.e01/l1.exe PID=     12578.
  
 Copyright (c) 1988,1990,1992,1993,1995,1998,2003,2004,2007, Gaussian, Inc.
                  All Rights Reserved.
  
 This is the Gaussian(R) 03 program.  It is based on the
 the Gaussian(R) 98 system (copyright 1998, Gaussian, Inc.),
 the Gaussian(R) 94 system (copyright 1995, Gaussian, Inc.),
 the Gaussian 92(TM) system (copyright 1992, Gaussian, Inc.),
 the Gaussian 90(TM) system (copyright 1990, Gaussian, Inc.),
 the Gaussian 88(TM) system (copyright 1988, Gaussian, Inc.),
 the Gaussian 86(TM) system (copyright 1986, Carnegie Mellon
 University), and the Gaussian 82(TM) system (copyright 1983,
 Carnegie Mellon University). Gaussian is a federally registered
 trademark of Gaussian, Inc.
  
 This software contains proprietary and confidential information,
 including trade secrets, belonging to Gaussian, Inc.
  
 This software is provided under written license and may be
 used, copied, transmitted, or stored only in accord with that
 written license.
  
 The following legend is applicable only to US Government
 contracts under FAR:
  
                    RESTRICTED RIGHTS LEGEND
  
 Use, reproduction and disclosure by the US Government is
 subject to restrictions as set forth in subparagraphs (a)
 and (c) of the Commercial Computer Software - Restricted
 Rights clause in FAR 52.227-19.
  
 Gaussian, Inc.
 340 Quinnipiac St., Bldg. 40, Wallingford CT 06492
  
  
 ---------------------------------------------------------------
 Warning -- This program may not be used in any manner that
 competes with the business of Gaussian, Inc. or will provide
 assistance to any competitor of Gaussian, Inc.  The licensee
 of this program is prohibited from giving any competitor of
 Gaussian, Inc. access to this program.  By using this program,
 the user acknowledges that Gaussian, Inc. is engaged in the
 business of creating and licensing software in the field of
 computational chemistry and represents and warrants to the
 licensee that it is not a competitor of Gaussian, Inc. and that
 it will not use this program in any manner prohibited above.
 ---------------------------------------------------------------
  

 Cite this work as:
 Gaussian 03, Revision E.01,
 M. J. Frisch, G. W. Trucks, H. B. Schlegel, G. E. Scuseria, 
 M. A. Robb, J. R. Cheeseman, J. A. Montgomery, Jr., T. Vreven, 
 K. N. Kudin, J. C. Burant, J. M. Millam, S. S. Iyengar, J. Tomasi, 
 V. Barone, B. Mennucci, M. Cossi, G. Scalmani, N. Rega, 
 G. A. Petersson, H. Nakatsuji, M. Hada, M. Ehara, K. Toyota, 
 R. Fukuda, J. Hasegawa, M. Ishida, T. Nakajima, Y. Honda, O. Kitao, 
 H. Nakai, M. Klene, X. Li, J. E. Knox, H. P. Hratchian, J. B. Cross, 
 V. Bakken, C. Adamo, J. Jaramillo, R. Gomperts, R. E. Stratmann, 
 O. Yazyev, A. J. Austin, R. Cammi, C. Pomelli, J. W. Ochterski, 
 P. Y. Ayala, K. Morokuma, G. A. Voth, P. Salvador, J. J. Dannenberg, 
 V. G. Zakrzewski, S. Dapprich, A. D. Daniels, M. C. Strain, 
 O. Farkas, D. K. Malick, A. D. Rabuck, K. Raghavachari, 
 J. B. Foresman, J. V. Ortiz, Q. Cui, A. G. Baboul, S. Clifford, 
 J. Cioslowski, B. B. Stefanov, G. Liu, A. Liashenko, P. Piskorz, 
 I. Komaromi, R. L. Martin, D. J. Fox, T. Keith, M. A. Al-Laham, 
 C. Y. Peng, A. Nanayakkara, M. Challacombe, P. M. W. Gill, 
 B. Johnson, W. Chen, M. W. Wong, C. Gonzalez, and J. A. Pople, 
 Gaussian, Inc., Wallingford CT, 2004.
 
 ******************************************
 Gaussian 03:  EM64T-G03RevE.01 11-Sep-2007
                 4-May-2015 
 ******************************************
 %nproc=2
 Will use up to    2 processors via shared memory.
 Default route:  MP2=Direct MaxDisk=2000MB
 -------------------------------------
 # b3lyp/6-31G(d,p) pop=(ReadRadii,MK)
 -------------------------------------
 1/38=1/1;
 2/17=6,18=5,40=1/2;
 3/5=1,6=6,7=101,11=2,16=1,25=1,30=1,74=-5/1,2,3;
 4//1;
 5/5=2,32=1,38=5/2;
 6/7=2,8=2,9=2,10=2,15=8,20=101,28=1/1,2;
 99/5=1,9=1/99;
 ----------
 Ca2HPO4_72
 ----------
 Symbolic Z-matrix:
 Charge =  0 Multiplicity = 1
 O                     1.84899   1.12831  -0.4969 
 H                     2.60145   1.72983  -0.36215 
 O                     1.40404   0.87857   0.93499 
 P                    -1.95246  -1.13846  -0.00418 
 Ca                    1.7557   -1.31793   0.05907 
 O                    -0.49775  -0.91953  -0.56 
 Ca                   -0.54331   1.54939  -0.15994 
 O                    -2.4506    0.25237   0.42717 
 
                          Input orientation:                          
 ---------------------------------------------------------------------
 Center     Atomic     Atomic              Coordinates (Angstroms)
 Number     Number      Type              X           Y           Z
 ---------------------------------------------------------------------
    1          8             0        1.848990    1.128310   -0.496899
    2          1             0        2.601450    1.729830   -0.362150
    3          8             0        1.404040    0.878572    0.934994
    4         15             0       -1.952460   -1.138460   -0.004181
    5         20             0        1.755700   -1.317930    0.059073
    6          8             0       -0.497746   -0.919525   -0.559995
    7         20             0       -0.543311    1.549390   -0.159937
    8          8             0       -2.450600    0.252372    0.427167
 ---------------------------------------------------------------------
                    Distance matrix (angstroms):
                    1          2          3          4          5
     1  O    0.000000
     2  H    0.972718   0.000000
     3  O    1.520088   1.959850   0.000000
     4  P    4.453318   5.393823   4.026979   0.000000
     5  Ca   2.510358   3.190856   2.390716   3.713039   0.000000
     6  O    3.115249   4.082063   3.014123   1.572595   2.370652
     7  Ca   2.452337   3.156417   2.332605   3.038832   3.681704
     8  O    4.484154   5.322510   3.938053   1.539032   4.504920
                    6          7          8
     6  O    0.000000
     7  Ca   2.501532   0.000000
     8  O    2.482231   2.380063   0.000000
 Stoichiometry    Ca2HO4P
 Framework group  C1[X(Ca2HO4P)]
 Deg. of freedom    18
 Full point group                 C1
 Largest Abelian subgroup         C1      NOp   1
 Largest concise Abelian subgroup C1      NOp   1
                         Standard orientation:                         
 ---------------------------------------------------------------------
 Center     Atomic     Atomic              Coordinates (Angstroms)
 Number     Number      Type              X           Y           Z
 ---------------------------------------------------------------------
    1          8             0        1.848996    1.128304   -0.496899
    2          1             0        2.601458    1.729822   -0.362150
    3          8             0        1.404045    0.878568    0.934994
    4         15             0       -1.952461   -1.138453   -0.004181
    5         20             0        1.755698   -1.317935    0.059073
    6          8             0       -0.497747   -0.919523   -0.559995
    7         20             0       -0.543304    1.549392   -0.159937
    8          8             0       -2.450597    0.252380    0.427167
 ---------------------------------------------------------------------
 Rotational constants (GHZ):      1.7867693      1.0680517      0.7202101
 Standard basis: 6-31G(d,p) (6D, 7F)
 There are   130 symmetry adapted basis functions of A   symmetry.
 Integral buffers will be    131072 words long.
 Raffenetti 2 integral format.
 Two-electron integral symmetry is turned on.
   130 basis functions,   323 primitive gaussians,   130 cartesian basis functions
    44 alpha electrons       44 beta electrons
       nuclear repulsion energy       618.7256755514 Hartrees.
 NAtoms=    8 NActive=    8 NUniq=    8 SFac= 7.50D-01 NAtFMM=   80 NAOKFM=F Big=F
 One-electron integrals computed using PRISM.
 NBasis=   130 RedAO= T  NBF=   130
 NBsUse=   130 1.00D-06 NBFU=   130
 Harris functional with IExCor=  402 diagonalized for initial guess.
 ExpMin= 2.60D-02 ExpMax= 3.53D+04 ExpMxC= 5.30D+03 IAcc=3 IRadAn=         5 AccDes= 0.00D+00
 HarFok:  IExCor= 402 AccDes= 0.00D+00 IRadAn=         5 IDoV=1
 ScaDFX=  1.000000  1.000000  1.000000  1.000000
 Initial guess orbital symmetries:
       Occupied  (A) (A) (A) (A) (A) (A) (A) (A) (A) (A) (A) (A)
                 (A) (A) (A) (A) (A) (A) (A) (A) (A) (A) (A) (A)
                 (A) (A) (A) (A) (A) (A) (A) (A) (A) (A) (A) (A)
                 (A) (A) (A) (A) (A) (A) (A) (A)
       Virtual   (A) (A) (A) (A) (A) (A) (A) (A) (A) (A) (A) (A)
                 (A) (A) (A) (A) (A) (A) (A) (A) (A) (A) (A) (A)
                 (A) (A) (A) (A) (A) (A) (A) (A) (A) (A) (A) (A)
                 (A) (A) (A) (A) (A) (A) (A) (A) (A) (A) (A) (A)
                 (A) (A) (A) (A) (A) (A) (A) (A) (A) (A) (A) (A)
                 (A) (A) (A) (A) (A) (A) (A) (A) (A) (A) (A) (A)
                 (A) (A) (A) (A) (A) (A) (A) (A) (A) (A) (A) (A)
                 (A) (A)
 The electronic state of the initial guess is 1-A.
 Requested convergence on RMS density matrix=1.00D-04 within 128 cycles.
 Requested convergence on MAX density matrix=1.00D-02.
 Requested convergence on             energy=1.00D-02.
 No special actions if energy rises.
 Keep R1 integrals in memory in canonical form, NReq=    38353818.
 EnCoef did     9 forward-backward iterations
 EnCoef did   100 forward-backward iterations
 EnCoef did     5 forward-backward iterations
 EnCoef did   100 forward-backward iterations
 EnCoef did   100 forward-backward iterations
 EnCoef did     5 forward-backward iterations
 EnCoef did     1 forward-backward iterations
 SCF Done:  E(RB+HF-LYP) =  -1998.03095171     A.U. after   14 cycles
             Convg  =    0.7116D-04             -V/T =  2.0029
             S**2   =   0.0000

 **********************************************************************

            Population analysis using the SCF density.

 **********************************************************************

 Orbital symmetries:
       Occupied  (A) (A) (A) (A) (A) (A) (A) (A) (A) (A) (A) (A)
                 (A) (A) (A) (A) (A) (A) (A) (A) (A) (A) (A) (A)
                 (A) (A) (A) (A) (A) (A) (A) (A) (A) (A) (A) (A)
                 (A) (A) (A) (A) (A) (A) (A) (A)
       Virtual   (A) (A) (A) (A) (A) (A) (A) (A) (A) (A) (A) (A)
                 (A) (A) (A) (A) (A) (A) (A) (A) (A) (A) (A) (A)
                 (A) (A) (A) (A) (A) (A) (A) (A) (A) (A) (A) (A)
                 (A) (A) (A) (A) (A) (A) (A) (A) (A) (A) (A) (A)
                 (A) (A) (A) (A) (A) (A) (A) (A) (A) (A) (A) (A)
                 (A) (A) (A) (A) (A) (A) (A) (A) (A) (A) (A) (A)
                 (A) (A) (A) (A) (A) (A) (A) (A) (A) (A) (A) (A)
                 (A) (A)
 The electronic state is 1-A.
 Alpha  occ. eigenvalues -- -145.38278-145.37114 -77.17254 -19.24025 -19.17055
 Alpha  occ. eigenvalues --  -19.15613 -19.14960 -15.45375 -15.44237 -12.58581
 Alpha  occ. eigenvalues --  -12.58518 -12.58474 -12.57430 -12.57378 -12.57328
 Alpha  occ. eigenvalues --   -6.63082  -4.79489  -4.79286  -4.78866  -1.82733
 Alpha  occ. eigenvalues --   -1.81548  -1.12249  -1.10589  -1.10370  -1.09329
 Alpha  occ. eigenvalues --   -1.09046  -1.09044  -1.06783  -1.01490  -0.95716
 Alpha  occ. eigenvalues --   -0.85686  -0.55031  -0.53501  -0.44044  -0.43405
 Alpha  occ. eigenvalues --   -0.42580  -0.41314  -0.40569  -0.32959  -0.31614
 Alpha  occ. eigenvalues --   -0.29646  -0.28587  -0.28120  -0.11437
 Alpha virt. eigenvalues --   -0.08478  -0.08095  -0.04661  -0.01894  -0.00984
 Alpha virt. eigenvalues --   -0.00345  -0.00074   0.01614   0.02855   0.05298
 Alpha virt. eigenvalues --    0.06391   0.07933   0.09848   0.10805   0.12142
 Alpha virt. eigenvalues --    0.13649   0.14584   0.15423   0.17522   0.18667
 Alpha virt. eigenvalues --    0.19215   0.19760   0.22848   0.23636   0.26743
 Alpha virt. eigenvalues --    0.27067   0.30173   0.30643   0.31654   0.34942
 Alpha virt. eigenvalues --    0.36481   0.40372   0.40823   0.43547   0.44544
 Alpha virt. eigenvalues --    0.50435   0.65754   0.66140   0.72478   0.77561
 Alpha virt. eigenvalues --    0.85364   0.86481   0.93522   0.98130   0.99529
 Alpha virt. eigenvalues --    1.01830   1.04061   1.05045   1.10583   1.12381
 Alpha virt. eigenvalues --    1.15670   1.16658   1.20135   1.25588   1.29518
 Alpha virt. eigenvalues --    1.35220   1.42488   1.51245   1.52073   1.57329
 Alpha virt. eigenvalues --    1.64822   1.78499   1.80265   1.82809   1.83576
 Alpha virt. eigenvalues --    1.84846   1.88034   1.88397   1.92830   1.97747
 Alpha virt. eigenvalues --    2.00935   2.06110   2.15408   2.27820   2.31250
 Alpha virt. eigenvalues --    2.60037   2.61446   2.73756   2.75844   2.96322
 Alpha virt. eigenvalues --    3.36546   3.47596   3.68370   3.74151   3.76711
 Alpha virt. eigenvalues --    3.97950
          Condensed to atoms (all electrons):
              1          2          3          4          5          6
     1  O    8.132134   0.262089   0.003582  -0.000367   0.005833  -0.000605
     2  H    0.262089   0.380841  -0.018250   0.000064   0.008066  -0.000012
     3  O    0.003582  -0.018250   8.391718  -0.000713   0.054006  -0.004099
     4  P   -0.000367   0.000064  -0.000713  13.727242   0.031471   0.201182
     5  Ca   0.005833   0.008066   0.054006   0.031471  19.457959   0.044639
     6  O   -0.000605  -0.000012  -0.004099   0.201182   0.044639   8.448434
     7  Ca   0.017829   0.004688   0.085758   0.024236   0.025016   0.076489
     8  O   -0.000007  -0.000001  -0.000024   0.280060  -0.010633  -0.045989
              7          8
     1  O    0.017829  -0.000007
     2  H    0.004688  -0.000001
     3  O    0.085758  -0.000024
     4  P    0.024236   0.280060
     5  Ca   0.025016  -0.010633
     6  O    0.076489  -0.045989
     7  Ca  18.851379   0.111799
     8  O    0.111799   8.298075
 Mulliken atomic charges:
              1
     1  O   -0.420489
     2  H    0.362516
     3  O   -0.511978
     4  P    0.736825
     5  Ca   0.383643
     6  O   -0.720039
     7  Ca   0.802805
     8  O   -0.633281
 Sum of Mulliken charges=   0.00000
 Atomic charges with hydrogens summed into heavy atoms:
              1
     1  O   -0.057974
     2  H    0.000000
     3  O   -0.511978
     4  P    0.736825
     5  Ca   0.383643
     6  O   -0.720039
     7  Ca   0.802805
     8  O   -0.633281
 Sum of Mulliken charges=   0.00000
 Electronic spatial extent (au):  <R**2>=  1486.8353
 Charge=     0.0000 electrons
 Dipole moment (field-independent basis, Debye):
    X=     0.1467    Y=     2.3249    Z=    -0.6347  Tot=     2.4144
 Quadrupole moment (field-independent basis, Debye-Ang):
   XX=   -81.8746   YY=   -77.9330   ZZ=   -76.6977
   XY=     6.2749   XZ=    -0.7999   YZ=    -1.0689
 Traceless Quadrupole moment (field-independent basis, Debye-Ang):
   XX=    -3.0395   YY=     0.9021   ZZ=     2.1374
   XY=     6.2749   XZ=    -0.7999   YZ=    -1.0689
 Octapole moment (field-independent basis, Debye-Ang**2):
  XXX=   -12.4444  YYY=    31.9858  ZZZ=     7.5119  XYY=   -19.0318
  XXY=    24.0797  XXZ=   -11.6663  XZZ=   -17.5349  YZZ=     3.5708
  YYZ=     6.4389  XYZ=    -3.3323
 Hexadecapole moment (field-independent basis, Debye-Ang**3):
 XXXX= -1437.7237 YYYY= -1121.0805 ZZZZ=  -248.8739 XXXY=   195.3701
 XXXZ=    -3.6322 YYYX=   153.0382 YYYZ=    37.5765 ZZZX=   -10.4178
 ZZZY=    23.7807 XXYY=  -418.6616 XXZZ=  -278.2513 YYZZ=  -222.0240
 XXYZ=     0.1479 YYXZ=   -15.6315 ZZXY=    32.4407
 N-N= 6.187256755514D+02 E-N=-5.969010854536D+03  KE= 1.992197178741D+03
 Merz-Kollman atomic radii used.
 Read replacement radii for each type of atom:
 Rad(20) =   1.188000000000D+00
 Atom Element Radius
    1     8    1.40
    2     1    1.20
    3     8    1.40
    4    15    1.80
    5    20    1.19
    6     8    1.40
    7    20    1.19
    8     8    1.40

 **********************************************************************

            Electrostatic Properties Using The SCF Density

 **********************************************************************

       Atomic Center    1 is at   1.848996  1.128304 -0.496899
       Atomic Center    2 is at   2.601458  1.729822 -0.362150
       Atomic Center    3 is at   1.404045  0.878568  0.934994
       Atomic Center    4 is at  -1.952461 -1.138453 -0.004181
       Atomic Center    5 is at   1.755698 -1.317935  0.059073
       Atomic Center    6 is at  -0.497747 -0.919523 -0.559995
       Atomic Center    7 is at  -0.543304  1.549392 -0.159937
       Atomic Center    8 is at  -2.450597  0.252380  0.427167
     758 points will be used for fitting atomic charges
 Fitting point charges to eletrostatic potential
 Charges from ESP fit, RMS=   0.02741 RRMS=   0.62147:
 Charge=   0.00000 Dipole=     3.2748     1.5046    -1.3921 Tot=     3.8634
              1
     1  O   -0.454224
     2  H    0.077631
     3  O   -0.335329
     4  P   -0.132870
     5  Ca   0.531045
     6  O   -0.210212
     7  Ca   0.932271
     8  O   -0.408313
 -----------------------------------------------------------------

              Electrostatic Properties (Atomic Units)

 -----------------------------------------------------------------
    Center     Electric         -------- Electric Field --------
               Potential          X             Y             Z
 -----------------------------------------------------------------
    1 Atom    -22.224974
    2 Atom     -0.947504
    3 Atom    -22.302052
    4 Atom    -54.046919
    5 Atom    -80.171600
    6 Atom    -22.310518
    7 Atom    -80.161044
    8 Atom    -22.319371
 -----------------------------------------------------------------
 1\1\GINC-N029\SP\RB3LYP\6-31G(d,p)\Ca2H1O4P1\TIMN\04-May-2015\0\\# b3l
 yp/6-31G(d,p) pop=(ReadRadii,MK)\\Ca2HPO4_72\\0,1\O,0,1.84899,1.12831,
 -0.496899\H,0,2.60145,1.72983,-0.36215\O,0,1.40404,0.878572,0.934994\P
 ,0,-1.95246,-1.13846,-0.004181\Ca,0,1.7557,-1.31793,0.059073\O,0,-0.49
 7746,-0.919525,-0.559995\Ca,0,-0.543311,1.54939,-0.159937\O,0,-2.4506,
 0.252372,0.427167\\Version=EM64T-G03RevE.01\State=1-A\HF=-1998.0309517
 \RMSD=7.116e-05\Thermal=0.\Dipole=0.0577067,0.9146856,-0.2497224\PG=C0
 1 [X(Ca2H1O4P1)]\\@


 WERE I TO AWAIT PERFECTION, MY BOOK WOULD NEVER BE FINISHED.
                                    -- HISTORY OF CHINESE WRITING

                                       TAI T'UNG, 13TH CENTURY
 Job cpu time:  0 days  0 hours  0 minutes 28.3 seconds.
 File lengths (MBytes):  RWF=     21 Int=      0 D2E=      0 Chk=     10 Scr=      1
 Normal termination of Gaussian 03 at Mon May  4 20:08:54 2015.
