 Entering Gaussian System, Link 0=/home/timn/tmp/g03.e01/g03
 Input=Ca2HPO4_69.xyz.gjf
 Output=Ca2HPO4_69.xyz.out
 Initial command:
 /home/timn/tmp/g03.e01/l1.exe /home/timn/tmp/g03.e01/Gau-11617.inp -scrdir=/home/timn/tmp/g03.e01/
 Default is to use a total of   2 processors:
                                2 via shared-memory
                                1 via Linda
 Entering Link 1 = /home/timn/tmp/g03.e01/l1.exe PID=     11618.
  
 Copyright (c) 1988,1990,1992,1993,1995,1998,2003,2004,2007, Gaussian, Inc.
                  All Rights Reserved.
  
 This is the Gaussian(R) 03 program.  It is based on the
 the Gaussian(R) 98 system (copyright 1998, Gaussian, Inc.),
 the Gaussian(R) 94 system (copyright 1995, Gaussian, Inc.),
 the Gaussian 92(TM) system (copyright 1992, Gaussian, Inc.),
 the Gaussian 90(TM) system (copyright 1990, Gaussian, Inc.),
 the Gaussian 88(TM) system (copyright 1988, Gaussian, Inc.),
 the Gaussian 86(TM) system (copyright 1986, Carnegie Mellon
 University), and the Gaussian 82(TM) system (copyright 1983,
 Carnegie Mellon University). Gaussian is a federally registered
 trademark of Gaussian, Inc.
  
 This software contains proprietary and confidential information,
 including trade secrets, belonging to Gaussian, Inc.
  
 This software is provided under written license and may be
 used, copied, transmitted, or stored only in accord with that
 written license.
  
 The following legend is applicable only to US Government
 contracts under FAR:
  
                    RESTRICTED RIGHTS LEGEND
  
 Use, reproduction and disclosure by the US Government is
 subject to restrictions as set forth in subparagraphs (a)
 and (c) of the Commercial Computer Software - Restricted
 Rights clause in FAR 52.227-19.
  
 Gaussian, Inc.
 340 Quinnipiac St., Bldg. 40, Wallingford CT 06492
  
  
 ---------------------------------------------------------------
 Warning -- This program may not be used in any manner that
 competes with the business of Gaussian, Inc. or will provide
 assistance to any competitor of Gaussian, Inc.  The licensee
 of this program is prohibited from giving any competitor of
 Gaussian, Inc. access to this program.  By using this program,
 the user acknowledges that Gaussian, Inc. is engaged in the
 business of creating and licensing software in the field of
 computational chemistry and represents and warrants to the
 licensee that it is not a competitor of Gaussian, Inc. and that
 it will not use this program in any manner prohibited above.
 ---------------------------------------------------------------
  

 Cite this work as:
 Gaussian 03, Revision E.01,
 M. J. Frisch, G. W. Trucks, H. B. Schlegel, G. E. Scuseria, 
 M. A. Robb, J. R. Cheeseman, J. A. Montgomery, Jr., T. Vreven, 
 K. N. Kudin, J. C. Burant, J. M. Millam, S. S. Iyengar, J. Tomasi, 
 V. Barone, B. Mennucci, M. Cossi, G. Scalmani, N. Rega, 
 G. A. Petersson, H. Nakatsuji, M. Hada, M. Ehara, K. Toyota, 
 R. Fukuda, J. Hasegawa, M. Ishida, T. Nakajima, Y. Honda, O. Kitao, 
 H. Nakai, M. Klene, X. Li, J. E. Knox, H. P. Hratchian, J. B. Cross, 
 V. Bakken, C. Adamo, J. Jaramillo, R. Gomperts, R. E. Stratmann, 
 O. Yazyev, A. J. Austin, R. Cammi, C. Pomelli, J. W. Ochterski, 
 P. Y. Ayala, K. Morokuma, G. A. Voth, P. Salvador, J. J. Dannenberg, 
 V. G. Zakrzewski, S. Dapprich, A. D. Daniels, M. C. Strain, 
 O. Farkas, D. K. Malick, A. D. Rabuck, K. Raghavachari, 
 J. B. Foresman, J. V. Ortiz, Q. Cui, A. G. Baboul, S. Clifford, 
 J. Cioslowski, B. B. Stefanov, G. Liu, A. Liashenko, P. Piskorz, 
 I. Komaromi, R. L. Martin, D. J. Fox, T. Keith, M. A. Al-Laham, 
 C. Y. Peng, A. Nanayakkara, M. Challacombe, P. M. W. Gill, 
 B. Johnson, W. Chen, M. W. Wong, C. Gonzalez, and J. A. Pople, 
 Gaussian, Inc., Wallingford CT, 2004.
 
 ******************************************
 Gaussian 03:  EM64T-G03RevE.01 11-Sep-2007
                 4-May-2015 
 ******************************************
 %nproc=2
 Will use up to    2 processors via shared memory.
 Default route:  MP2=Direct MaxDisk=2000MB
 -------------------------------------
 # b3lyp/6-31G(d,p) pop=(ReadRadii,MK)
 -------------------------------------
 1/38=1/1;
 2/17=6,18=5,40=1/2;
 3/5=1,6=6,7=101,11=2,16=1,25=1,30=1,74=-5/1,2,3;
 4//1;
 5/5=2,32=1,38=5/2;
 6/7=2,8=2,9=2,10=2,15=8,20=101,28=1/1,2;
 99/5=1,9=1/99;
 ----------
 Ca2HPO4_69
 ----------
 Symbolic Z-matrix:
 Charge =  0 Multiplicity = 1
 O                     2.3437    0.65737   0.16118 
 O                    -0.37     -1.86736  -0.20249 
 Ca                   -1.76707  -0.18681  -0.18148 
 P                     1.41589   1.88691  -0.01717 
 Ca                    1.65391  -1.51963   0.1102 
 O                    -0.049     1.4957   -0.17787 
 O                    -3.72241   0.37046   0.34448 
 H                    -4.59346   0.5758    0.68072 
 
                          Input orientation:                          
 ---------------------------------------------------------------------
 Center     Atomic     Atomic              Coordinates (Angstroms)
 Number     Number      Type              X           Y           Z
 ---------------------------------------------------------------------
    1          8             0        2.343700    0.657366    0.161184
    2          8             0       -0.369997   -1.867360   -0.202491
    3         20             0       -1.767070   -0.186807   -0.181477
    4         15             0        1.415890    1.886910   -0.017174
    5         20             0        1.653910   -1.519630    0.110197
    6          8             0       -0.048999    1.495700   -0.177866
    7          8             0       -3.722410    0.370455    0.344482
    8          1             0       -4.593460    0.575799    0.680718
 ---------------------------------------------------------------------
                    Distance matrix (angstroms):
                    1          2          3          4          5
     1  O    0.000000
     2  O    3.724332   0.000000
     3  Ca   4.210520   2.185523   0.000000
     4  P    1.550620   4.161524   3.802438   0.000000
     5  Ca   2.284233   2.077231   3.683014   3.417220   0.000000
     6  O    2.557883   3.378434   2.404706   1.524719   3.474924
     7  O    6.075657   4.067637   2.100126   5.369596   5.703694
     8  H    6.957065   4.958500   3.051791   6.190182   6.614072
                    6          7          8
     6  O    0.000000
     7  O    3.877238   0.000000
     8  H    4.715454   0.956007   0.000000
 Stoichiometry    Ca2HO4P
 Framework group  C1[X(Ca2HO4P)]
 Deg. of freedom    18
 Full point group                 C1
 Largest Abelian subgroup         C1      NOp   1
 Largest concise Abelian subgroup C1      NOp   1
                         Standard orientation:                         
 ---------------------------------------------------------------------
 Center     Atomic     Atomic              Coordinates (Angstroms)
 Number     Number      Type              X           Y           Z
 ---------------------------------------------------------------------
    1          8             0        2.343699    0.657368    0.161184
    2          8             0       -0.369996   -1.867360   -0.202491
    3         20             0       -1.767070   -0.186809   -0.181477
    4         15             0        1.415888    1.886911   -0.017174
    5         20             0        1.653911   -1.519628    0.110197
    6          8             0       -0.049001    1.495700   -0.177866
    7          8             0       -3.722411    0.370452    0.344482
    8          1             0       -4.593461    0.575795    0.680718
 ---------------------------------------------------------------------
 Rotational constants (GHZ):      1.6271197      0.7961105      0.5411266
 Standard basis: 6-31G(d,p) (6D, 7F)
 There are   130 symmetry adapted basis functions of A   symmetry.
 Integral buffers will be    131072 words long.
 Raffenetti 2 integral format.
 Two-electron integral symmetry is turned on.
   130 basis functions,   323 primitive gaussians,   130 cartesian basis functions
    44 alpha electrons       44 beta electrons
       nuclear repulsion energy       574.9082694307 Hartrees.
 NAtoms=    8 NActive=    8 NUniq=    8 SFac= 7.50D-01 NAtFMM=   80 NAOKFM=F Big=F
 One-electron integrals computed using PRISM.
 NBasis=   130 RedAO= T  NBF=   130
 NBsUse=   130 1.00D-06 NBFU=   130
 Harris functional with IExCor=  402 diagonalized for initial guess.
 ExpMin= 2.60D-02 ExpMax= 3.53D+04 ExpMxC= 5.30D+03 IAcc=3 IRadAn=         5 AccDes= 0.00D+00
 HarFok:  IExCor= 402 AccDes= 0.00D+00 IRadAn=         5 IDoV=1
 ScaDFX=  1.000000  1.000000  1.000000  1.000000
 Initial guess orbital symmetries:
       Occupied  (A) (A) (A) (A) (A) (A) (A) (A) (A) (A) (A) (A)
                 (A) (A) (A) (A) (A) (A) (A) (A) (A) (A) (A) (A)
                 (A) (A) (A) (A) (A) (A) (A) (A) (A) (A) (A) (A)
                 (A) (A) (A) (A) (A) (A) (A) (A)
       Virtual   (A) (A) (A) (A) (A) (A) (A) (A) (A) (A) (A) (A)
                 (A) (A) (A) (A) (A) (A) (A) (A) (A) (A) (A) (A)
                 (A) (A) (A) (A) (A) (A) (A) (A) (A) (A) (A) (A)
                 (A) (A) (A) (A) (A) (A) (A) (A) (A) (A) (A) (A)
                 (A) (A) (A) (A) (A) (A) (A) (A) (A) (A) (A) (A)
                 (A) (A) (A) (A) (A) (A) (A) (A) (A) (A) (A) (A)
                 (A) (A) (A) (A) (A) (A) (A) (A) (A) (A) (A) (A)
                 (A) (A)
 The electronic state of the initial guess is 1-A.
 Requested convergence on RMS density matrix=1.00D-04 within 128 cycles.
 Requested convergence on MAX density matrix=1.00D-02.
 Requested convergence on             energy=1.00D-02.
 No special actions if energy rises.
 Keep R1 integrals in memory in canonical form, NReq=    38354263.
 EnCoef did     2 forward-backward iterations
 SCF Done:  E(RB+HF-LYP) =  -1998.14570914     A.U. after    9 cycles
             Convg  =    0.4851D-04             -V/T =  2.0029
             S**2   =   0.0000

 **********************************************************************

            Population analysis using the SCF density.

 **********************************************************************

 Orbital symmetries:
       Occupied  (A) (A) (A) (A) (A) (A) (A) (A) (A) (A) (A) (A)
                 (A) (A) (A) (A) (A) (A) (A) (A) (A) (A) (A) (A)
                 (A) (A) (A) (A) (A) (A) (A) (A) (A) (A) (A) (A)
                 (A) (A) (A) (A) (A) (A) (A) (A)
       Virtual   (A) (A) (A) (A) (A) (A) (A) (A) (A) (A) (A) (A)
                 (A) (A) (A) (A) (A) (A) (A) (A) (A) (A) (A) (A)
                 (A) (A) (A) (A) (A) (A) (A) (A) (A) (A) (A) (A)
                 (A) (A) (A) (A) (A) (A) (A) (A) (A) (A) (A) (A)
                 (A) (A) (A) (A) (A) (A) (A) (A) (A) (A) (A) (A)
                 (A) (A) (A) (A) (A) (A) (A) (A) (A) (A) (A) (A)
                 (A) (A) (A) (A) (A) (A) (A) (A) (A) (A) (A) (A)
                 (A) (A)
 The electronic state is 1-A.
 Alpha  occ. eigenvalues -- -145.37215-145.27417 -77.16130 -19.14530 -19.13959
 Alpha  occ. eigenvalues --  -19.00561 -19.00140 -15.44361 -15.34750 -12.57583
 Alpha  occ. eigenvalues --  -12.57537 -12.57375 -12.48008 -12.47908 -12.47718
 Alpha  occ. eigenvalues --   -6.61874  -4.78312  -4.78071  -4.77661  -1.81942
 Alpha  occ. eigenvalues --   -1.72670  -1.09872  -1.09726  -1.08896  -1.01429
 Alpha  occ. eigenvalues --   -1.00981  -1.00054  -0.99664  -0.94877  -0.81745
 Alpha  occ. eigenvalues --   -0.74067  -0.53672  -0.43024  -0.39412  -0.39272
 Alpha  occ. eigenvalues --   -0.34070  -0.31878  -0.30368  -0.27180  -0.20017
 Alpha  occ. eigenvalues --   -0.18469  -0.18364  -0.18281  -0.17957
 Alpha virt. eigenvalues --   -0.09236  -0.06219  -0.02177  -0.01295   0.00312
 Alpha virt. eigenvalues --    0.01512   0.03496   0.04601   0.05460   0.06940
 Alpha virt. eigenvalues --    0.10580   0.11189   0.11914   0.13325   0.14703
 Alpha virt. eigenvalues --    0.16102   0.17847   0.20424   0.20588   0.22601
 Alpha virt. eigenvalues --    0.23746   0.24051   0.27691   0.28428   0.31720
 Alpha virt. eigenvalues --    0.32420   0.32525   0.32611   0.37616   0.41449
 Alpha virt. eigenvalues --    0.42348   0.44426   0.46169   0.46393   0.53884
 Alpha virt. eigenvalues --    0.55342   0.66262   0.67543   0.71059   0.88673
 Alpha virt. eigenvalues --    0.94674   1.00089   1.00849   1.01572   1.05324
 Alpha virt. eigenvalues --    1.06074   1.08059   1.10226   1.12624   1.13701
 Alpha virt. eigenvalues --    1.21408   1.24498   1.26398   1.33794   1.35493
 Alpha virt. eigenvalues --    1.39044   1.46556   1.52252   1.73696   1.75082
 Alpha virt. eigenvalues --    1.79018   1.79775   1.81978   1.83326   1.88319
 Alpha virt. eigenvalues --    1.93075   1.93426   1.95579   1.97574   1.99070
 Alpha virt. eigenvalues --    1.99539   2.01489   2.03694   2.12492   2.20101
 Alpha virt. eigenvalues --    2.49649   2.65569   2.76183   2.77040   2.79226
 Alpha virt. eigenvalues --    3.48252   3.52953   3.67729   3.74382   3.82544
 Alpha virt. eigenvalues --    3.92685
          Condensed to atoms (all electrons):
              1          2          3          4          5          6
     1  O    8.371456  -0.000384  -0.000976   0.234091   0.116540  -0.032833
     2  O   -0.000384   8.430537   0.195171  -0.001079   0.274998  -0.002039
     3  Ca  -0.000976   0.195171  18.693929  -0.017943  -0.210667   0.089673
     4  P    0.234091  -0.001079  -0.017943  13.737914   0.028093   0.305956
     5  Ca   0.116540   0.274998  -0.210667   0.028093  18.758774   0.002936
     6  O   -0.032833  -0.002039   0.089673   0.305956   0.002936   8.261168
     7  O    0.000000  -0.000146   0.238373  -0.000167  -0.007355  -0.000095
     8  H    0.000000   0.000008  -0.026195  -0.000002   0.000076   0.000000
              7          8
     1  O    0.000000   0.000000
     2  O   -0.000146   0.000008
     3  Ca   0.238373  -0.026195
     4  P   -0.000167  -0.000002
     5  Ca  -0.007355   0.000076
     6  O   -0.000095   0.000000
     7  O    8.333699   0.272132
     8  H    0.272132   0.496192
 Mulliken atomic charges:
              1
     1  O   -0.687894
     2  O   -0.897065
     3  Ca   1.038635
     4  P    0.713136
     5  Ca   1.036605
     6  O   -0.624766
     7  O   -0.836440
     8  H    0.257789
 Sum of Mulliken charges=   0.00000
 Atomic charges with hydrogens summed into heavy atoms:
              1
     1  O   -0.687894
     2  O   -0.897065
     3  Ca   1.038635
     4  P    0.713136
     5  Ca   1.036605
     6  O   -0.624766
     7  O   -0.578652
     8  H    0.000000
 Sum of Mulliken charges=   0.00000
 Electronic spatial extent (au):  <R**2>=  1854.7228
 Charge=     0.0000 electrons
 Dipole moment (field-independent basis, Debye):
    X=     8.3669    Y=    -3.0930    Z=    -0.0344  Tot=     8.9204
 Quadrupole moment (field-independent basis, Debye-Ang):
   XX=   -69.1268   YY=   -68.6327   ZZ=   -59.4572
   XY=   -15.8337   XZ=     2.4669   YZ=    -2.3638
 Traceless Quadrupole moment (field-independent basis, Debye-Ang):
   XX=    -3.3879   YY=    -2.8938   ZZ=     6.2817
   XY=   -15.8337   XZ=     2.4669   YZ=    -2.3638
 Octapole moment (field-independent basis, Debye-Ang**2):
  XXX=    50.0751  YYY=    -4.1425  ZZZ=    -0.7063  XYY=    37.3788
  XXY=   -45.4628  XXZ=    -1.7174  XZZ=     1.3103  YZZ=    -1.8458
  YYZ=     6.5561  XYZ=    -4.0462
 Hexadecapole moment (field-independent basis, Debye-Ang**3):
 XXXX= -1580.2415 YYYY=  -823.8909 ZZZZ=   -99.3135 XXXY=  -108.5387
 XXXZ=   -33.7284 YYYX=   -89.5380 YYYZ=   -10.3022 ZZZX=     4.8651
 ZZZY=    -3.0654 XXYY=  -324.0853 XXZZ=  -246.1769 YYZZ=  -142.5809
 XXYZ=     2.4724 YYXZ=     2.5611 ZZXY=   -11.1493
 N-N= 5.749082694307D+02 E-N=-5.886979533042D+03  KE= 1.992384758812D+03
 Merz-Kollman atomic radii used.
 Read replacement radii for each type of atom:
 Rad(20) =   1.188000000000D+00
 Atom Element Radius
    1     8    1.40
    2     8    1.40
    3    20    1.19
    4    15    1.80
    5    20    1.19
    6     8    1.40
    7     8    1.40
    8     1    1.20

 **********************************************************************

            Electrostatic Properties Using The SCF Density

 **********************************************************************

       Atomic Center    1 is at   2.343699  0.657368  0.161184
       Atomic Center    2 is at  -0.369996 -1.867360 -0.202491
       Atomic Center    3 is at  -1.767070 -0.186809 -0.181477
       Atomic Center    4 is at   1.415888  1.886911 -0.017174
       Atomic Center    5 is at   1.653911 -1.519628  0.110197
       Atomic Center    6 is at  -0.049001  1.495700 -0.177866
       Atomic Center    7 is at  -3.722411  0.370452  0.344482
       Atomic Center    8 is at  -4.593461  0.575795  0.680718
     846 points will be used for fitting atomic charges
 Fitting point charges to eletrostatic potential
 Charges from ESP fit, RMS=   0.00577 RRMS=   0.10728:
 Charge=   0.00000 Dipole=     8.7508    -3.5291     0.0241 Tot=     9.4357
              1
     1  O   -0.664090
     2  O   -1.411282
     3  Ca   1.669596
     4  P    0.396314
     5  Ca   1.474880
     6  O   -0.607569
     7  O   -1.336674
     8  H    0.478824
 -----------------------------------------------------------------

              Electrostatic Properties (Atomic Units)

 -----------------------------------------------------------------
    Center     Electric         -------- Electric Field --------
               Potential          X             Y             Z
 -----------------------------------------------------------------
    1 Atom    -22.320541
    2 Atom    -22.457845
    3 Atom    -80.267314
    4 Atom    -54.055706
    5 Atom    -80.171465
    6 Atom    -22.324950
    7 Atom    -22.449820
    8 Atom     -1.126541
 -----------------------------------------------------------------
 1\1\GINC-N038\SP\RB3LYP\6-31G(d,p)\Ca2H1O4P1\TIMN\04-May-2015\0\\# b3l
 yp/6-31G(d,p) pop=(ReadRadii,MK)\\Ca2HPO4_69\\0,1\O,0,2.3437,0.657366,
 0.161184\O,0,-0.369997,-1.86736,-0.202491\Ca,0,-1.76707,-0.186807,-0.1
 81477\P,0,1.41589,1.88691,-0.017174\Ca,0,1.65391,-1.51963,0.110197\O,0
 ,-0.048999,1.4957,-0.177866\O,0,-3.72241,0.370455,0.344482\H,0,-4.5934
 6,0.575799,0.680718\\Version=EM64T-G03RevE.01\State=1-A\HF=-1998.14570
 91\RMSD=4.851e-05\Thermal=0.\Dipole=3.2918008,-1.2168855,-0.0135247\PG
 =C01 [X(Ca2H1O4P1)]\\@


 "WOULD YOU TELL ME PLEASE, WHICH WAY I OUGHT TO WALK FROM HERE?"
 "THAT DEPENDS A GREAT DEAL ON WHERE YOU WANT TO GO," SAID THE CAT.
 "I DON'T MUCH CARE WHERE -- ", SAID ALICE.
 "THEN IT DOESN'T MATTER WHICH WAY YOU WALK," SAID THE CAT.

                                      -- LEWIS CARROLL
 Job cpu time:  0 days  0 hours  0 minutes 19.3 seconds.
 File lengths (MBytes):  RWF=     21 Int=      0 D2E=      0 Chk=     10 Scr=      1
 Normal termination of Gaussian 03 at Mon May  4 20:08:48 2015.
