 Entering Gaussian System, Link 0=/home/timn/tmp/g03.e01/g03
 Input=Ca2HPO4_44.xyz.gjf
 Output=Ca2HPO4_44.xyz.out
 Initial command:
 /home/timn/tmp/g03.e01/l1.exe /home/timn/tmp/g03.e01/Gau-12960.inp -scrdir=/home/timn/tmp/g03.e01/
 Default is to use a total of   2 processors:
                                2 via shared-memory
                                1 via Linda
 Entering Link 1 = /home/timn/tmp/g03.e01/l1.exe PID=     12961.
  
 Copyright (c) 1988,1990,1992,1993,1995,1998,2003,2004,2007, Gaussian, Inc.
                  All Rights Reserved.
  
 This is the Gaussian(R) 03 program.  It is based on the
 the Gaussian(R) 98 system (copyright 1998, Gaussian, Inc.),
 the Gaussian(R) 94 system (copyright 1995, Gaussian, Inc.),
 the Gaussian 92(TM) system (copyright 1992, Gaussian, Inc.),
 the Gaussian 90(TM) system (copyright 1990, Gaussian, Inc.),
 the Gaussian 88(TM) system (copyright 1988, Gaussian, Inc.),
 the Gaussian 86(TM) system (copyright 1986, Carnegie Mellon
 University), and the Gaussian 82(TM) system (copyright 1983,
 Carnegie Mellon University). Gaussian is a federally registered
 trademark of Gaussian, Inc.
  
 This software contains proprietary and confidential information,
 including trade secrets, belonging to Gaussian, Inc.
  
 This software is provided under written license and may be
 used, copied, transmitted, or stored only in accord with that
 written license.
  
 The following legend is applicable only to US Government
 contracts under FAR:
  
                    RESTRICTED RIGHTS LEGEND
  
 Use, reproduction and disclosure by the US Government is
 subject to restrictions as set forth in subparagraphs (a)
 and (c) of the Commercial Computer Software - Restricted
 Rights clause in FAR 52.227-19.
  
 Gaussian, Inc.
 340 Quinnipiac St., Bldg. 40, Wallingford CT 06492
  
  
 ---------------------------------------------------------------
 Warning -- This program may not be used in any manner that
 competes with the business of Gaussian, Inc. or will provide
 assistance to any competitor of Gaussian, Inc.  The licensee
 of this program is prohibited from giving any competitor of
 Gaussian, Inc. access to this program.  By using this program,
 the user acknowledges that Gaussian, Inc. is engaged in the
 business of creating and licensing software in the field of
 computational chemistry and represents and warrants to the
 licensee that it is not a competitor of Gaussian, Inc. and that
 it will not use this program in any manner prohibited above.
 ---------------------------------------------------------------
  

 Cite this work as:
 Gaussian 03, Revision E.01,
 M. J. Frisch, G. W. Trucks, H. B. Schlegel, G. E. Scuseria, 
 M. A. Robb, J. R. Cheeseman, J. A. Montgomery, Jr., T. Vreven, 
 K. N. Kudin, J. C. Burant, J. M. Millam, S. S. Iyengar, J. Tomasi, 
 V. Barone, B. Mennucci, M. Cossi, G. Scalmani, N. Rega, 
 G. A. Petersson, H. Nakatsuji, M. Hada, M. Ehara, K. Toyota, 
 R. Fukuda, J. Hasegawa, M. Ishida, T. Nakajima, Y. Honda, O. Kitao, 
 H. Nakai, M. Klene, X. Li, J. E. Knox, H. P. Hratchian, J. B. Cross, 
 V. Bakken, C. Adamo, J. Jaramillo, R. Gomperts, R. E. Stratmann, 
 O. Yazyev, A. J. Austin, R. Cammi, C. Pomelli, J. W. Ochterski, 
 P. Y. Ayala, K. Morokuma, G. A. Voth, P. Salvador, J. J. Dannenberg, 
 V. G. Zakrzewski, S. Dapprich, A. D. Daniels, M. C. Strain, 
 O. Farkas, D. K. Malick, A. D. Rabuck, K. Raghavachari, 
 J. B. Foresman, J. V. Ortiz, Q. Cui, A. G. Baboul, S. Clifford, 
 J. Cioslowski, B. B. Stefanov, G. Liu, A. Liashenko, P. Piskorz, 
 I. Komaromi, R. L. Martin, D. J. Fox, T. Keith, M. A. Al-Laham, 
 C. Y. Peng, A. Nanayakkara, M. Challacombe, P. M. W. Gill, 
 B. Johnson, W. Chen, M. W. Wong, C. Gonzalez, and J. A. Pople, 
 Gaussian, Inc., Wallingford CT, 2004.
 
 ******************************************
 Gaussian 03:  EM64T-G03RevE.01 11-Sep-2007
                 4-May-2015 
 ******************************************
 %nproc=2
 Will use up to    2 processors via shared memory.
 Default route:  MP2=Direct MaxDisk=2000MB
 -------------------------------------
 # b3lyp/6-31G(d,p) pop=(ReadRadii,MK)
 -------------------------------------
 1/38=1/1;
 2/17=6,18=5,40=1/2;
 3/5=1,6=6,7=101,11=2,16=1,25=1,30=1,74=-5/1,2,3;
 4//1;
 5/5=2,32=1,38=5/2;
 6/7=2,8=2,9=2,10=2,15=8,20=101,28=1/1,2;
 99/5=1,9=1/99;
 ----------
 Ca2HPO4_44
 ----------
 Symbolic Z-matrix:
 Charge =  0 Multiplicity = 1
 O                     0.47531  -1.96174   0.76707 
 O                     0.47531  -1.96174  -0.76707 
 P                     1.29999  -0.39764   0. 
 Ca                   -0.24599   2.20128   0. 
 H                    -2.33687   1.34462   0. 
 O                     0.47531   0.48067   1.1999 
 Ca                   -1.37265  -0.78542   0. 
 O                     0.47531   0.48067  -1.1999 
 
                          Input orientation:                          
 ---------------------------------------------------------------------
 Center     Atomic     Atomic              Coordinates (Angstroms)
 Number     Number      Type              X           Y           Z
 ---------------------------------------------------------------------
    1          8             0        0.475309   -1.961740    0.767065
    2          8             0        0.475309   -1.961740   -0.767065
    3         15             0        1.299990   -0.397643    0.000000
    4         20             0       -0.245993    2.201280    0.000000
    5          1             0       -2.336870    1.344620    0.000000
    6          8             0        0.475309    0.480670    1.199900
    7         20             0       -1.372650   -0.785421    0.000000
    8          8             0        0.475309    0.480670   -1.199900
 ---------------------------------------------------------------------
                    Distance matrix (angstroms):
                    1          2          3          4          5
     1  O    0.000000
     2  O    1.534130   0.000000
     3  P    1.927404   1.927404   0.000000
     4  Ca   4.294112   4.294112   3.023982   0.000000
     5  H    4.407806   4.407806   4.032646   2.259565   0.000000
     6  O    2.480466   3.135972   1.700380   2.218228   3.177187
     7  Ca   2.321006   2.321006   2.700625   3.192137   2.338118
     8  O    3.135972   2.480466   1.700380   2.218228   3.177187
                    6          7          8
     6  O    0.000000
     7  Ca   2.541200   0.000000
     8  O    2.399800   2.541200   0.000000
 Stoichiometry    Ca2HO4P
 Framework group  CS[SG(Ca2HP),X(O4)]
 Deg. of freedom    11
 Full point group                 CS
 Largest Abelian subgroup         CS      NOp   2
 Largest concise Abelian subgroup CS      NOp   2
                         Standard orientation:                         
 ---------------------------------------------------------------------
 Center     Atomic     Atomic              Coordinates (Angstroms)
 Number     Number      Type              X           Y           Z
 ---------------------------------------------------------------------
    1          8             0        0.475309   -1.961740    0.767065
    2          8             0        0.475309   -1.961740   -0.767065
    3         15             0        1.299990   -0.397643    0.000000
    4         20             0       -0.245993    2.201280    0.000000
    5          1             0       -2.336870    1.344620    0.000000
    6          8             0        0.475309    0.480670    1.199900
    7         20             0       -1.372650   -0.785421    0.000000
    8          8             0        0.475309    0.480670   -1.199900
 ---------------------------------------------------------------------
 Rotational constants (GHZ):      2.3743138      1.1965889      0.9998751
 Standard basis: 6-31G(d,p) (6D, 7F)
 There are    82 symmetry adapted basis functions of A'  symmetry.
 There are    48 symmetry adapted basis functions of A"  symmetry.
 Integral buffers will be    131072 words long.
 Raffenetti 2 integral format.
 Two-electron integral symmetry is turned on.
   130 basis functions,   323 primitive gaussians,   130 cartesian basis functions
    44 alpha electrons       44 beta electrons
       nuclear repulsion energy       674.4034242704 Hartrees.
 NAtoms=    8 NActive=    8 NUniq=    6 SFac= 1.33D+00 NAtFMM=   80 NAOKFM=F Big=F
 One-electron integrals computed using PRISM.
 NBasis=   130 RedAO= T  NBF=    82    48
 NBsUse=   130 1.00D-06 NBFU=    82    48
 Harris functional with IExCor=  402 diagonalized for initial guess.
 ExpMin= 2.60D-02 ExpMax= 3.53D+04 ExpMxC= 5.30D+03 IAcc=3 IRadAn=         5 AccDes= 0.00D+00
 HarFok:  IExCor= 402 AccDes= 0.00D+00 IRadAn=         5 IDoV=1
 ScaDFX=  1.000000  1.000000  1.000000  1.000000
 Initial guess orbital symmetries:
       Occupied  (A') (A') (A') (A') (A") (A') (A") (A') (A') (A')
                 (A') (A") (A') (A') (A") (A') (A') (A") (A') (A')
                 (A') (A') (A') (A") (A') (A') (A") (A') (A') (A")
                 (A") (A') (A') (A") (A') (A') (A') (A") (A') (A")
                 (A") (A') (A") (A')
       Virtual   (A") (A') (A') (A') (A") (A') (A") (A') (A") (A')
                 (A') (A') (A') (A') (A") (A') (A') (A") (A') (A")
                 (A') (A') (A') (A") (A") (A') (A') (A") (A') (A")
                 (A') (A') (A') (A') (A') (A') (A") (A') (A') (A")
                 (A') (A") (A') (A') (A") (A') (A") (A") (A') (A')
                 (A") (A') (A") (A') (A") (A') (A') (A") (A') (A")
                 (A') (A') (A") (A') (A") (A') (A") (A') (A") (A')
                 (A') (A") (A") (A') (A') (A') (A") (A") (A') (A")
                 (A") (A') (A') (A") (A") (A')
 The electronic state of the initial guess is 1-A'.
 Requested convergence on RMS density matrix=1.00D-04 within 128 cycles.
 Requested convergence on MAX density matrix=1.00D-02.
 Requested convergence on             energy=1.00D-02.
 No special actions if energy rises.
 Keep R1 integrals in memory in canonical form, NReq=    38354130.
 SCF Done:  E(RB+HF-LYP) =  -1997.97965936     A.U. after    8 cycles
             Convg  =    0.3593D-04             -V/T =  2.0030
             S**2   =   0.0000

 **********************************************************************

            Population analysis using the SCF density.

 **********************************************************************

 Orbital symmetries:
       Occupied  (A') (A') (A') (A') (A") (A") (A') (A') (A') (A')
                 (A") (A') (A') (A") (A') (A') (A') (A") (A') (A')
                 (A') (A') (A") (A') (A') (A") (A') (A') (A') (A")
                 (A") (A') (A') (A') (A') (A") (A') (A') (A") (A')
                 (A") (A") (A') (A")
       Virtual   (A') (A') (A") (A') (A") (A') (A') (A') (A') (A")
                 (A') (A') (A") (A') (A") (A") (A') (A') (A') (A")
                 (A') (A') (A') (A") (A') (A") (A') (A") (A') (A')
                 (A') (A") (A') (A') (A') (A') (A") (A') (A') (A')
                 (A") (A") (A') (A') (A') (A") (A") (A') (A") (A')
                 (A") (A') (A") (A') (A") (A') (A') (A") (A') (A')
                 (A') (A") (A') (A") (A') (A") (A') (A") (A") (A')
                 (A') (A") (A") (A') (A') (A') (A") (A") (A') (A")
                 (A") (A') (A') (A") (A") (A')
 The electronic state is 1-A'.
 Alpha  occ. eigenvalues -- -145.37941-145.36425 -77.11667 -19.10803 -19.10797
 Alpha  occ. eigenvalues --  -19.05525 -19.05525 -15.45023 -15.43419 -12.58208
 Alpha  occ. eigenvalues --  -12.58174 -12.58120 -12.56643 -12.56601 -12.56497
 Alpha  occ. eigenvalues --   -6.56496  -4.72953  -4.72706  -4.72333  -1.82514
 Alpha  occ. eigenvalues --   -1.80762  -1.10505  -1.09931  -1.09827  -1.09057
 Alpha  occ. eigenvalues --   -1.08152  -1.08098  -0.98235  -0.89085  -0.83945
 Alpha  occ. eigenvalues --   -0.74149  -0.49843  -0.36928  -0.35191  -0.34603
 Alpha  occ. eigenvalues --   -0.33803  -0.29625  -0.26966  -0.25259  -0.25124
 Alpha  occ. eigenvalues --   -0.20957  -0.19964  -0.18204  -0.17591
 Alpha virt. eigenvalues --   -0.09047  -0.05530  -0.01434  -0.00804   0.00624
 Alpha virt. eigenvalues --    0.02492   0.03620   0.05932   0.06517   0.07995
 Alpha virt. eigenvalues --    0.09739   0.10289   0.12039   0.12748   0.13407
 Alpha virt. eigenvalues --    0.14730   0.16086   0.16392   0.18489   0.19636
 Alpha virt. eigenvalues --    0.21198   0.22145   0.26143   0.26723   0.32058
 Alpha virt. eigenvalues --    0.33023   0.34613   0.36890   0.40234   0.41638
 Alpha virt. eigenvalues --    0.42550   0.42872   0.47720   0.50468   0.59259
 Alpha virt. eigenvalues --    0.62736   0.74130   0.76169   0.84328   0.90634
 Alpha virt. eigenvalues --    0.93692   0.95877   0.97460   1.02497   1.07931
 Alpha virt. eigenvalues --    1.09289   1.10988   1.13733   1.14090   1.19873
 Alpha virt. eigenvalues --    1.20351   1.25080   1.30437   1.31850   1.46289
 Alpha virt. eigenvalues --    1.56442   1.60438   1.60864   1.70437   1.82912
 Alpha virt. eigenvalues --    1.84837   1.87774   1.90278   1.91377   1.94157
 Alpha virt. eigenvalues --    1.95100   1.98000   1.98555   2.00087   2.04712
 Alpha virt. eigenvalues --    2.09194   2.10052   2.11544   2.17996   2.22565
 Alpha virt. eigenvalues --    2.26838   2.35449   2.44612   2.53010   2.62928
 Alpha virt. eigenvalues --    3.11444   3.65518   3.77806   3.84730   3.91440
 Alpha virt. eigenvalues --    4.11591
          Condensed to atoms (all electrons):
              1          2          3          4          5          6
     1  O    8.437125  -0.064190   0.077366  -0.005367  -0.000058  -0.051773
     2  O   -0.064190   8.437125   0.077366  -0.005367  -0.000058   0.002832
     3  P    0.077366   0.077366  13.476265   0.008393   0.006202   0.160671
     4  Ca  -0.005367  -0.005367   0.008393  18.519010   0.170130   0.165241
     5  H   -0.000058  -0.000058   0.006202   0.170130   1.138150  -0.005679
     6  O   -0.051773   0.002832   0.160671   0.165241  -0.005679   8.514427
     7  Ca   0.093447   0.093447  -0.011473  -0.033320   0.115711   0.108597
     8  O    0.002832  -0.051773   0.160671   0.165241  -0.005679  -0.075507
              7          8
     1  O    0.093447   0.002832
     2  O    0.093447  -0.051773
     3  P   -0.011473   0.160671
     4  Ca  -0.033320   0.165241
     5  H    0.115711  -0.005679
     6  O    0.108597  -0.075507
     7  Ca  18.550472   0.108597
     8  O    0.108597   8.514427
 Mulliken atomic charges:
              1
     1  O   -0.489383
     2  O   -0.489383
     3  P    1.044540
     4  Ca   1.016039
     5  H   -0.418717
     6  O   -0.818809
     7  Ca   0.974522
     8  O   -0.818809
 Sum of Mulliken charges=   0.00000
 Atomic charges with hydrogens summed into heavy atoms:
              1
     1  O   -0.489383
     2  O   -0.489383
     3  P    1.044540
     4  Ca   0.597322
     5  H    0.000000
     6  O   -0.818809
     7  Ca   0.974522
     8  O   -0.818809
 Sum of Mulliken charges=   0.00000
 Electronic spatial extent (au):  <R**2>=  1166.7181
 Charge=     0.0000 electrons
 Dipole moment (field-independent basis, Debye):
    X=    -6.6951    Y=     8.4437    Z=     0.0000  Tot=    10.7759
 Quadrupole moment (field-independent basis, Debye-Ang):
   XX=   -66.1097   YY=   -44.7359   ZZ=   -74.6960
   XY=    15.7678   XZ=     0.0000   YZ=     0.0000
 Traceless Quadrupole moment (field-independent basis, Debye-Ang):
   XX=    -4.2625   YY=    17.1113   ZZ=   -12.8488
   XY=    15.7678   XZ=     0.0000   YZ=     0.0000
 Octapole moment (field-independent basis, Debye-Ang**2):
  XXX=    -1.2570  YYY=   111.8901  ZZZ=     0.0000  XYY=   -11.2657
  XXY=   -30.9487  XXZ=     0.0000  XZZ=    -9.0367  YZZ=     1.0006
  YYZ=     0.0000  XYZ=     0.0000
 Hexadecapole moment (field-independent basis, Debye-Ang**3):
 XXXX=  -526.0101 YYYY=  -618.6784 ZZZZ=  -253.2326 XXXY=   129.3517
 XXXZ=     0.0000 YYYX=    76.4693 YYYZ=     0.0000 ZZZX=     0.0000
 ZZZY=     0.0000 XXYY=  -218.1204 XXZZ=  -116.0366 YYZZ=  -175.8938
 XXYZ=     0.0000 YYXZ=     0.0000 ZZXY=    16.8515
 N-N= 6.744034242704D+02 E-N=-6.084760357633D+03  KE= 1.992085823128D+03
 Symmetry A'   KE= 1.666235317659D+03
 Symmetry A"   KE= 3.258505054690D+02
 Merz-Kollman atomic radii used.
 Read replacement radii for each type of atom:
 Rad(20) =   1.188000000000D+00
 Atom Element Radius
    1     8    1.40
    2     8    1.40
    3    15    1.80
    4    20    1.19
    5     1    1.20
    6     8    1.40
    7    20    1.19
    8     8    1.40

 **********************************************************************

            Electrostatic Properties Using The SCF Density

 **********************************************************************

       Atomic Center    1 is at   0.475309 -1.961740  0.767065
       Atomic Center    2 is at   0.475309 -1.961740 -0.767065
       Atomic Center    3 is at   1.299990 -0.397643  0.000000
       Atomic Center    4 is at  -0.245993  2.201280  0.000000
       Atomic Center    5 is at  -2.336870  1.344620  0.000000
       Atomic Center    6 is at   0.475309  0.480670  1.199900
       Atomic Center    7 is at  -1.372650 -0.785421  0.000000
       Atomic Center    8 is at   0.475309  0.480670 -1.199900
     682 points will be used for fitting atomic charges
 Fitting point charges to eletrostatic potential
 Charges from ESP fit, RMS=   0.00655 RRMS=   0.09089:
 Charge=   0.00000 Dipole=    -6.9124     8.6402     0.0000 Tot=    11.0650
              1
     1  O   -0.430911
     2  O   -0.430911
     3  P    0.378416
     4  Ca   1.530330
     5  H   -0.775191
     6  O   -0.900857
     7  Ca   1.529981
     8  O   -0.900857
 -----------------------------------------------------------------

              Electrostatic Properties (Atomic Units)

 -----------------------------------------------------------------
    Center     Electric         -------- Electric Field --------
               Potential          X             Y             Z
 -----------------------------------------------------------------
    1 Atom    -22.366596
    2 Atom    -22.366596
    3 Atom    -54.100865
    4 Atom    -80.163236
    5 Atom     -1.191759
    6 Atom    -22.410365
    7 Atom    -80.177632
    8 Atom    -22.410365
 -----------------------------------------------------------------
 1\1\GINC-N038\SP\RB3LYP\6-31G(d,p)\Ca2H1O4P1\TIMN\04-May-2015\0\\# b3l
 yp/6-31G(d,p) pop=(ReadRadii,MK)\\Ca2HPO4_44\\0,1\O,0,0.475309,-1.9617
 4,0.767065\O,0,0.475309,-1.96174,-0.767065\P,0,1.29999,-0.397643,0.\Ca
 ,0,-0.245993,2.20128,0.\H,0,-2.33687,1.34462,0.\O,0,0.475309,0.48067,1
 .1999\Ca,0,-1.37265,-0.785421,0.\O,0,0.475309,0.48067,-1.1999\\Version
 =EM64T-G03RevE.01\State=1-A'\HF=-1997.9796594\RMSD=3.593e-05\Thermal=0
 .\Dipole=-2.6340649,3.3219964,0.\PG=CS [SG(Ca2H1P1),X(O4)]\\@


 Change starts when someone sees the next step.
                            -- William Drayton
 Job cpu time:  0 days  0 hours  0 minutes 16.3 seconds.
 File lengths (MBytes):  RWF=     21 Int=      0 D2E=      0 Chk=     10 Scr=      1
 Normal termination of Gaussian 03 at Mon May  4 20:41:36 2015.
