 Entering Gaussian System, Link 0=/home/timn/tmp/g03.e01/g03
 Input=Ca2HPO4_52.xyz.gjf
 Output=Ca2HPO4_52.xyz.out
 Initial command:
 /home/timn/tmp/g03.e01/l1.exe /home/timn/tmp/g03.e01/Gau-30442.inp -scrdir=/home/timn/tmp/g03.e01/
 Default is to use a total of   2 processors:
                                2 via shared-memory
                                1 via Linda
 Entering Link 1 = /home/timn/tmp/g03.e01/l1.exe PID=     30443.
  
 Copyright (c) 1988,1990,1992,1993,1995,1998,2003,2004,2007, Gaussian, Inc.
                  All Rights Reserved.
  
 This is the Gaussian(R) 03 program.  It is based on the
 the Gaussian(R) 98 system (copyright 1998, Gaussian, Inc.),
 the Gaussian(R) 94 system (copyright 1995, Gaussian, Inc.),
 the Gaussian 92(TM) system (copyright 1992, Gaussian, Inc.),
 the Gaussian 90(TM) system (copyright 1990, Gaussian, Inc.),
 the Gaussian 88(TM) system (copyright 1988, Gaussian, Inc.),
 the Gaussian 86(TM) system (copyright 1986, Carnegie Mellon
 University), and the Gaussian 82(TM) system (copyright 1983,
 Carnegie Mellon University). Gaussian is a federally registered
 trademark of Gaussian, Inc.
  
 This software contains proprietary and confidential information,
 including trade secrets, belonging to Gaussian, Inc.
  
 This software is provided under written license and may be
 used, copied, transmitted, or stored only in accord with that
 written license.
  
 The following legend is applicable only to US Government
 contracts under FAR:
  
                    RESTRICTED RIGHTS LEGEND
  
 Use, reproduction and disclosure by the US Government is
 subject to restrictions as set forth in subparagraphs (a)
 and (c) of the Commercial Computer Software - Restricted
 Rights clause in FAR 52.227-19.
  
 Gaussian, Inc.
 340 Quinnipiac St., Bldg. 40, Wallingford CT 06492
  
  
 ---------------------------------------------------------------
 Warning -- This program may not be used in any manner that
 competes with the business of Gaussian, Inc. or will provide
 assistance to any competitor of Gaussian, Inc.  The licensee
 of this program is prohibited from giving any competitor of
 Gaussian, Inc. access to this program.  By using this program,
 the user acknowledges that Gaussian, Inc. is engaged in the
 business of creating and licensing software in the field of
 computational chemistry and represents and warrants to the
 licensee that it is not a competitor of Gaussian, Inc. and that
 it will not use this program in any manner prohibited above.
 ---------------------------------------------------------------
  

 Cite this work as:
 Gaussian 03, Revision E.01,
 M. J. Frisch, G. W. Trucks, H. B. Schlegel, G. E. Scuseria, 
 M. A. Robb, J. R. Cheeseman, J. A. Montgomery, Jr., T. Vreven, 
 K. N. Kudin, J. C. Burant, J. M. Millam, S. S. Iyengar, J. Tomasi, 
 V. Barone, B. Mennucci, M. Cossi, G. Scalmani, N. Rega, 
 G. A. Petersson, H. Nakatsuji, M. Hada, M. Ehara, K. Toyota, 
 R. Fukuda, J. Hasegawa, M. Ishida, T. Nakajima, Y. Honda, O. Kitao, 
 H. Nakai, M. Klene, X. Li, J. E. Knox, H. P. Hratchian, J. B. Cross, 
 V. Bakken, C. Adamo, J. Jaramillo, R. Gomperts, R. E. Stratmann, 
 O. Yazyev, A. J. Austin, R. Cammi, C. Pomelli, J. W. Ochterski, 
 P. Y. Ayala, K. Morokuma, G. A. Voth, P. Salvador, J. J. Dannenberg, 
 V. G. Zakrzewski, S. Dapprich, A. D. Daniels, M. C. Strain, 
 O. Farkas, D. K. Malick, A. D. Rabuck, K. Raghavachari, 
 J. B. Foresman, J. V. Ortiz, Q. Cui, A. G. Baboul, S. Clifford, 
 J. Cioslowski, B. B. Stefanov, G. Liu, A. Liashenko, P. Piskorz, 
 I. Komaromi, R. L. Martin, D. J. Fox, T. Keith, M. A. Al-Laham, 
 C. Y. Peng, A. Nanayakkara, M. Challacombe, P. M. W. Gill, 
 B. Johnson, W. Chen, M. W. Wong, C. Gonzalez, and J. A. Pople, 
 Gaussian, Inc., Wallingford CT, 2004.
 
 ******************************************
 Gaussian 03:  EM64T-G03RevE.01 11-Sep-2007
                 4-May-2015 
 ******************************************
 %nproc=2
 Will use up to    2 processors via shared memory.
 Default route:  MP2=Direct MaxDisk=2000MB
 -------------------------------------
 # b3lyp/6-31G(d,p) pop=(ReadRadii,MK)
 -------------------------------------
 1/38=1/1;
 2/17=6,18=5,40=1/2;
 3/5=1,6=6,7=101,11=2,16=1,25=1,30=1,74=-5/1,2,3;
 4//1;
 5/5=2,32=1,38=5/2;
 6/7=2,8=2,9=2,10=2,15=8,20=101,28=1/1,2;
 99/5=1,9=1/99;
 ----------
 Ca2HPO4_52
 ----------
 Symbolic Z-matrix:
 Charge =  0 Multiplicity = 1
 O                     1.13378   0.81108   0.05221 
 P                     2.68134   0.15023  -0.11406 
 H                     3.06686   0.04953   1.27958 
 Ca                    0.283    -1.39557   0.0116 
 O                    -1.43433  -0.31642  -1.20615 
 O                    -2.10315  -0.90677  -0.01734 
 O                    -1.46617  -0.32157   1.19115 
 Ca                   -0.8994    1.57389   0.00203 
 
                          Input orientation:                          
 ---------------------------------------------------------------------
 Center     Atomic     Atomic              Coordinates (Angstroms)
 Number     Number      Type              X           Y           Z
 ---------------------------------------------------------------------
    1          8             0        1.133780    0.811080    0.052209
    2         15             0        2.681340    0.150232   -0.114061
    3          1             0        3.066860    0.049527    1.279580
    4         20             0        0.283001   -1.395570    0.011595
    5          8             0       -1.434330   -0.316418   -1.206150
    6          8             0       -2.103150   -0.906773   -0.017344
    7          8             0       -1.466170   -0.321568    1.191150
    8         20             0       -0.899404    1.573890    0.002028
 ---------------------------------------------------------------------
                    Distance matrix (angstroms):
                    1          2          3          4          5
     1  O    0.000000
     2  P    1.690949   0.000000
     3  H    2.413131   1.449483   0.000000
     4  Ca   2.365328   2.856103   3.383188   0.000000
     5  O    3.074070   4.283592   5.154947   2.365734   0.000000
     6  O    3.665184   4.900812   5.415305   2.435873   1.486304
     7  O    3.056112   4.373558   4.549054   2.367368   2.397517
     8  Ca   2.172150   3.855127   4.437012   3.196227   2.306318
                    6          7          8
     6  O    0.000000
     7  O    1.486158   0.000000
     8  Ca   2.757366   2.308245   0.000000
 Stoichiometry    Ca2HO4P
 Framework group  C1[X(Ca2HO4P)]
 Deg. of freedom    18
 Full point group                 C1
 Largest Abelian subgroup         C1      NOp   1
 Largest concise Abelian subgroup C1      NOp   1
                         Standard orientation:                         
 ---------------------------------------------------------------------
 Center     Atomic     Atomic              Coordinates (Angstroms)
 Number     Number      Type              X           Y           Z
 ---------------------------------------------------------------------
    1          8             0        1.133780    0.811081    0.052208
    2         15             0        2.681341    0.150234   -0.114062
    3          1             0        3.066861    0.049529    1.279579
    4         20             0        0.283003   -1.395570    0.011594
    5          8             0       -1.434329   -0.316419   -1.206151
    6          8             0       -2.103149   -0.906774   -0.017345
    7          8             0       -1.466169   -0.321569    1.191149
    8         20             0       -0.899404    1.573890    0.002027
 ---------------------------------------------------------------------
 Rotational constants (GHZ):      2.0017554      1.0654038      0.8011767
 Standard basis: 6-31G(d,p) (6D, 7F)
 There are   130 symmetry adapted basis functions of A   symmetry.
 Integral buffers will be    131072 words long.
 Raffenetti 2 integral format.
 Two-electron integral symmetry is turned on.
   130 basis functions,   323 primitive gaussians,   130 cartesian basis functions
    44 alpha electrons       44 beta electrons
       nuclear repulsion energy       634.3475130138 Hartrees.
 NAtoms=    8 NActive=    8 NUniq=    8 SFac= 7.50D-01 NAtFMM=   80 NAOKFM=F Big=F
 One-electron integrals computed using PRISM.
 NBasis=   130 RedAO= T  NBF=   130
 NBsUse=   130 1.00D-06 NBFU=   130
 Harris functional with IExCor=  402 diagonalized for initial guess.
 ExpMin= 2.60D-02 ExpMax= 3.53D+04 ExpMxC= 5.30D+03 IAcc=3 IRadAn=         5 AccDes= 0.00D+00
 HarFok:  IExCor= 402 AccDes= 0.00D+00 IRadAn=         5 IDoV=1
 ScaDFX=  1.000000  1.000000  1.000000  1.000000
 Initial guess orbital symmetries:
       Occupied  (A) (A) (A) (A) (A) (A) (A) (A) (A) (A) (A) (A)
                 (A) (A) (A) (A) (A) (A) (A) (A) (A) (A) (A) (A)
                 (A) (A) (A) (A) (A) (A) (A) (A) (A) (A) (A) (A)
                 (A) (A) (A) (A) (A) (A) (A) (A)
       Virtual   (A) (A) (A) (A) (A) (A) (A) (A) (A) (A) (A) (A)
                 (A) (A) (A) (A) (A) (A) (A) (A) (A) (A) (A) (A)
                 (A) (A) (A) (A) (A) (A) (A) (A) (A) (A) (A) (A)
                 (A) (A) (A) (A) (A) (A) (A) (A) (A) (A) (A) (A)
                 (A) (A) (A) (A) (A) (A) (A) (A) (A) (A) (A) (A)
                 (A) (A) (A) (A) (A) (A) (A) (A) (A) (A) (A) (A)
                 (A) (A) (A) (A) (A) (A) (A) (A) (A) (A) (A) (A)
                 (A) (A)
 The electronic state of the initial guess is 1-A.
 Requested convergence on RMS density matrix=1.00D-04 within 128 cycles.
 Requested convergence on MAX density matrix=1.00D-02.
 Requested convergence on             energy=1.00D-02.
 No special actions if energy rises.
 Keep R1 integrals in memory in canonical form, NReq=    38353679.
 SCF Done:  E(RB+HF-LYP) =  -1997.93228781     A.U. after    9 cycles
             Convg  =    0.1846D-04             -V/T =  2.0029
             S**2   =   0.0000

 **********************************************************************

            Population analysis using the SCF density.

 **********************************************************************

 Orbital symmetries:
       Occupied  (A) (A) (A) (A) (A) (A) (A) (A) (A) (A) (A) (A)
                 (A) (A) (A) (A) (A) (A) (A) (A) (A) (A) (A) (A)
                 (A) (A) (A) (A) (A) (A) (A) (A) (A) (A) (A) (A)
                 (A) (A) (A) (A) (A) (A) (A) (A)
       Virtual   (A) (A) (A) (A) (A) (A) (A) (A) (A) (A) (A) (A)
                 (A) (A) (A) (A) (A) (A) (A) (A) (A) (A) (A) (A)
                 (A) (A) (A) (A) (A) (A) (A) (A) (A) (A) (A) (A)
                 (A) (A) (A) (A) (A) (A) (A) (A) (A) (A) (A) (A)
                 (A) (A) (A) (A) (A) (A) (A) (A) (A) (A) (A) (A)
                 (A) (A) (A) (A) (A) (A) (A) (A) (A) (A) (A) (A)
                 (A) (A) (A) (A) (A) (A) (A) (A) (A) (A) (A) (A)
                 (A) (A)
 The electronic state is 1-A.
 Alpha  occ. eigenvalues -- -145.37678-145.34956 -77.04010 -19.22320 -19.13428
 Alpha  occ. eigenvalues --  -19.13413 -19.07824 -15.44750 -15.42077 -12.57929
 Alpha  occ. eigenvalues --  -12.57902 -12.57867 -12.55271 -12.55244 -12.55160
 Alpha  occ. eigenvalues --   -6.50544  -4.66982  -4.66536  -4.66364  -1.82210
 Alpha  occ. eigenvalues --   -1.79591  -1.11773  -1.09827  -1.09761  -1.08290
 Alpha  occ. eigenvalues --   -1.07231  -1.07213  -1.04408  -0.89319  -0.88418
 Alpha  occ. eigenvalues --   -0.73615  -0.51981  -0.43704  -0.41219  -0.40812
 Alpha  occ. eigenvalues --   -0.35466  -0.30710  -0.29673  -0.28633  -0.26991
 Alpha  occ. eigenvalues --   -0.25645  -0.20769  -0.20416  -0.13172
 Alpha virt. eigenvalues --   -0.09164  -0.05406  -0.01272  -0.00262   0.00517
 Alpha virt. eigenvalues --    0.00680   0.02857   0.03891   0.04525   0.06481
 Alpha virt. eigenvalues --    0.07846   0.08503   0.09349   0.12755   0.13556
 Alpha virt. eigenvalues --    0.14083   0.16015   0.18579   0.19732   0.21863
 Alpha virt. eigenvalues --    0.22187   0.23400   0.24885   0.27419   0.29438
 Alpha virt. eigenvalues --    0.31919   0.36345   0.36610   0.37769   0.39878
 Alpha virt. eigenvalues --    0.41418   0.44258   0.45467   0.46538   0.51871
 Alpha virt. eigenvalues --    0.64998   0.71153   0.73889   0.79147   0.83756
 Alpha virt. eigenvalues --    0.87984   0.90727   0.93478   0.97945   1.03795
 Alpha virt. eigenvalues --    1.05261   1.09570   1.12640   1.14138   1.15198
 Alpha virt. eigenvalues --    1.18924   1.19900   1.24007   1.36790   1.41066
 Alpha virt. eigenvalues --    1.43963   1.48090   1.52404   1.54199   1.63562
 Alpha virt. eigenvalues --    1.64973   1.83231   1.85260   1.87730   1.92415
 Alpha virt. eigenvalues --    1.93104   1.94757   1.96897   1.97761   2.00597
 Alpha virt. eigenvalues --    2.01619   2.07501   2.15753   2.21152   2.35277
 Alpha virt. eigenvalues --    2.37102   2.52338   2.57594   2.74203   3.02461
 Alpha virt. eigenvalues --    3.07617   3.60467   3.64507   3.77927   3.86008
 Alpha virt. eigenvalues --    3.96908
          Condensed to atoms (all electrons):
              1          2          3          4          5          6
     1  O    8.529216   0.100433  -0.025529   0.085162  -0.003917   0.000185
     2  P    0.100433  14.494208   0.196637   0.173832  -0.000993   0.000145
     3  H   -0.025529   0.196637   0.930154   0.000861  -0.000003   0.000000
     4  Ca   0.085162   0.173832   0.000861  18.708108   0.094126   0.026612
     5  O   -0.003917  -0.000993  -0.000003   0.094126   8.391826  -0.004715
     6  O    0.000185   0.000145   0.000000   0.026612  -0.004715   8.128111
     7  O   -0.004004  -0.000812   0.000008   0.093215  -0.045103  -0.004461
     8  Ca   0.165432   0.001292  -0.008890  -0.147180   0.107927  -0.006206
              7          8
     1  O   -0.004004   0.165432
     2  P   -0.000812   0.001292
     3  H    0.000008  -0.008890
     4  Ca   0.093215  -0.147180
     5  O   -0.045103   0.107927
     6  O   -0.004461  -0.006206
     7  O    8.392455   0.108508
     8  Ca   0.108508  18.620798
 Mulliken atomic charges:
              1
     1  O   -0.846978
     2  P    0.035258
     3  H   -0.093238
     4  Ca   0.965265
     5  O   -0.539148
     6  O   -0.139671
     7  O   -0.539807
     8  Ca   1.158319
 Sum of Mulliken charges=   0.00000
 Atomic charges with hydrogens summed into heavy atoms:
              1
     1  O   -0.846978
     2  P   -0.057981
     3  H    0.000000
     4  Ca   0.965265
     5  O   -0.539148
     6  O   -0.139671
     7  O   -0.539807
     8  Ca   1.158319
 Sum of Mulliken charges=   0.00000
 Electronic spatial extent (au):  <R**2>=  1372.7053
 Charge=     0.0000 electrons
 Dipole moment (field-independent basis, Debye):
    X=    -4.0125    Y=     2.8134    Z=     0.4669  Tot=     4.9228
 Quadrupole moment (field-independent basis, Debye-Ang):
   XX=   -89.5668   YY=   -44.4560   ZZ=   -71.9784
   XY=   -13.2959   XZ=     1.8293   YZ=    -0.0153
 Traceless Quadrupole moment (field-independent basis, Debye-Ang):
   XX=   -20.8997   YY=    24.2111   ZZ=    -3.3114
   XY=   -13.2959   XZ=     1.8293   YZ=    -0.0153
 Octapole moment (field-independent basis, Debye-Ang**2):
  XXX=   -63.0635  YYY=    18.2926  ZZZ=    -0.1887  XYY=   -35.7362
  XXY=    17.2125  XXZ=     7.0136  XZZ=    -4.8831  YZZ=     5.7891
  YYZ=     0.3006  XYZ=     0.1511
 Hexadecapole moment (field-independent basis, Debye-Ang**3):
 XXXX= -1308.7160 YYYY=  -469.7741 ZZZZ=  -222.3330 XXXY=   -27.5299
 XXXZ=    26.2994 YYYX=   -13.2130 YYYZ=     2.3755 ZZZX=    -0.5179
 ZZZY=     1.4236 XXYY=  -293.9688 XXZZ=  -259.2063 YYZZ=  -121.3627
 XXYZ=     2.6129 YYXZ=     1.0407 ZZXY=    -1.7450
 N-N= 6.343475130138D+02 E-N=-6.004097560958D+03  KE= 1.992160056750D+03
 Merz-Kollman atomic radii used.
 Read replacement radii for each type of atom:
 Rad(20) =   1.188000000000D+00
 Atom Element Radius
    1     8    1.40
    2    15    1.80
    3     1    1.20
    4    20    1.19
    5     8    1.40
    6     8    1.40
    7     8    1.40
    8    20    1.19

 **********************************************************************

            Electrostatic Properties Using The SCF Density

 **********************************************************************

       Atomic Center    1 is at   1.133780  0.811081  0.052208
       Atomic Center    2 is at   2.681341  0.150234 -0.114062
       Atomic Center    3 is at   3.066861  0.049529  1.279579
       Atomic Center    4 is at   0.283003 -1.395570  0.011594
       Atomic Center    5 is at  -1.434329 -0.316419 -1.206151
       Atomic Center    6 is at  -2.103149 -0.906774 -0.017345
       Atomic Center    7 is at  -1.466169 -0.321569  1.191149
       Atomic Center    8 is at  -0.899404  1.573890  0.002027
     751 points will be used for fitting atomic charges
 Fitting point charges to eletrostatic potential
 Charges from ESP fit, RMS=   0.01070 RRMS=   0.19292:
 Charge=   0.00000 Dipole=    -4.5524     2.2725     0.4809 Tot=     5.1108
              1
     1  O   -0.557208
     2  P   -0.610652
     3  H    0.047991
     4  Ca   1.152805
     5  O   -0.640804
     6  O   -0.081833
     7  O   -0.665149
     8  Ca   1.354850
 -----------------------------------------------------------------

              Electrostatic Properties (Atomic Units)

 -----------------------------------------------------------------
    Center     Electric         -------- Electric Field --------
               Potential          X             Y             Z
 -----------------------------------------------------------------
    1 Atom    -22.379376
    2 Atom    -54.174576
    3 Atom     -1.160247
    4 Atom    -80.192907
    5 Atom    -22.336448
    6 Atom    -22.252899
    7 Atom    -22.336757
    8 Atom    -80.166083
 -----------------------------------------------------------------
 1\1\GINC-N028\SP\RB3LYP\6-31G(d,p)\Ca2H1O4P1\TIMN\04-May-2015\0\\# b3l
 yp/6-31G(d,p) pop=(ReadRadii,MK)\\Ca2HPO4_52\\0,1\O,0,1.13378,0.81108,
 0.052209\P,0,2.68134,0.150232,-0.114061\H,0,3.06686,0.049527,1.27958\C
 a,0,0.283001,-1.39557,0.011595\O,0,-1.43433,-0.316418,-1.20615\O,0,-2.
 10315,-0.906773,-0.017344\O,0,-1.46617,-0.321568,1.19115\Ca,0,-0.89940
 4,1.57389,0.002028\\Version=EM64T-G03RevE.01\State=1-A\HF=-1997.932287
 8\RMSD=1.846e-05\Thermal=0.\Dipole=-1.5786311,1.1068954,0.1837001\PG=C
 01 [X(Ca2H1O4P1)]\\@


 GOD GAVE US TWO ENDS... ONE TO SIT ON...    
 AND THE OTHER TO THINK WITH...              
 YOUR SUCCESS DEPENDS UPON WHICH END YOU     
 USE THE MOST...                             
                                             
 IT'S A CASE OF HEADS YOU WIN TAILS YOU LOSE.
          SOURCE UNKNOWN(IT'S JUST AS WELL.) 
 Job cpu time:  0 days  0 hours  0 minutes 21.8 seconds.
 File lengths (MBytes):  RWF=     21 Int=      0 D2E=      0 Chk=     10 Scr=      1
 Normal termination of Gaussian 03 at Mon May  4 20:08:41 2015.
