 Entering Gaussian System, Link 0=/home/timn/tmp/g03.e01/g03
 Input=Ca2HPO4_67.xyz.gjf
 Output=Ca2HPO4_67.xyz.out
 Initial command:
 /home/timn/tmp/g03.e01/l1.exe /home/timn/tmp/g03.e01/Gau-10273.inp -scrdir=/home/timn/tmp/g03.e01/
 Default is to use a total of   2 processors:
                                2 via shared-memory
                                1 via Linda
 Entering Link 1 = /home/timn/tmp/g03.e01/l1.exe PID=     10274.
  
 Copyright (c) 1988,1990,1992,1993,1995,1998,2003,2004,2007, Gaussian, Inc.
                  All Rights Reserved.
  
 This is the Gaussian(R) 03 program.  It is based on the
 the Gaussian(R) 98 system (copyright 1998, Gaussian, Inc.),
 the Gaussian(R) 94 system (copyright 1995, Gaussian, Inc.),
 the Gaussian 92(TM) system (copyright 1992, Gaussian, Inc.),
 the Gaussian 90(TM) system (copyright 1990, Gaussian, Inc.),
 the Gaussian 88(TM) system (copyright 1988, Gaussian, Inc.),
 the Gaussian 86(TM) system (copyright 1986, Carnegie Mellon
 University), and the Gaussian 82(TM) system (copyright 1983,
 Carnegie Mellon University). Gaussian is a federally registered
 trademark of Gaussian, Inc.
  
 This software contains proprietary and confidential information,
 including trade secrets, belonging to Gaussian, Inc.
  
 This software is provided under written license and may be
 used, copied, transmitted, or stored only in accord with that
 written license.
  
 The following legend is applicable only to US Government
 contracts under FAR:
  
                    RESTRICTED RIGHTS LEGEND
  
 Use, reproduction and disclosure by the US Government is
 subject to restrictions as set forth in subparagraphs (a)
 and (c) of the Commercial Computer Software - Restricted
 Rights clause in FAR 52.227-19.
  
 Gaussian, Inc.
 340 Quinnipiac St., Bldg. 40, Wallingford CT 06492
  
  
 ---------------------------------------------------------------
 Warning -- This program may not be used in any manner that
 competes with the business of Gaussian, Inc. or will provide
 assistance to any competitor of Gaussian, Inc.  The licensee
 of this program is prohibited from giving any competitor of
 Gaussian, Inc. access to this program.  By using this program,
 the user acknowledges that Gaussian, Inc. is engaged in the
 business of creating and licensing software in the field of
 computational chemistry and represents and warrants to the
 licensee that it is not a competitor of Gaussian, Inc. and that
 it will not use this program in any manner prohibited above.
 ---------------------------------------------------------------
  

 Cite this work as:
 Gaussian 03, Revision E.01,
 M. J. Frisch, G. W. Trucks, H. B. Schlegel, G. E. Scuseria, 
 M. A. Robb, J. R. Cheeseman, J. A. Montgomery, Jr., T. Vreven, 
 K. N. Kudin, J. C. Burant, J. M. Millam, S. S. Iyengar, J. Tomasi, 
 V. Barone, B. Mennucci, M. Cossi, G. Scalmani, N. Rega, 
 G. A. Petersson, H. Nakatsuji, M. Hada, M. Ehara, K. Toyota, 
 R. Fukuda, J. Hasegawa, M. Ishida, T. Nakajima, Y. Honda, O. Kitao, 
 H. Nakai, M. Klene, X. Li, J. E. Knox, H. P. Hratchian, J. B. Cross, 
 V. Bakken, C. Adamo, J. Jaramillo, R. Gomperts, R. E. Stratmann, 
 O. Yazyev, A. J. Austin, R. Cammi, C. Pomelli, J. W. Ochterski, 
 P. Y. Ayala, K. Morokuma, G. A. Voth, P. Salvador, J. J. Dannenberg, 
 V. G. Zakrzewski, S. Dapprich, A. D. Daniels, M. C. Strain, 
 O. Farkas, D. K. Malick, A. D. Rabuck, K. Raghavachari, 
 J. B. Foresman, J. V. Ortiz, Q. Cui, A. G. Baboul, S. Clifford, 
 J. Cioslowski, B. B. Stefanov, G. Liu, A. Liashenko, P. Piskorz, 
 I. Komaromi, R. L. Martin, D. J. Fox, T. Keith, M. A. Al-Laham, 
 C. Y. Peng, A. Nanayakkara, M. Challacombe, P. M. W. Gill, 
 B. Johnson, W. Chen, M. W. Wong, C. Gonzalez, and J. A. Pople, 
 Gaussian, Inc., Wallingford CT, 2004.
 
 ******************************************
 Gaussian 03:  EM64T-G03RevE.01 11-Sep-2007
                 4-May-2015 
 ******************************************
 %nproc=2
 Will use up to    2 processors via shared memory.
 Default route:  MP2=Direct MaxDisk=2000MB
 -------------------------------------
 # b3lyp/6-31G(d,p) pop=(ReadRadii,MK)
 -------------------------------------
 1/38=1/1;
 2/17=6,18=5,40=1/2;
 3/5=1,6=6,7=101,11=2,16=1,25=1,30=1,74=-5/1,2,3;
 4//1;
 5/5=2,32=1,38=5/2;
 6/7=2,8=2,9=2,10=2,15=8,20=101,28=1/1,2;
 99/5=1,9=1/99;
 ----------
 Ca2HPO4_67
 ----------
 Symbolic Z-matrix:
 Charge =  0 Multiplicity = 1
 O                    -3.18538  -1.04091   0.00628 
 P                    -3.76946   0.38779  -0.00411 
 O                    -2.58961   1.38208  -0.00492 
 Ca                   -0.90814  -0.31382   0.0084 
 O                     1.17005  -0.68341  -0.0051 
 Ca                    3.23942  -0.19825  -0.01055 
 O                     5.10503   0.73955   0.01335 
 H                     5.91567   1.24604   0.02775 
 
                          Input orientation:                          
 ---------------------------------------------------------------------
 Center     Atomic     Atomic              Coordinates (Angstroms)
 Number     Number      Type              X           Y           Z
 ---------------------------------------------------------------------
    1          8             0       -3.185380   -1.040910    0.006284
    2         15             0       -3.769460    0.387790   -0.004110
    3          8             0       -2.589610    1.382080   -0.004918
    4         20             0       -0.908144   -0.313822    0.008395
    5          8             0        1.170050   -0.683405   -0.005100
    6         20             0        3.239420   -0.198251   -0.010549
    7          8             0        5.105030    0.739553    0.013354
    8          1             0        5.915670    1.246040    0.027754
 ---------------------------------------------------------------------
                    Distance matrix (angstroms):
                    1          2          3          4          5
     1  O    0.000000
     2  P    1.543516   0.000000
     3  O    2.495185   1.542939   0.000000
     4  Ca   2.390495   2.946107   2.388219   0.000000
     5  O    4.370093   5.054327   4.289670   2.110844   0.000000
     6  Ca   6.479847   7.033341   6.039459   4.149217   2.125487
     7  O    8.479446   8.881476   7.721442   6.104743   4.184402
     8  H    9.384014   9.723135   8.506431   6.999856   5.122963
                    6          7          8
     6  Ca   0.000000
     7  O    2.088193   0.000000
     8  H    3.041341   0.955967   0.000000
 Stoichiometry    Ca2HO4P
 Framework group  C1[X(Ca2HO4P)]
 Deg. of freedom    18
 Full point group                 C1
 Largest Abelian subgroup         C1      NOp   1
 Largest concise Abelian subgroup C1      NOp   1
                         Standard orientation:                         
 ---------------------------------------------------------------------
 Center     Atomic     Atomic              Coordinates (Angstroms)
 Number     Number      Type              X           Y           Z
 ---------------------------------------------------------------------
    1          8             0       -3.185380   -1.040909    0.006284
    2         15             0       -3.769460    0.387791   -0.004110
    3          8             0       -2.589610    1.382081   -0.004918
    4         20             0       -0.908144   -0.313822    0.008395
    5          8             0        1.170050   -0.683405   -0.005100
    6         20             0        3.239420   -0.198251   -0.010549
    7          8             0        5.105030    0.739553    0.013354
    8          1             0        5.915670    1.246040    0.027754
 ---------------------------------------------------------------------
 Rotational constants (GHZ):      6.6681608      0.3090005      0.2953201
 Standard basis: 6-31G(d,p) (6D, 7F)
 There are   130 symmetry adapted basis functions of A   symmetry.
 Integral buffers will be    131072 words long.
 Raffenetti 2 integral format.
 Two-electron integral symmetry is turned on.
   130 basis functions,   323 primitive gaussians,   130 cartesian basis functions
    44 alpha electrons       44 beta electrons
       nuclear repulsion energy       519.5042298867 Hartrees.
 NAtoms=    8 NActive=    8 NUniq=    8 SFac= 7.50D-01 NAtFMM=   80 NAOKFM=F Big=F
 One-electron integrals computed using PRISM.
 NBasis=   130 RedAO= T  NBF=   130
 NBsUse=   130 1.00D-06 NBFU=   130
 Harris functional with IExCor=  402 diagonalized for initial guess.
 ExpMin= 2.60D-02 ExpMax= 3.53D+04 ExpMxC= 5.30D+03 IAcc=3 IRadAn=         5 AccDes= 0.00D+00
 HarFok:  IExCor= 402 AccDes= 0.00D+00 IRadAn=         5 IDoV=1
 ScaDFX=  1.000000  1.000000  1.000000  1.000000
 Initial guess orbital symmetries:
       Occupied  (A) (A) (A) (A) (A) (A) (A) (A) (A) (A) (A) (A)
                 (A) (A) (A) (A) (A) (A) (A) (A) (A) (A) (A) (A)
                 (A) (A) (A) (A) (A) (A) (A) (A) (A) (A) (A) (A)
                 (A) (A) (A) (A) (A) (A) (A) (A)
       Virtual   (A) (A) (A) (A) (A) (A) (A) (A) (A) (A) (A) (A)
                 (A) (A) (A) (A) (A) (A) (A) (A) (A) (A) (A) (A)
                 (A) (A) (A) (A) (A) (A) (A) (A) (A) (A) (A) (A)
                 (A) (A) (A) (A) (A) (A) (A) (A) (A) (A) (A) (A)
                 (A) (A) (A) (A) (A) (A) (A) (A) (A) (A) (A) (A)
                 (A) (A) (A) (A) (A) (A) (A) (A) (A) (A) (A) (A)
                 (A) (A) (A) (A) (A) (A) (A) (A) (A) (A) (A) (A)
                 (A) (A)
 The electronic state of the initial guess is 1-A.
 Requested convergence on RMS density matrix=1.00D-04 within 128 cycles.
 Requested convergence on MAX density matrix=1.00D-02.
 Requested convergence on             energy=1.00D-02.
 No special actions if energy rises.
 Keep R1 integrals in memory in canonical form, NReq=    38354416.
 EnCoef did     3 forward-backward iterations
 SCF Done:  E(RB+HF-LYP) =  -1998.15328415     A.U. after    8 cycles
             Convg  =    0.2991D-04             -V/T =  2.0028
             S**2   =   0.0000

 **********************************************************************

            Population analysis using the SCF density.

 **********************************************************************

 Orbital symmetries:
       Occupied  (A) (A) (A) (A) (A) (A) (A) (A) (A) (A) (A) (A)
                 (A) (A) (A) (A) (A) (A) (A) (A) (A) (A) (A) (A)
                 (A) (A) (A) (A) (A) (A) (A) (A) (A) (A) (A) (A)
                 (A) (A) (A) (A) (A) (A) (A) (A)
       Virtual   (A) (A) (A) (A) (A) (A) (A) (A) (A) (A) (A) (A)
                 (A) (A) (A) (A) (A) (A) (A) (A) (A) (A) (A) (A)
                 (A) (A) (A) (A) (A) (A) (A) (A) (A) (A) (A) (A)
                 (A) (A) (A) (A) (A) (A) (A) (A) (A) (A) (A) (A)
                 (A) (A) (A) (A) (A) (A) (A) (A) (A) (A) (A) (A)
                 (A) (A) (A) (A) (A) (A) (A) (A) (A) (A) (A) (A)
                 (A) (A) (A) (A) (A) (A) (A) (A) (A) (A) (A) (A)
                 (A) (A)
 The electronic state is 1-A.
 Alpha  occ. eigenvalues -- -145.33345-145.31069 -77.15280 -19.13438 -19.13221
 Alpha  occ. eigenvalues --  -19.03677 -19.00241 -15.40641 -15.38488 -12.53893
 Alpha  occ. eigenvalues --  -12.53825 -12.53592 -12.51721 -12.51717 -12.51379
 Alpha  occ. eigenvalues --   -6.61202  -4.77634  -4.77368  -4.76999  -1.78461
 Alpha  occ. eigenvalues --   -1.76521  -1.06682  -1.06324  -1.06206  -1.04712
 Alpha  occ. eigenvalues --   -1.04697  -1.03628  -0.99393  -0.93868  -0.84856
 Alpha  occ. eigenvalues --   -0.74506  -0.52142  -0.40814  -0.39237  -0.38757
 Alpha  occ. eigenvalues --   -0.37277  -0.30421  -0.29276  -0.26998  -0.21473
 Alpha  occ. eigenvalues --   -0.21423  -0.20691  -0.18993  -0.18970
 Alpha virt. eigenvalues --   -0.05839  -0.05617  -0.03062  -0.00263   0.00406
 Alpha virt. eigenvalues --    0.01339   0.02407   0.03488   0.04797   0.08490
 Alpha virt. eigenvalues --    0.09077   0.11849   0.12912   0.14169   0.15366
 Alpha virt. eigenvalues --    0.15898   0.16621   0.20196   0.22071   0.22175
 Alpha virt. eigenvalues --    0.23058   0.23106   0.25366   0.26488   0.29882
 Alpha virt. eigenvalues --    0.30570   0.33574   0.33894   0.35800   0.36658
 Alpha virt. eigenvalues --    0.41729   0.42018   0.44546   0.45333   0.49171
 Alpha virt. eigenvalues --    0.58159   0.67452   0.67859   0.76605   0.86127
 Alpha virt. eigenvalues --    0.91339   0.91726   0.98016   1.02255   1.02950
 Alpha virt. eigenvalues --    1.03057   1.05354   1.11250   1.13037   1.14822
 Alpha virt. eigenvalues --    1.15831   1.21363   1.22673   1.27486   1.38249
 Alpha virt. eigenvalues --    1.40304   1.45129   1.63097   1.70596   1.71175
 Alpha virt. eigenvalues --    1.79538   1.82066   1.84732   1.86349   1.89820
 Alpha virt. eigenvalues --    1.89840   1.92995   1.93350   1.96446   1.98731
 Alpha virt. eigenvalues --    2.00093   2.03071   2.07405   2.20833   2.30647
 Alpha virt. eigenvalues --    2.50195   2.69750   2.73221   2.73328   2.78075
 Alpha virt. eigenvalues --    3.47536   3.50281   3.67144   3.74020   3.81633
 Alpha virt. eigenvalues --    3.91340
          Condensed to atoms (all electrons):
              1          2          3          4          5          6
     1  O    8.323028   0.261882  -0.049195   0.109904  -0.000085  -0.000003
     2  P    0.261882  13.697133   0.267393   0.037768  -0.000041  -0.001556
     3  O   -0.049195   0.267393   8.320196   0.105923  -0.000106  -0.000538
     4  Ca   0.109904   0.037768   0.105923  18.604175   0.252841  -0.123141
     5  O   -0.000085  -0.000041  -0.000106   0.252841   8.427883   0.246338
     6  Ca  -0.000003  -0.001556  -0.000538  -0.123141   0.246338  18.651757
     7  O    0.000000   0.000000   0.000000  -0.005322  -0.000281   0.233373
     8  H    0.000000   0.000000   0.000000  -0.000037   0.000007  -0.027075
              7          8
     1  O    0.000000   0.000000
     2  P    0.000000   0.000000
     3  O    0.000000   0.000000
     4  Ca  -0.005322  -0.000037
     5  O   -0.000281   0.000007
     6  Ca   0.233373  -0.027075
     7  O    8.321636   0.275524
     8  H    0.275524   0.487044
 Mulliken atomic charges:
              1
     1  O   -0.645532
     2  P    0.737421
     3  O   -0.643674
     4  Ca   1.017890
     5  O   -0.926557
     6  Ca   1.020845
     7  O   -0.824930
     8  H    0.264537
 Sum of Mulliken charges=   0.00000
 Atomic charges with hydrogens summed into heavy atoms:
              1
     1  O   -0.645532
     2  P    0.737421
     3  O   -0.643674
     4  Ca   1.017890
     5  O   -0.926557
     6  Ca   1.020845
     7  O   -0.560392
     8  H    0.000000
 Sum of Mulliken charges=   0.00000
 Electronic spatial extent (au):  <R**2>=  3257.3187
 Charge=     0.0000 electrons
 Dipole moment (field-independent basis, Debye):
    X=     0.8903    Y=    -1.1651    Z=    -0.0138  Tot=     1.4664
 Quadrupole moment (field-independent basis, Debye-Ang):
   XX=   -85.3474   YY=   -70.4991   ZZ=   -59.0814
   XY=    -5.2239   XZ=    -0.2640   YZ=     0.0447
 Traceless Quadrupole moment (field-independent basis, Debye-Ang):
   XX=   -13.7048   YY=     1.1435   ZZ=    12.5612
   XY=    -5.2239   XZ=    -0.2640   YZ=     0.0447
 Octapole moment (field-independent basis, Debye-Ang**2):
  XXX=   -18.0521  YYY=    -5.4229  ZZZ=    -0.0098  XYY=    30.2893
  XXY=   -16.8627  XXZ=    -0.6575  XZZ=     0.9455  YZZ=    -1.3732
  YYZ=     0.0669  XYZ=     0.0736
 Hexadecapole moment (field-independent basis, Debye-Ang**3):
 XXXX= -4299.5343 YYYY=  -269.5237 ZZZZ=   -82.2636 XXXY=   -81.7724
 XXXZ=    -0.4057 YYYX=    19.7338 YYYZ=     0.1564 ZZZX=    -0.6273
 ZZZY=     0.0270 XXYY=  -683.3156 XXZZ=  -612.9021 YYZZ=   -56.7143
 XXYZ=     1.7412 YYXZ=     0.1078 ZZXY=    -1.7665
 N-N= 5.195042298867D+02 E-N=-5.776229116417D+03  KE= 1.992542430233D+03
 Merz-Kollman atomic radii used.
 Read replacement radii for each type of atom:
 Rad(20) =   1.188000000000D+00
 Atom Element Radius
    1     8    1.40
    2    15    1.80
    3     8    1.40
    4    20    1.19
    5     8    1.40
    6    20    1.19
    7     8    1.40
    8     1    1.20

 **********************************************************************

            Electrostatic Properties Using The SCF Density

 **********************************************************************

       Atomic Center    1 is at  -3.185380 -1.040909  0.006284
       Atomic Center    2 is at  -3.769460  0.387791 -0.004110
       Atomic Center    3 is at  -2.589610  1.382081 -0.004918
       Atomic Center    4 is at  -0.908144 -0.313822  0.008395
       Atomic Center    5 is at   1.170050 -0.683405 -0.005100
       Atomic Center    6 is at   3.239420 -0.198251 -0.010549
       Atomic Center    7 is at   5.105030  0.739553  0.013354
       Atomic Center    8 is at   5.915670  1.246040  0.027754
     902 points will be used for fitting atomic charges
 Fitting point charges to eletrostatic potential
 Charges from ESP fit, RMS=   0.00539 RRMS=   0.13281:
 Charge=   0.00000 Dipole=     0.9598    -1.1918    -0.0118 Tot=     1.5303
              1
     1  O   -0.623253
     2  P    0.421483
     3  O   -0.662547
     4  Ca   1.637330
     5  O   -1.585005
     6  Ca   1.679241
     7  O   -1.381155
     8  H    0.513905
 -----------------------------------------------------------------

              Electrostatic Properties (Atomic Units)

 -----------------------------------------------------------------
    Center     Electric         -------- Electric Field --------
               Potential          X             Y             Z
 -----------------------------------------------------------------
    1 Atom    -22.336322
    2 Atom    -54.064691
    3 Atom    -22.330942
    4 Atom    -80.208893
    5 Atom    -22.454791
    6 Atom    -80.231719
    7 Atom    -22.420502
    8 Atom     -1.097558
 -----------------------------------------------------------------
 1\1\GINC-N032\SP\RB3LYP\6-31G(d,p)\Ca2H1O4P1\TIMN\04-May-2015\0\\# b3l
 yp/6-31G(d,p) pop=(ReadRadii,MK)\\Ca2HPO4_67\\0,1\O,0,-3.18538,-1.0409
 1,0.006284\P,0,-3.76946,0.38779,-0.00411\O,0,-2.58961,1.38208,-0.00491
 8\Ca,0,-0.908144,-0.313822,0.008395\O,0,1.17005,-0.683405,-0.0051\Ca,0
 ,3.23942,-0.198251,-0.010549\O,0,5.10503,0.739553,0.013354\H,0,5.91567
 ,1.24604,0.027754\\Version=EM64T-G03RevE.01\State=1-A\HF=-1998.1532842
 \RMSD=2.991e-05\Thermal=0.\Dipole=0.3502719,-0.4583804,-0.0054326\PG=C
 01 [X(Ca2H1O4P1)]\\@


 KINETICS       FACT
 ---------  =  -------
 MECHANISM     FICTION
 Job cpu time:  0 days  0 hours  0 minutes 15.7 seconds.
 File lengths (MBytes):  RWF=     21 Int=      0 D2E=      0 Chk=     10 Scr=      1
 Normal termination of Gaussian 03 at Mon May  4 20:08:44 2015.
