 Entering Gaussian System, Link 0=/home/timn/tmp/g03.e01/g03
 Input=Ca2HPO4_66.xyz.gjf
 Output=Ca2HPO4_66.xyz.out
 Initial command:
 /home/timn/tmp/g03.e01/l1.exe /home/timn/tmp/g03.e01/Gau-30488.inp -scrdir=/home/timn/tmp/g03.e01/
 Default is to use a total of   2 processors:
                                2 via shared-memory
                                1 via Linda
 Entering Link 1 = /home/timn/tmp/g03.e01/l1.exe PID=     30489.
  
 Copyright (c) 1988,1990,1992,1993,1995,1998,2003,2004,2007, Gaussian, Inc.
                  All Rights Reserved.
  
 This is the Gaussian(R) 03 program.  It is based on the
 the Gaussian(R) 98 system (copyright 1998, Gaussian, Inc.),
 the Gaussian(R) 94 system (copyright 1995, Gaussian, Inc.),
 the Gaussian 92(TM) system (copyright 1992, Gaussian, Inc.),
 the Gaussian 90(TM) system (copyright 1990, Gaussian, Inc.),
 the Gaussian 88(TM) system (copyright 1988, Gaussian, Inc.),
 the Gaussian 86(TM) system (copyright 1986, Carnegie Mellon
 University), and the Gaussian 82(TM) system (copyright 1983,
 Carnegie Mellon University). Gaussian is a federally registered
 trademark of Gaussian, Inc.
  
 This software contains proprietary and confidential information,
 including trade secrets, belonging to Gaussian, Inc.
  
 This software is provided under written license and may be
 used, copied, transmitted, or stored only in accord with that
 written license.
  
 The following legend is applicable only to US Government
 contracts under FAR:
  
                    RESTRICTED RIGHTS LEGEND
  
 Use, reproduction and disclosure by the US Government is
 subject to restrictions as set forth in subparagraphs (a)
 and (c) of the Commercial Computer Software - Restricted
 Rights clause in FAR 52.227-19.
  
 Gaussian, Inc.
 340 Quinnipiac St., Bldg. 40, Wallingford CT 06492
  
  
 ---------------------------------------------------------------
 Warning -- This program may not be used in any manner that
 competes with the business of Gaussian, Inc. or will provide
 assistance to any competitor of Gaussian, Inc.  The licensee
 of this program is prohibited from giving any competitor of
 Gaussian, Inc. access to this program.  By using this program,
 the user acknowledges that Gaussian, Inc. is engaged in the
 business of creating and licensing software in the field of
 computational chemistry and represents and warrants to the
 licensee that it is not a competitor of Gaussian, Inc. and that
 it will not use this program in any manner prohibited above.
 ---------------------------------------------------------------
  

 Cite this work as:
 Gaussian 03, Revision E.01,
 M. J. Frisch, G. W. Trucks, H. B. Schlegel, G. E. Scuseria, 
 M. A. Robb, J. R. Cheeseman, J. A. Montgomery, Jr., T. Vreven, 
 K. N. Kudin, J. C. Burant, J. M. Millam, S. S. Iyengar, J. Tomasi, 
 V. Barone, B. Mennucci, M. Cossi, G. Scalmani, N. Rega, 
 G. A. Petersson, H. Nakatsuji, M. Hada, M. Ehara, K. Toyota, 
 R. Fukuda, J. Hasegawa, M. Ishida, T. Nakajima, Y. Honda, O. Kitao, 
 H. Nakai, M. Klene, X. Li, J. E. Knox, H. P. Hratchian, J. B. Cross, 
 V. Bakken, C. Adamo, J. Jaramillo, R. Gomperts, R. E. Stratmann, 
 O. Yazyev, A. J. Austin, R. Cammi, C. Pomelli, J. W. Ochterski, 
 P. Y. Ayala, K. Morokuma, G. A. Voth, P. Salvador, J. J. Dannenberg, 
 V. G. Zakrzewski, S. Dapprich, A. D. Daniels, M. C. Strain, 
 O. Farkas, D. K. Malick, A. D. Rabuck, K. Raghavachari, 
 J. B. Foresman, J. V. Ortiz, Q. Cui, A. G. Baboul, S. Clifford, 
 J. Cioslowski, B. B. Stefanov, G. Liu, A. Liashenko, P. Piskorz, 
 I. Komaromi, R. L. Martin, D. J. Fox, T. Keith, M. A. Al-Laham, 
 C. Y. Peng, A. Nanayakkara, M. Challacombe, P. M. W. Gill, 
 B. Johnson, W. Chen, M. W. Wong, C. Gonzalez, and J. A. Pople, 
 Gaussian, Inc., Wallingford CT, 2004.
 
 ******************************************
 Gaussian 03:  EM64T-G03RevE.01 11-Sep-2007
                 4-May-2015 
 ******************************************
 %nproc=2
 Will use up to    2 processors via shared memory.
 Default route:  MP2=Direct MaxDisk=2000MB
 -------------------------------------
 # b3lyp/6-31G(d,p) pop=(ReadRadii,MK)
 -------------------------------------
 1/38=1/1;
 2/17=6,18=5,40=1/2;
 3/5=1,6=6,7=101,11=2,16=1,25=1,30=1,74=-5/1,2,3;
 4//1;
 5/5=2,32=1,38=5/2;
 6/7=2,8=2,9=2,10=2,15=8,20=101,28=1/1,2;
 99/5=1,9=1/99;
 ----------
 Ca2HPO4_66
 ----------
 Symbolic Z-matrix:
 Charge =  0 Multiplicity = 1
 O                    -2.25747  -1.97759   0.09371 
 P                    -0.93252  -1.33376   0.09599 
 O                     0.3619   -1.8706   -0.47859 
 O                    -0.69266   0.1103    0.62432 
 Ca                   -1.65448   2.14478  -0.12575 
 Ca                    1.69264   0.09619  -0.16178 
 O                     3.66939   0.54087   0.24315 
 H                     4.57525   0.76319   0.44996 
 
                          Input orientation:                          
 ---------------------------------------------------------------------
 Center     Atomic     Atomic              Coordinates (Angstroms)
 Number     Number      Type              X           Y           Z
 ---------------------------------------------------------------------
    1          8             0       -2.257470   -1.977590    0.093713
    2         15             0       -0.932517   -1.333760    0.095994
    3          8             0        0.361897   -1.870600   -0.478586
    4          8             0       -0.692657    0.110302    0.624320
    5         20             0       -1.654480    2.144780   -0.125747
    6         20             0        1.692640    0.096193   -0.161784
    7          8             0        3.669390    0.540867    0.243145
    8          1             0        4.575250    0.763186    0.449963
 ---------------------------------------------------------------------
                    Distance matrix (angstroms):
                    1          2          3          4          5
     1  O    0.000000
     2  P    1.473100   0.000000
     3  O    2.683292   1.514545   0.000000
     4  O    2.662607   1.556270   2.500492   0.000000
     5  Ca   4.172013   3.559584   4.507055   2.372089   0.000000
     6  Ca   4.468694   3.000444   2.395729   2.511533   3.924439
     7  O    6.441477   4.971260   4.156390   4.399788   5.572451
     8  H    7.370538   5.904064   5.054837   5.311074   6.407010
                    6          7          8
     6  Ca   0.000000
     7  O    2.066215   0.000000
     8  H    3.021350   0.955396   0.000000
 Stoichiometry    Ca2HO4P
 Framework group  C1[X(Ca2HO4P)]
 Deg. of freedom    18
 Full point group                 C1
 Largest Abelian subgroup         C1      NOp   1
 Largest concise Abelian subgroup C1      NOp   1
                         Standard orientation:                         
 ---------------------------------------------------------------------
 Center     Atomic     Atomic              Coordinates (Angstroms)
 Number     Number      Type              X           Y           Z
 ---------------------------------------------------------------------
    1          8             0       -2.257464   -1.977598    0.093713
    2         15             0       -0.932513   -1.333764    0.095994
    3          8             0        0.361903   -1.870600   -0.478586
    4          8             0       -0.692657    0.110299    0.624320
    5         20             0       -1.654486    2.144774   -0.125747
    6         20             0        1.692640    0.096197   -0.161784
    7          8             0        3.669389    0.540877    0.243145
    8          1             0        4.575248    0.763199    0.449963
 ---------------------------------------------------------------------
 Rotational constants (GHZ):      1.3427436      0.8543119      0.5366914
 Standard basis: 6-31G(d,p) (6D, 7F)
 There are   130 symmetry adapted basis functions of A   symmetry.
 Integral buffers will be    131072 words long.
 Raffenetti 2 integral format.
 Two-electron integral symmetry is turned on.
   130 basis functions,   323 primitive gaussians,   130 cartesian basis functions
    44 alpha electrons       44 beta electrons
       nuclear repulsion energy       582.1309719876 Hartrees.
 NAtoms=    8 NActive=    8 NUniq=    8 SFac= 7.50D-01 NAtFMM=   80 NAOKFM=F Big=F
 One-electron integrals computed using PRISM.
 NBasis=   130 RedAO= T  NBF=   130
 NBsUse=   130 1.00D-06 NBFU=   130
 Harris functional with IExCor=  402 diagonalized for initial guess.
 ExpMin= 2.60D-02 ExpMax= 3.53D+04 ExpMxC= 5.30D+03 IAcc=3 IRadAn=         5 AccDes= 0.00D+00
 HarFok:  IExCor= 402 AccDes= 0.00D+00 IRadAn=         5 IDoV=1
 ScaDFX=  1.000000  1.000000  1.000000  1.000000
 Initial guess orbital symmetries:
       Occupied  (A) (A) (A) (A) (A) (A) (A) (A) (A) (A) (A) (A)
                 (A) (A) (A) (A) (A) (A) (A) (A) (A) (A) (A) (A)
                 (A) (A) (A) (A) (A) (A) (A) (A) (A) (A) (A) (A)
                 (A) (A) (A) (A) (A) (A) (A) (A)
       Virtual   (A) (A) (A) (A) (A) (A) (A) (A) (A) (A) (A) (A)
                 (A) (A) (A) (A) (A) (A) (A) (A) (A) (A) (A) (A)
                 (A) (A) (A) (A) (A) (A) (A) (A) (A) (A) (A) (A)
                 (A) (A) (A) (A) (A) (A) (A) (A) (A) (A) (A) (A)
                 (A) (A) (A) (A) (A) (A) (A) (A) (A) (A) (A) (A)
                 (A) (A) (A) (A) (A) (A) (A) (A) (A) (A) (A) (A)
                 (A) (A) (A) (A) (A) (A) (A) (A) (A) (A) (A) (A)
                 (A) (A)
 The electronic state of the initial guess is 1-A.
 Requested convergence on RMS density matrix=1.00D-04 within 128 cycles.
 Requested convergence on MAX density matrix=1.00D-02.
 Requested convergence on             energy=1.00D-02.
 No special actions if energy rises.
 Keep R1 integrals in memory in canonical form, NReq=    38354263.
 EnCoef did     3 forward-backward iterations
 EnCoef did     2 forward-backward iterations
 EnCoef did     4 forward-backward iterations
 SCF Done:  E(RB+HF-LYP) =  -1998.12216550     A.U. after   12 cycles
             Convg  =    0.3453D-04             -V/T =  2.0029
             S**2   =   0.0000

 **********************************************************************

            Population analysis using the SCF density.

 **********************************************************************

 Orbital symmetries:
       Occupied  (A) (A) (A) (A) (A) (A) (A) (A) (A) (A) (A) (A)
                 (A) (A) (A) (A) (A) (A) (A) (A) (A) (A) (A) (A)
                 (A) (A) (A) (A) (A) (A) (A) (A) (A) (A) (A) (A)
                 (A) (A) (A) (A) (A) (A) (A) (A)
       Virtual   (A) (A) (A) (A) (A) (A) (A) (A) (A) (A) (A) (A)
                 (A) (A) (A) (A) (A) (A) (A) (A) (A) (A) (A) (A)
                 (A) (A) (A) (A) (A) (A) (A) (A) (A) (A) (A) (A)
                 (A) (A) (A) (A) (A) (A) (A) (A) (A) (A) (A) (A)
                 (A) (A) (A) (A) (A) (A) (A) (A) (A) (A) (A) (A)
                 (A) (A) (A) (A) (A) (A) (A) (A) (A) (A) (A) (A)
                 (A) (A) (A) (A) (A) (A) (A) (A) (A) (A) (A) (A)
                 (A) (A)
 The electronic state is 1-A.
 Alpha  occ. eigenvalues -- -145.40101-145.36950 -77.24003 -19.19175 -19.17553
 Alpha  occ. eigenvalues --  -19.16724 -19.05124 -15.47251 -15.44105 -12.60405
 Alpha  occ. eigenvalues --  -12.60400 -12.60327 -12.57342 -12.57296 -12.57117
 Alpha  occ. eigenvalues --   -6.69343  -4.85896  -4.85502  -4.85402  -1.84511
 Alpha  occ. eigenvalues --   -1.81641  -1.12050  -1.11887  -1.11819  -1.09975
 Alpha  occ. eigenvalues --   -1.09521  -1.09335  -1.06247  -0.99659  -0.99263
 Alpha  occ. eigenvalues --   -0.86291  -0.55898  -0.47187  -0.45648  -0.45312
 Alpha  occ. eigenvalues --   -0.39844  -0.38243  -0.36718  -0.35970  -0.34409
 Alpha  occ. eigenvalues --   -0.32017  -0.22919  -0.22901  -0.16150
 Alpha virt. eigenvalues --   -0.08257  -0.05699  -0.04720  -0.03582  -0.01641
 Alpha virt. eigenvalues --   -0.00455   0.00474   0.02727   0.04098   0.05195
 Alpha virt. eigenvalues --    0.08482   0.10137   0.10662   0.12247   0.12870
 Alpha virt. eigenvalues --    0.14461   0.15452   0.16437   0.17052   0.17502
 Alpha virt. eigenvalues --    0.18925   0.19186   0.19643   0.21346   0.23957
 Alpha virt. eigenvalues --    0.24997   0.28496   0.29291   0.34138   0.34408
 Alpha virt. eigenvalues --    0.35807   0.40040   0.40680   0.44287   0.45593
 Alpha virt. eigenvalues --    0.49669   0.62479   0.65110   0.82468   0.85249
 Alpha virt. eigenvalues --    0.88609   0.90733   0.95254   0.96804   1.00238
 Alpha virt. eigenvalues --    1.01304   1.01743   1.06069   1.09463   1.12090
 Alpha virt. eigenvalues --    1.13214   1.19548   1.21875   1.24569   1.34174
 Alpha virt. eigenvalues --    1.38523   1.40111   1.51264   1.69031   1.70008
 Alpha virt. eigenvalues --    1.73703   1.76348   1.76990   1.78405   1.79872
 Alpha virt. eigenvalues --    1.84278   1.88482   1.88595   1.92066   1.93075
 Alpha virt. eigenvalues --    1.99495   2.10827   2.23348   2.24215   2.44787
 Alpha virt. eigenvalues --    2.63217   2.72240   2.72527   2.77269   2.79576
 Alpha virt. eigenvalues --    3.41636   3.48830   3.71889   3.78555   3.84246
 Alpha virt. eigenvalues --    3.90277
          Condensed to atoms (all electrons):
              1          2          3          4          5          6
     1  O    7.997046   0.516034  -0.019435  -0.021015   0.001215  -0.005943
     2  P    0.516034  12.727009   0.328962   0.230953   0.066582   0.011073
     3  O   -0.019435   0.328962   8.251208  -0.043067  -0.017765   0.106574
     4  O   -0.021015   0.230953  -0.043067   8.475367  -0.012625   0.053591
     5  Ca   0.001215   0.066582  -0.017765  -0.012625  19.766070   0.014592
     6  Ca  -0.005943   0.011073   0.106574   0.053591   0.014592  18.591125
     7  O    0.000000  -0.000257  -0.000083  -0.000038  -0.011566   0.261385
     8  H    0.000000   0.000000   0.000002   0.000001   0.000712  -0.026269
              7          8
     1  O    0.000000   0.000000
     2  P   -0.000257   0.000000
     3  O   -0.000083   0.000002
     4  O   -0.000038   0.000001
     5  Ca  -0.011566   0.000712
     6  Ca   0.261385  -0.026269
     7  O    8.290958   0.283050
     8  H    0.283050   0.467891
 Mulliken atomic charges:
              1
     1  O   -0.467901
     2  P    1.119643
     3  O   -0.606396
     4  O   -0.683167
     5  Ca   0.192786
     6  Ca   0.993871
     7  O   -0.823449
     8  H    0.274613
 Sum of Mulliken charges=   0.00000
 Atomic charges with hydrogens summed into heavy atoms:
              1
     1  O   -0.467901
     2  P    1.119643
     3  O   -0.606396
     4  O   -0.683167
     5  Ca   0.192786
     6  Ca   0.993871
     7  O   -0.548836
     8  H    0.000000
 Sum of Mulliken charges=   0.00000
 Electronic spatial extent (au):  <R**2>=  1913.4504
 Charge=     0.0000 electrons
 Dipole moment (field-independent basis, Debye):
    X=    -0.6089    Y=     2.4494    Z=     0.3314  Tot=     2.5456
 Quadrupole moment (field-independent basis, Debye-Ang):
   XX=   -81.4697   YY=   -80.6424   ZZ=   -71.2363
   XY=    -9.1487   XZ=    -2.1411   YZ=     0.3834
 Traceless Quadrupole moment (field-independent basis, Debye-Ang):
   XX=    -3.6869   YY=    -2.8596   ZZ=     6.5465
   XY=    -9.1487   XZ=    -2.1411   YZ=     0.3834
 Octapole moment (field-independent basis, Debye-Ang**2):
  XXX=    14.7691  YYY=   -44.2877  ZZZ=    11.5891  XYY=    12.2088
  XXY=     3.7461  XXZ=     4.4341  XZZ=    14.3794  YZZ=   -22.4319
  YYZ=    17.2784  XYZ=    -4.5963
 Hexadecapole moment (field-independent basis, Debye-Ang**3):
 XXXX= -1529.9477 YYYY= -1252.6287 ZZZZ=  -187.9707 XXXY=    31.6822
 XXXZ=     5.0810 YYYX=    51.7177 YYYZ=    30.9046 ZZZX=   -18.5741
 ZZZY=    24.9109 XXYY=  -464.8364 XXZZ=  -279.4536 YYZZ=  -231.5605
 XXYZ=    21.9574 YYXZ=   -12.4012 ZZXY=    29.5340
 N-N= 5.821309719876D+02 E-N=-5.895453484082D+03  KE= 1.992269940215D+03
 Merz-Kollman atomic radii used.
 Read replacement radii for each type of atom:
 Rad(20) =   1.188000000000D+00
 Atom Element Radius
    1     8    1.40
    2    15    1.80
    3     8    1.40
    4     8    1.40
    5    20    1.19
    6    20    1.19
    7     8    1.40
    8     1    1.20

 **********************************************************************

            Electrostatic Properties Using The SCF Density

 **********************************************************************

       Atomic Center    1 is at  -2.257464 -1.977598  0.093713
       Atomic Center    2 is at  -0.932513 -1.333764  0.095994
       Atomic Center    3 is at   0.361903 -1.870600 -0.478586
       Atomic Center    4 is at  -0.692657  0.110299  0.624320
       Atomic Center    5 is at  -1.654486  2.144774 -0.125747
       Atomic Center    6 is at   1.692640  0.096197 -0.161784
       Atomic Center    7 is at   3.669389  0.540877  0.243145
       Atomic Center    8 is at   4.575248  0.763199  0.449963
     792 points will be used for fitting atomic charges
 Fitting point charges to eletrostatic potential
 Charges from ESP fit, RMS=   0.02238 RRMS=   0.44262:
 Charge=   0.00000 Dipole=    -2.5865     7.1344    -1.8211 Tot=     7.8043
              1
     1  O   -0.528799
     2  P    0.774956
     3  O   -0.537593
     4  O   -0.475972
     5  Ca   0.353879
     6  Ca   1.163452
     7  O   -0.996342
     8  H    0.246420
 -----------------------------------------------------------------

              Electrostatic Properties (Atomic Units)

 -----------------------------------------------------------------
    Center     Electric         -------- Electric Field --------
               Potential          X             Y             Z
 -----------------------------------------------------------------
    1 Atom    -22.302748
    2 Atom    -53.969181
    3 Atom    -22.291812
    4 Atom    -22.276925
    5 Atom    -80.145076
    6 Atom    -80.172910
    7 Atom    -22.404926
    8 Atom     -1.082790
 -----------------------------------------------------------------
 1\1\GINC-N028\SP\RB3LYP\6-31G(d,p)\Ca2H1O4P1\TIMN\04-May-2015\0\\# b3l
 yp/6-31G(d,p) pop=(ReadRadii,MK)\\Ca2HPO4_66\\0,1\O,0,-2.25747,-1.9775
 9,0.093713\P,0,-0.932517,-1.33376,0.095994\O,0,0.361897,-1.8706,-0.478
 586\O,0,-0.692657,0.110302,0.62432\Ca,0,-1.65448,2.14478,-0.125747\Ca,
 0,1.69264,0.096193,-0.161784\O,0,3.66939,0.540867,0.243145\H,0,4.57525
 ,0.763186,0.449963\\Version=EM64T-G03RevE.01\State=1-A\HF=-1998.122165
 5\RMSD=3.453e-05\Thermal=0.\Dipole=-0.2395686,0.9636657,0.1303946\PG=C
 01 [X(Ca2H1O4P1)]\\@


 NATURE WILL TELL YOU A DIRECT LIE IF SHE CAN.

                                -- CHARLES DARWIN
 Job cpu time:  0 days  0 hours  0 minutes 23.0 seconds.
 File lengths (MBytes):  RWF=     21 Int=      0 D2E=      0 Chk=     10 Scr=      1
 Normal termination of Gaussian 03 at Mon May  4 20:08:47 2015.
