 Entering Gaussian System, Link 0=/home/timn/tmp/g03.e01/g03
 Input=Ca2HPO4_38.xyz.gjf
 Output=Ca2HPO4_38.xyz.out
 Initial command:
 /home/timn/tmp/g03.e01/l1.exe /home/timn/tmp/g03.e01/Gau-26892.inp -scrdir=/home/timn/tmp/g03.e01/
 Default is to use a total of   2 processors:
                                2 via shared-memory
                                1 via Linda
 Entering Link 1 = /home/timn/tmp/g03.e01/l1.exe PID=     26893.
  
 Copyright (c) 1988,1990,1992,1993,1995,1998,2003,2004,2007, Gaussian, Inc.
                  All Rights Reserved.
  
 This is the Gaussian(R) 03 program.  It is based on the
 the Gaussian(R) 98 system (copyright 1998, Gaussian, Inc.),
 the Gaussian(R) 94 system (copyright 1995, Gaussian, Inc.),
 the Gaussian 92(TM) system (copyright 1992, Gaussian, Inc.),
 the Gaussian 90(TM) system (copyright 1990, Gaussian, Inc.),
 the Gaussian 88(TM) system (copyright 1988, Gaussian, Inc.),
 the Gaussian 86(TM) system (copyright 1986, Carnegie Mellon
 University), and the Gaussian 82(TM) system (copyright 1983,
 Carnegie Mellon University). Gaussian is a federally registered
 trademark of Gaussian, Inc.
  
 This software contains proprietary and confidential information,
 including trade secrets, belonging to Gaussian, Inc.
  
 This software is provided under written license and may be
 used, copied, transmitted, or stored only in accord with that
 written license.
  
 The following legend is applicable only to US Government
 contracts under FAR:
  
                    RESTRICTED RIGHTS LEGEND
  
 Use, reproduction and disclosure by the US Government is
 subject to restrictions as set forth in subparagraphs (a)
 and (c) of the Commercial Computer Software - Restricted
 Rights clause in FAR 52.227-19.
  
 Gaussian, Inc.
 340 Quinnipiac St., Bldg. 40, Wallingford CT 06492
  
  
 ---------------------------------------------------------------
 Warning -- This program may not be used in any manner that
 competes with the business of Gaussian, Inc. or will provide
 assistance to any competitor of Gaussian, Inc.  The licensee
 of this program is prohibited from giving any competitor of
 Gaussian, Inc. access to this program.  By using this program,
 the user acknowledges that Gaussian, Inc. is engaged in the
 business of creating and licensing software in the field of
 computational chemistry and represents and warrants to the
 licensee that it is not a competitor of Gaussian, Inc. and that
 it will not use this program in any manner prohibited above.
 ---------------------------------------------------------------
  

 Cite this work as:
 Gaussian 03, Revision E.01,
 M. J. Frisch, G. W. Trucks, H. B. Schlegel, G. E. Scuseria, 
 M. A. Robb, J. R. Cheeseman, J. A. Montgomery, Jr., T. Vreven, 
 K. N. Kudin, J. C. Burant, J. M. Millam, S. S. Iyengar, J. Tomasi, 
 V. Barone, B. Mennucci, M. Cossi, G. Scalmani, N. Rega, 
 G. A. Petersson, H. Nakatsuji, M. Hada, M. Ehara, K. Toyota, 
 R. Fukuda, J. Hasegawa, M. Ishida, T. Nakajima, Y. Honda, O. Kitao, 
 H. Nakai, M. Klene, X. Li, J. E. Knox, H. P. Hratchian, J. B. Cross, 
 V. Bakken, C. Adamo, J. Jaramillo, R. Gomperts, R. E. Stratmann, 
 O. Yazyev, A. J. Austin, R. Cammi, C. Pomelli, J. W. Ochterski, 
 P. Y. Ayala, K. Morokuma, G. A. Voth, P. Salvador, J. J. Dannenberg, 
 V. G. Zakrzewski, S. Dapprich, A. D. Daniels, M. C. Strain, 
 O. Farkas, D. K. Malick, A. D. Rabuck, K. Raghavachari, 
 J. B. Foresman, J. V. Ortiz, Q. Cui, A. G. Baboul, S. Clifford, 
 J. Cioslowski, B. B. Stefanov, G. Liu, A. Liashenko, P. Piskorz, 
 I. Komaromi, R. L. Martin, D. J. Fox, T. Keith, M. A. Al-Laham, 
 C. Y. Peng, A. Nanayakkara, M. Challacombe, P. M. W. Gill, 
 B. Johnson, W. Chen, M. W. Wong, C. Gonzalez, and J. A. Pople, 
 Gaussian, Inc., Wallingford CT, 2004.
 
 ******************************************
 Gaussian 03:  EM64T-G03RevE.01 11-Sep-2007
                 4-May-2015 
 ******************************************
 %nproc=2
 Will use up to    2 processors via shared memory.
 Default route:  MP2=Direct MaxDisk=2000MB
 -------------------------------------
 # b3lyp/6-31G(d,p) pop=(ReadRadii,MK)
 -------------------------------------
 1/38=1/1;
 2/17=6,18=5,40=1/2;
 3/5=1,6=6,7=101,11=2,16=1,25=1,30=1,74=-5/1,2,3;
 4//1;
 5/5=2,32=1,38=5/2;
 6/7=2,8=2,9=2,10=2,15=8,20=101,28=1/1,2;
 99/5=1,9=1/99;
 ----------
 Ca2HPO4_38
 ----------
 Symbolic Z-matrix:
 Charge =  0 Multiplicity = 1
 O                    -0.29889  -1.13701   1.07804 
 O                    -0.55108   0.32762   1.45496 
 Ca                   -1.92404  -0.04528  -0.27345 
 P                     0.92583  -1.31362  -0.25975 
 H                    -1.42068   2.16099  -0.62141 
 O                     0.05744  -0.37116  -1.31475 
 Ca                    0.78477   1.52657  -0.04997 
 O                     2.08236  -0.32975   0.15501 
 
                          Input orientation:                          
 ---------------------------------------------------------------------
 Center     Atomic     Atomic              Coordinates (Angstroms)
 Number     Number      Type              X           Y           Z
 ---------------------------------------------------------------------
    1          8             0       -0.298891   -1.137010    1.078040
    2          8             0       -0.551077    0.327616    1.454960
    3         20             0       -1.924040   -0.045278   -0.273453
    4         15             0        0.925827   -1.313620   -0.259753
    5          1             0       -1.420680    2.160990   -0.621407
    6          8             0        0.057442   -0.371164   -1.314750
    7         20             0        0.784766    1.526570   -0.049965
    8          8             0        2.082360   -0.329747    0.155010
 ---------------------------------------------------------------------
                    Distance matrix (angstroms):
                    1          2          3          4          5
     1  O    0.000000
     2  O    1.533231   0.000000
     3  Ca   2.378975   2.238635   0.000000
     4  P    1.822310   2.795557   3.119394   0.000000
     5  H    3.875995   2.903234   2.289555   4.208302   0.000000
     6  O    2.537506   2.920596   2.262028   1.659920   3.012868
     7  Ca   3.088910   2.342385   3.139790   2.851419   2.364958
     8  O    2.678435   3.009483   4.039275   1.574040   4.367824
                    6          7          8
     6  O    0.000000
     7  Ca   2.393758   0.000000
     8  O    2.502439   2.274132   0.000000
 Stoichiometry    Ca2HO4P
 Framework group  C1[X(Ca2HO4P)]
 Deg. of freedom    18
 Full point group                 C1
 Largest Abelian subgroup         C1      NOp   1
 Largest concise Abelian subgroup C1      NOp   1
                         Standard orientation:                         
 ---------------------------------------------------------------------
 Center     Atomic     Atomic              Coordinates (Angstroms)
 Number     Number      Type              X           Y           Z
 ---------------------------------------------------------------------
    1          8             0       -0.298893   -1.137010    1.078040
    2          8             0       -0.551075    0.327616    1.454960
    3         20             0       -1.924039   -0.045275   -0.273453
    4         15             0        0.925825   -1.313623   -0.259753
    5          1             0       -1.420674    2.160992   -0.621407
    6          8             0        0.057442   -0.371165   -1.314750
    7         20             0        0.784771    1.526567   -0.049965
    8          8             0        2.082360   -0.329753    0.155010
 ---------------------------------------------------------------------
 Rotational constants (GHZ):      1.9169190      1.3928049      1.1120145
 Standard basis: 6-31G(d,p) (6D, 7F)
 There are   130 symmetry adapted basis functions of A   symmetry.
 Integral buffers will be    131072 words long.
 Raffenetti 2 integral format.
 Two-electron integral symmetry is turned on.
   130 basis functions,   323 primitive gaussians,   130 cartesian basis functions
    44 alpha electrons       44 beta electrons
       nuclear repulsion energy       678.4765220263 Hartrees.
 NAtoms=    8 NActive=    8 NUniq=    8 SFac= 7.50D-01 NAtFMM=   80 NAOKFM=F Big=F
 One-electron integrals computed using PRISM.
 NBasis=   130 RedAO= T  NBF=   130
 NBsUse=   130 1.00D-06 NBFU=   130
 Harris functional with IExCor=  402 diagonalized for initial guess.
 ExpMin= 2.60D-02 ExpMax= 3.53D+04 ExpMxC= 5.30D+03 IAcc=3 IRadAn=         5 AccDes= 0.00D+00
 HarFok:  IExCor= 402 AccDes= 0.00D+00 IRadAn=         5 IDoV=1
 ScaDFX=  1.000000  1.000000  1.000000  1.000000
 Initial guess orbital symmetries:
       Occupied  (A) (A) (A) (A) (A) (A) (A) (A) (A) (A) (A) (A)
                 (A) (A) (A) (A) (A) (A) (A) (A) (A) (A) (A) (A)
                 (A) (A) (A) (A) (A) (A) (A) (A) (A) (A) (A) (A)
                 (A) (A) (A) (A) (A) (A) (A) (A)
       Virtual   (A) (A) (A) (A) (A) (A) (A) (A) (A) (A) (A) (A)
                 (A) (A) (A) (A) (A) (A) (A) (A) (A) (A) (A) (A)
                 (A) (A) (A) (A) (A) (A) (A) (A) (A) (A) (A) (A)
                 (A) (A) (A) (A) (A) (A) (A) (A) (A) (A) (A) (A)
                 (A) (A) (A) (A) (A) (A) (A) (A) (A) (A) (A) (A)
                 (A) (A) (A) (A) (A) (A) (A) (A) (A) (A) (A) (A)
                 (A) (A) (A) (A) (A) (A) (A) (A) (A) (A) (A) (A)
                 (A) (A)
 The electronic state of the initial guess is 1-A.
 Requested convergence on RMS density matrix=1.00D-04 within 128 cycles.
 Requested convergence on MAX density matrix=1.00D-02.
 Requested convergence on             energy=1.00D-02.
 No special actions if energy rises.
 Keep R1 integrals in memory in canonical form, NReq=    38353964.
 SCF Done:  E(RB+HF-LYP) =  -1998.05842752     A.U. after    7 cycles
             Convg  =    0.4902D-04             -V/T =  2.0030
             S**2   =   0.0000

 **********************************************************************

            Population analysis using the SCF density.

 **********************************************************************

 Orbital symmetries:
       Occupied  (A) (A) (A) (A) (A) (A) (A) (A) (A) (A) (A) (A)
                 (A) (A) (A) (A) (A) (A) (A) (A) (A) (A) (A) (A)
                 (A) (A) (A) (A) (A) (A) (A) (A) (A) (A) (A) (A)
                 (A) (A) (A) (A) (A) (A) (A) (A)
       Virtual   (A) (A) (A) (A) (A) (A) (A) (A) (A) (A) (A) (A)
                 (A) (A) (A) (A) (A) (A) (A) (A) (A) (A) (A) (A)
                 (A) (A) (A) (A) (A) (A) (A) (A) (A) (A) (A) (A)
                 (A) (A) (A) (A) (A) (A) (A) (A) (A) (A) (A) (A)
                 (A) (A) (A) (A) (A) (A) (A) (A) (A) (A) (A) (A)
                 (A) (A) (A) (A) (A) (A) (A) (A) (A) (A) (A) (A)
                 (A) (A) (A) (A) (A) (A) (A) (A) (A) (A) (A) (A)
                 (A) (A)
 The electronic state is 1-A.
 Alpha  occ. eigenvalues -- -145.37038-145.35546 -77.10461 -19.14121 -19.10744
 Alpha  occ. eigenvalues --  -19.06978 -19.05829 -15.44101 -15.42618 -12.57289
 Alpha  occ. eigenvalues --  -12.57239 -12.57224 -12.55820 -12.55788 -12.55697
 Alpha  occ. eigenvalues --   -6.55845  -4.72276  -4.72114  -4.71631  -1.81579
 Alpha  occ. eigenvalues --   -1.80081  -1.10165  -1.09092  -1.08876  -1.07904
 Alpha  occ. eigenvalues --   -1.07558  -1.07205  -0.97918  -0.91450  -0.86466
 Alpha  occ. eigenvalues --   -0.77464  -0.48903  -0.39429  -0.36856  -0.36139
 Alpha  occ. eigenvalues --   -0.33141  -0.31863  -0.27338  -0.24701  -0.24440
 Alpha  occ. eigenvalues --   -0.23572  -0.22674  -0.20591  -0.18247
 Alpha virt. eigenvalues --   -0.08012  -0.05928  -0.00675   0.00455   0.00834
 Alpha virt. eigenvalues --    0.02467   0.03175   0.04617   0.06505   0.07173
 Alpha virt. eigenvalues --    0.09644   0.11323   0.13038   0.13454   0.14184
 Alpha virt. eigenvalues --    0.15279   0.16378   0.19132   0.20532   0.21257
 Alpha virt. eigenvalues --    0.23476   0.25410   0.26293   0.27702   0.32731
 Alpha virt. eigenvalues --    0.33213   0.35530   0.39136   0.40183   0.42585
 Alpha virt. eigenvalues --    0.43493   0.44707   0.45396   0.48281   0.54250
 Alpha virt. eigenvalues --    0.65307   0.70821   0.77088   0.83629   0.91209
 Alpha virt. eigenvalues --    0.93746   0.98988   1.01113   1.02975   1.06742
 Alpha virt. eigenvalues --    1.11592   1.15591   1.16584   1.17000   1.20591
 Alpha virt. eigenvalues --    1.22871   1.24890   1.27370   1.29136   1.43915
 Alpha virt. eigenvalues --    1.47232   1.58714   1.61907   1.71611   1.78421
 Alpha virt. eigenvalues --    1.82901   1.86207   1.89212   1.91077   1.91614
 Alpha virt. eigenvalues --    1.93935   1.94448   2.00121   2.01083   2.04575
 Alpha virt. eigenvalues --    2.10583   2.14131   2.17628   2.23130   2.29418
 Alpha virt. eigenvalues --    2.31322   2.34107   2.38200   2.62126   2.79078
 Alpha virt. eigenvalues --    3.10932   3.60641   3.73453   3.79751   4.02279
 Alpha virt. eigenvalues --    4.10692
          Condensed to atoms (all electrons):
              1          2          3          4          5          6
     1  O    8.395576   0.004174   0.066964   0.069189   0.000415  -0.036304
     2  O    0.004174   8.349748   0.111087  -0.014461  -0.008523  -0.003147
     3  Ca   0.066964   0.111087  18.548204   0.043828   0.161740   0.138314
     4  P    0.069189  -0.014461   0.043828  13.547986   0.002441   0.153316
     5  H    0.000415  -0.008523   0.161740   0.002441   1.112560  -0.007304
     6  O   -0.036304  -0.003147   0.138314   0.153316  -0.007304   8.513039
     7  Ca  -0.004690   0.121013  -0.119091  -0.027660   0.145562   0.121518
     8  O   -0.021265  -0.001280  -0.003750   0.283135  -0.000142  -0.045770
              7          8
     1  O   -0.004690  -0.021265
     2  O    0.121013  -0.001280
     3  Ca  -0.119091  -0.003750
     4  P   -0.027660   0.283135
     5  H    0.145562  -0.000142
     6  O    0.121518  -0.045770
     7  Ca  18.561893   0.171047
     8  O    0.171047   8.370283
 Mulliken atomic charges:
              1
     1  O   -0.474059
     2  O   -0.558611
     3  Ca   1.052705
     4  P    0.942226
     5  H   -0.406750
     6  O   -0.833662
     7  Ca   1.030408
     8  O   -0.752258
 Sum of Mulliken charges=   0.00000
 Atomic charges with hydrogens summed into heavy atoms:
              1
     1  O   -0.474059
     2  O   -0.558611
     3  Ca   0.645955
     4  P    0.942226
     5  H    0.000000
     6  O   -0.833662
     7  Ca   1.030408
     8  O   -0.752258
 Sum of Mulliken charges=   0.00000
 Electronic spatial extent (au):  <R**2>=  1113.4357
 Charge=     0.0000 electrons
 Dipole moment (field-independent basis, Debye):
    X=    -5.7498    Y=     4.7258    Z=    -2.1189  Tot=     7.7385
 Quadrupole moment (field-independent basis, Debye-Ang):
   XX=   -49.0589   YY=   -62.7884   ZZ=   -76.0962
   XY=    20.6055   XZ=     2.6234   YZ=     3.1125
 Traceless Quadrupole moment (field-independent basis, Debye-Ang):
   XX=    13.5889   YY=    -0.1406   ZZ=   -13.4483
   XY=    20.6055   XZ=     2.6234   YZ=     3.1125
 Octapole moment (field-independent basis, Debye-Ang**2):
  XXX=   -80.5144  YYY=    17.4446  ZZZ=     0.2142  XYY=    33.4112
  XXY=    -4.4473  XXZ=    -8.6392  XZZ=     2.9892  YZZ=     2.7672
  YYZ=     7.5350  XYZ=    -6.2705
 Hexadecapole moment (field-independent basis, Debye-Ang**3):
 XXXX=  -562.1459 YYYY=  -540.0498 ZZZZ=  -312.2961 XXXY=    87.9399
 XXXZ=     8.0391 YYYX=   119.7515 YYYZ=    21.4101 ZZZX=     7.2484
 ZZZY=     3.3058 XXYY=  -199.5486 XXZZ=  -149.1962 YYZZ=  -138.3073
 XXYZ=    11.3446 YYXZ=    -8.5690 ZZXY=    19.2078
 N-N= 6.784765220263D+02 E-N=-6.092970662650D+03  KE= 1.992175948940D+03
 Merz-Kollman atomic radii used.
 Read replacement radii for each type of atom:
 Rad(20) =   1.188000000000D+00
 Atom Element Radius
    1     8    1.40
    2     8    1.40
    3    20    1.19
    4    15    1.80
    5     1    1.20
    6     8    1.40
    7    20    1.19
    8     8    1.40

 **********************************************************************

            Electrostatic Properties Using The SCF Density

 **********************************************************************

       Atomic Center    1 is at  -0.298893 -1.137010  1.078040
       Atomic Center    2 is at  -0.551075  0.327616  1.454960
       Atomic Center    3 is at  -1.924039 -0.045275 -0.273453
       Atomic Center    4 is at   0.925825 -1.313623 -0.259753
       Atomic Center    5 is at  -1.420674  2.160992 -0.621407
       Atomic Center    6 is at   0.057442 -0.371165 -1.314750
       Atomic Center    7 is at   0.784771  1.526567 -0.049965
       Atomic Center    8 is at   2.082360 -0.329753  0.155010
     683 points will be used for fitting atomic charges
 Fitting point charges to eletrostatic potential
 Charges from ESP fit, RMS=   0.00636 RRMS=   0.09542:
 Charge=   0.00000 Dipole=    -6.0255     4.8881    -2.1374 Tot=     8.0479
              1
     1  O   -0.349075
     2  O   -0.707672
     3  Ca   1.531798
     4  P    0.215807
     5  H   -0.771736
     6  O   -0.857337
     7  Ca   1.543015
     8  O   -0.604800
 -----------------------------------------------------------------

              Electrostatic Properties (Atomic Units)

 -----------------------------------------------------------------
    Center     Electric         -------- Electric Field --------
               Potential          X             Y             Z
 -----------------------------------------------------------------
    1 Atom    -22.334923
    2 Atom    -22.364779
    3 Atom    -80.172080
    4 Atom    -54.109425
    5 Atom     -1.203998
    6 Atom    -22.389645
    7 Atom    -80.187367
    8 Atom    -22.408562
 -----------------------------------------------------------------
 1\1\GINC-N034\SP\RB3LYP\6-31G(d,p)\Ca2H1O4P1\TIMN\04-May-2015\0\\# b3l
 yp/6-31G(d,p) pop=(ReadRadii,MK)\\Ca2HPO4_38\\0,1\O,0,-0.298891,-1.137
 01,1.07804\O,0,-0.551077,0.327616,1.45496\Ca,0,-1.92404,-0.045278,-0.2
 73453\P,0,0.925827,-1.31362,-0.259753\H,0,-1.42068,2.16099,-0.621407\O
 ,0,0.057442,-0.371164,-1.31475\Ca,0,0.784766,1.52657,-0.049965\O,0,2.0
 8236,-0.329747,0.15501\\Version=EM64T-G03RevE.01\State=1-A\HF=-1998.05
 84275\RMSD=4.902e-05\Thermal=0.\Dipole=-2.2621658,1.8592714,-0.8336559
 \PG=C01 [X(Ca2H1O4P1)]\\@


 Boundary, n.  In political geography, an imaginary
 line between two nations, separating the imaginary
 rights of one from the imaginary rights of another.
                               -- Ambrose Bierce
 Job cpu time:  0 days  0 hours  0 minutes 18.4 seconds.
 File lengths (MBytes):  RWF=     21 Int=      0 D2E=      0 Chk=     10 Scr=      1
 Normal termination of Gaussian 03 at Mon May  4 20:08:26 2015.
