 Entering Gaussian System, Link 0=/home/timn/tmp/g03.e01/g03
 Input=Ca2HPO4_30.xyz.gjf
 Output=Ca2HPO4_30.xyz.out
 Initial command:
 /home/timn/tmp/g03.e01/l1.exe /home/timn/tmp/g03.e01/Gau-30377.inp -scrdir=/home/timn/tmp/g03.e01/
 Default is to use a total of   2 processors:
                                2 via shared-memory
                                1 via Linda
 Entering Link 1 = /home/timn/tmp/g03.e01/l1.exe PID=     30378.
  
 Copyright (c) 1988,1990,1992,1993,1995,1998,2003,2004,2007, Gaussian, Inc.
                  All Rights Reserved.
  
 This is the Gaussian(R) 03 program.  It is based on the
 the Gaussian(R) 98 system (copyright 1998, Gaussian, Inc.),
 the Gaussian(R) 94 system (copyright 1995, Gaussian, Inc.),
 the Gaussian 92(TM) system (copyright 1992, Gaussian, Inc.),
 the Gaussian 90(TM) system (copyright 1990, Gaussian, Inc.),
 the Gaussian 88(TM) system (copyright 1988, Gaussian, Inc.),
 the Gaussian 86(TM) system (copyright 1986, Carnegie Mellon
 University), and the Gaussian 82(TM) system (copyright 1983,
 Carnegie Mellon University). Gaussian is a federally registered
 trademark of Gaussian, Inc.
  
 This software contains proprietary and confidential information,
 including trade secrets, belonging to Gaussian, Inc.
  
 This software is provided under written license and may be
 used, copied, transmitted, or stored only in accord with that
 written license.
  
 The following legend is applicable only to US Government
 contracts under FAR:
  
                    RESTRICTED RIGHTS LEGEND
  
 Use, reproduction and disclosure by the US Government is
 subject to restrictions as set forth in subparagraphs (a)
 and (c) of the Commercial Computer Software - Restricted
 Rights clause in FAR 52.227-19.
  
 Gaussian, Inc.
 340 Quinnipiac St., Bldg. 40, Wallingford CT 06492
  
  
 ---------------------------------------------------------------
 Warning -- This program may not be used in any manner that
 competes with the business of Gaussian, Inc. or will provide
 assistance to any competitor of Gaussian, Inc.  The licensee
 of this program is prohibited from giving any competitor of
 Gaussian, Inc. access to this program.  By using this program,
 the user acknowledges that Gaussian, Inc. is engaged in the
 business of creating and licensing software in the field of
 computational chemistry and represents and warrants to the
 licensee that it is not a competitor of Gaussian, Inc. and that
 it will not use this program in any manner prohibited above.
 ---------------------------------------------------------------
  

 Cite this work as:
 Gaussian 03, Revision E.01,
 M. J. Frisch, G. W. Trucks, H. B. Schlegel, G. E. Scuseria, 
 M. A. Robb, J. R. Cheeseman, J. A. Montgomery, Jr., T. Vreven, 
 K. N. Kudin, J. C. Burant, J. M. Millam, S. S. Iyengar, J. Tomasi, 
 V. Barone, B. Mennucci, M. Cossi, G. Scalmani, N. Rega, 
 G. A. Petersson, H. Nakatsuji, M. Hada, M. Ehara, K. Toyota, 
 R. Fukuda, J. Hasegawa, M. Ishida, T. Nakajima, Y. Honda, O. Kitao, 
 H. Nakai, M. Klene, X. Li, J. E. Knox, H. P. Hratchian, J. B. Cross, 
 V. Bakken, C. Adamo, J. Jaramillo, R. Gomperts, R. E. Stratmann, 
 O. Yazyev, A. J. Austin, R. Cammi, C. Pomelli, J. W. Ochterski, 
 P. Y. Ayala, K. Morokuma, G. A. Voth, P. Salvador, J. J. Dannenberg, 
 V. G. Zakrzewski, S. Dapprich, A. D. Daniels, M. C. Strain, 
 O. Farkas, D. K. Malick, A. D. Rabuck, K. Raghavachari, 
 J. B. Foresman, J. V. Ortiz, Q. Cui, A. G. Baboul, S. Clifford, 
 J. Cioslowski, B. B. Stefanov, G. Liu, A. Liashenko, P. Piskorz, 
 I. Komaromi, R. L. Martin, D. J. Fox, T. Keith, M. A. Al-Laham, 
 C. Y. Peng, A. Nanayakkara, M. Challacombe, P. M. W. Gill, 
 B. Johnson, W. Chen, M. W. Wong, C. Gonzalez, and J. A. Pople, 
 Gaussian, Inc., Wallingford CT, 2004.
 
 ******************************************
 Gaussian 03:  EM64T-G03RevE.01 11-Sep-2007
                 4-May-2015 
 ******************************************
 %nproc=2
 Will use up to    2 processors via shared memory.
 Default route:  MP2=Direct MaxDisk=2000MB
 -------------------------------------
 # b3lyp/6-31G(d,p) pop=(ReadRadii,MK)
 -------------------------------------
 1/38=1/1;
 2/17=6,18=5,40=1/2;
 3/5=1,6=6,7=101,11=2,16=1,25=1,30=1,74=-5/1,2,3;
 4//1;
 5/5=2,32=1,38=5/2;
 6/7=2,8=2,9=2,10=2,15=8,20=101,28=1/1,2;
 99/5=1,9=1/99;
 ----------
 Ca2HPO4_30
 ----------
 Symbolic Z-matrix:
 Charge =  0 Multiplicity = 1
 O                    -1.77914   1.14252   0.30913 
 O                    -2.59531  -1.11194  -0.79854 
 O                    -0.19736  -0.77726   0.16314 
 P                    -1.77742  -0.42459   0.24658 
 H                    -2.12836  -0.86349   1.54881 
 Ca                    0.3739    1.59045  -0.1168 
 O                     2.3938    0.80064  -0.16261 
 Ca                    1.93679  -1.25042   0.04998 
 
                          Input orientation:                          
 ---------------------------------------------------------------------
 Center     Atomic     Atomic              Coordinates (Angstroms)
 Number     Number      Type              X           Y           Z
 ---------------------------------------------------------------------
    1          8             0       -1.779140    1.142520    0.309126
    2          8             0       -2.595310   -1.111940   -0.798541
    3          8             0       -0.197360   -0.777259    0.163142
    4         15             0       -1.777420   -0.424588    0.246582
    5          1             0       -2.128360   -0.863491    1.548810
    6         20             0        0.373900    1.590450   -0.116800
    7          8             0        2.393800    0.800641   -0.162610
    8         20             0        1.936790   -1.250420    0.049976
 ---------------------------------------------------------------------
                    Distance matrix (angstroms):
                    1          2          3          4          5
     1  O    0.000000
     2  O    2.641145   0.000000
     3  O    2.491765   2.605189   0.000000
     4  P    1.568357   1.494550   1.621089   0.000000
     5  H    2.383873   2.406206   2.378292   1.418306   0.000000
     6  Ca   2.240008   4.072332   2.451683   2.969950   3.880385
     7  O    4.213412   5.380854   3.051228   4.366658   5.113533
     8  Ca   4.427353   4.612926   2.188900   3.809988   4.349904
                    6          7          8
     6  Ca   0.000000
     7  O    2.169307   0.000000
     8  Ca   3.246688   2.112085   0.000000
 Stoichiometry    Ca2HO4P
 Framework group  C1[X(Ca2HO4P)]
 Deg. of freedom    18
 Full point group                 C1
 Largest Abelian subgroup         C1      NOp   1
 Largest concise Abelian subgroup C1      NOp   1
                         Standard orientation:                         
 ---------------------------------------------------------------------
 Center     Atomic     Atomic              Coordinates (Angstroms)
 Number     Number      Type              X           Y           Z
 ---------------------------------------------------------------------
    1          8             0       -1.779140    1.142521    0.309126
    2          8             0       -2.595311   -1.111939   -0.798541
    3          8             0       -0.197361   -0.777259    0.163142
    4         15             0       -1.777421   -0.424587    0.246582
    5          1             0       -2.128361   -0.863490    1.548810
    6         20             0        0.373900    1.590450   -0.116800
    7          8             0        2.393800    0.800640   -0.162610
    8         20             0        1.936789   -1.250421    0.049976
 ---------------------------------------------------------------------
 Rotational constants (GHZ):      2.0380774      0.9606804      0.6838193
 Standard basis: 6-31G(d,p) (6D, 7F)
 There are   130 symmetry adapted basis functions of A   symmetry.
 Integral buffers will be    131072 words long.
 Raffenetti 2 integral format.
 Two-electron integral symmetry is turned on.
   130 basis functions,   323 primitive gaussians,   130 cartesian basis functions
    44 alpha electrons       44 beta electrons
       nuclear repulsion energy       627.1562159774 Hartrees.
 NAtoms=    8 NActive=    8 NUniq=    8 SFac= 7.50D-01 NAtFMM=   80 NAOKFM=F Big=F
 One-electron integrals computed using PRISM.
 NBasis=   130 RedAO= T  NBF=   130
 NBsUse=   130 1.00D-06 NBFU=   130
 Harris functional with IExCor=  402 diagonalized for initial guess.
 ExpMin= 2.60D-02 ExpMax= 3.53D+04 ExpMxC= 5.30D+03 IAcc=3 IRadAn=         5 AccDes= 0.00D+00
 HarFok:  IExCor= 402 AccDes= 0.00D+00 IRadAn=         5 IDoV=1
 ScaDFX=  1.000000  1.000000  1.000000  1.000000
 Initial guess orbital symmetries:
       Occupied  (A) (A) (A) (A) (A) (A) (A) (A) (A) (A) (A) (A)
                 (A) (A) (A) (A) (A) (A) (A) (A) (A) (A) (A) (A)
                 (A) (A) (A) (A) (A) (A) (A) (A) (A) (A) (A) (A)
                 (A) (A) (A) (A) (A) (A) (A) (A)
       Virtual   (A) (A) (A) (A) (A) (A) (A) (A) (A) (A) (A) (A)
                 (A) (A) (A) (A) (A) (A) (A) (A) (A) (A) (A) (A)
                 (A) (A) (A) (A) (A) (A) (A) (A) (A) (A) (A) (A)
                 (A) (A) (A) (A) (A) (A) (A) (A) (A) (A) (A) (A)
                 (A) (A) (A) (A) (A) (A) (A) (A) (A) (A) (A) (A)
                 (A) (A) (A) (A) (A) (A) (A) (A) (A) (A) (A) (A)
                 (A) (A) (A) (A) (A) (A) (A) (A) (A) (A) (A) (A)
                 (A) (A)
 The electronic state of the initial guess is 1-A.
 Requested convergence on RMS density matrix=1.00D-04 within 128 cycles.
 Requested convergence on MAX density matrix=1.00D-02.
 Requested convergence on             energy=1.00D-02.
 No special actions if energy rises.
 Keep R1 integrals in memory in canonical form, NReq=    38353971.
 EnCoef did     4 forward-backward iterations
 SCF Done:  E(RB+HF-LYP) =  -1998.14514999     A.U. after   10 cycles
             Convg  =    0.3285D-04             -V/T =  2.0030
             S**2   =   0.0000

 **********************************************************************

            Population analysis using the SCF density.

 **********************************************************************

 Orbital symmetries:
       Occupied  (A) (A) (A) (A) (A) (A) (A) (A) (A) (A) (A) (A)
                 (A) (A) (A) (A) (A) (A) (A) (A) (A) (A) (A) (A)
                 (A) (A) (A) (A) (A) (A) (A) (A) (A) (A) (A) (A)
                 (A) (A) (A) (A) (A) (A) (A) (A)
       Virtual   (A) (A) (A) (A) (A) (A) (A) (A) (A) (A) (A) (A)
                 (A) (A) (A) (A) (A) (A) (A) (A) (A) (A) (A) (A)
                 (A) (A) (A) (A) (A) (A) (A) (A) (A) (A) (A) (A)
                 (A) (A) (A) (A) (A) (A) (A) (A) (A) (A) (A) (A)
                 (A) (A) (A) (A) (A) (A) (A) (A) (A) (A) (A) (A)
                 (A) (A) (A) (A) (A) (A) (A) (A) (A) (A) (A) (A)
                 (A) (A) (A) (A) (A) (A) (A) (A) (A) (A) (A) (A)
                 (A) (A)
 The electronic state is 1-A.
 Alpha  occ. eigenvalues -- -145.37723-145.33660 -77.13154 -19.08589 -19.06033
 Alpha  occ. eigenvalues --  -19.03077 -19.01219 -15.44795 -15.40877 -12.58017
 Alpha  occ. eigenvalues --  -12.57941 -12.57858 -12.54122 -12.54071 -12.53846
 Alpha  occ. eigenvalues --   -6.58027  -4.74464  -4.74313  -4.74197  -1.82265
 Alpha  occ. eigenvalues --   -1.78603  -1.10132  -1.09996  -1.09248  -1.06713
 Alpha  occ. eigenvalues --   -1.06585  -1.05558  -0.94763  -0.87777  -0.86482
 Alpha  occ. eigenvalues --   -0.75176  -0.50315  -0.40142  -0.37163  -0.34062
 Alpha  occ. eigenvalues --   -0.29374  -0.27158  -0.25181  -0.24489  -0.21525
 Alpha  occ. eigenvalues --   -0.21048  -0.20490  -0.19221  -0.19015
 Alpha virt. eigenvalues --   -0.09964  -0.05384  -0.02273  -0.00062   0.00346
 Alpha virt. eigenvalues --    0.00586   0.03556   0.04332   0.06148   0.09433
 Alpha virt. eigenvalues --    0.11571   0.13409   0.14480   0.15651   0.17059
 Alpha virt. eigenvalues --    0.17220   0.18833   0.19046   0.20442   0.20527
 Alpha virt. eigenvalues --    0.21005   0.23398   0.25906   0.27249   0.29596
 Alpha virt. eigenvalues --    0.31852   0.35828   0.38777   0.40066   0.42494
 Alpha virt. eigenvalues --    0.44403   0.46061   0.48051   0.48937   0.52154
 Alpha virt. eigenvalues --    0.61883   0.71631   0.76357   0.79098   0.91923
 Alpha virt. eigenvalues --    0.97532   1.03995   1.07102   1.08908   1.11979
 Alpha virt. eigenvalues --    1.13805   1.15801   1.19512   1.20728   1.24505
 Alpha virt. eigenvalues --    1.25801   1.26753   1.28688   1.33511   1.39053
 Alpha virt. eigenvalues --    1.42786   1.49096   1.60265   1.83506   1.83921
 Alpha virt. eigenvalues --    1.87526   1.88758   1.89984   1.90810   1.91749
 Alpha virt. eigenvalues --    1.92371   1.93051   1.95782   1.96521   1.99411
 Alpha virt. eigenvalues --    2.02669   2.12247   2.16522   2.24889   2.25586
 Alpha virt. eigenvalues --    2.31365   2.38508   2.59687   2.78281   2.84947
 Alpha virt. eigenvalues --    2.91932   3.58640   3.75057   3.81726   3.83937
 Alpha virt. eigenvalues --    3.97695
          Condensed to atoms (all electrons):
              1          2          3          4          5          6
     1  O    8.385763  -0.029489  -0.045904   0.319008  -0.050489   0.164449
     2  O   -0.029489   8.119249  -0.032578   0.553846  -0.046416   0.015453
     3  O   -0.045904  -0.032578   8.497613   0.235708  -0.048882   0.086019
     4  P    0.319008   0.553846   0.235708  12.653251   0.223438  -0.035095
     5  H   -0.050489  -0.046416  -0.048882   0.223438   1.038045   0.025232
     6  Ca   0.164449   0.015453   0.086019  -0.035095   0.025232  18.634525
     7  O   -0.000092   0.000000  -0.006508  -0.001772  -0.000004   0.216857
     8  Ca   0.003030   0.001832   0.142125  -0.001680   0.002759  -0.164740
              7          8
     1  O   -0.000092   0.003030
     2  O    0.000000   0.001832
     3  O   -0.006508   0.142125
     4  P   -0.001772  -0.001680
     5  H   -0.000004   0.002759
     6  Ca   0.216857  -0.164740
     7  O    8.432594   0.254509
     8  Ca   0.254509  18.677728
 Mulliken atomic charges:
              1
     1  O   -0.746276
     2  O   -0.581897
     3  O   -0.827594
     4  P    1.053295
     5  H   -0.143682
     6  Ca   1.057301
     7  O   -0.895584
     8  Ca   1.084437
 Sum of Mulliken charges=   0.00000
 Atomic charges with hydrogens summed into heavy atoms:
              1
     1  O   -0.746276
     2  O   -0.581897
     3  O   -0.827594
     4  P    0.909613
     5  H    0.000000
     6  Ca   1.057301
     7  O   -0.895584
     8  Ca   1.084437
 Sum of Mulliken charges=   0.00000
 Electronic spatial extent (au):  <R**2>=  1503.8562
 Charge=     0.0000 electrons
 Dipole moment (field-independent basis, Debye):
    X=     9.2280    Y=    -1.0782    Z=     1.4117  Tot=     9.3974
 Quadrupole moment (field-independent basis, Debye-Ang):
   XX=   -87.8793   YY=   -44.1059   ZZ=   -62.5109
   XY=   -22.5176   XZ=    -2.2695   YZ=    -4.6144
 Traceless Quadrupole moment (field-independent basis, Debye-Ang):
   XX=   -23.0473   YY=    20.7261   ZZ=     2.3212
   XY=   -22.5176   XZ=    -2.2695   YZ=    -4.6144
 Octapole moment (field-independent basis, Debye-Ang**2):
  XXX=    34.4675  YYY=    18.8409  ZZZ=    -1.5475  XYY=    44.0277
  XXY=   -52.0302  XXZ=    19.7503  XZZ=    11.3455  YZZ=     2.7896
  YYZ=    -1.3601  XYZ=     9.3478
 Hexadecapole moment (field-independent basis, Debye-Ang**3):
 XXXX= -1416.2070 YYYY=  -429.7891 ZZZZ=  -133.5393 XXXY=  -183.4018
 XXXZ=   -17.4749 YYYX=   -55.5730 YYYZ=   -10.4246 ZZZX=     4.5227
 ZZZY=    -3.3016 XXYY=  -293.5104 XXZZ=  -237.2365 YYZZ=  -104.3938
 XXYZ=   -19.0842 YYXZ=    -0.9133 ZZXY=   -16.7749
 N-N= 6.271562159774D+02 E-N=-5.991364413163D+03  KE= 1.992263187298D+03
 Merz-Kollman atomic radii used.
 Read replacement radii for each type of atom:
 Rad(20) =   1.188000000000D+00
 Atom Element Radius
    1     8    1.40
    2     8    1.40
    3     8    1.40
    4    15    1.80
    5     1    1.20
    6    20    1.19
    7     8    1.40
    8    20    1.19

 **********************************************************************

            Electrostatic Properties Using The SCF Density

 **********************************************************************

       Atomic Center    1 is at  -1.779140  1.142521  0.309126
       Atomic Center    2 is at  -2.595311 -1.111939 -0.798541
       Atomic Center    3 is at  -0.197361 -0.777259  0.163142
       Atomic Center    4 is at  -1.777421 -0.424587  0.246582
       Atomic Center    5 is at  -2.128361 -0.863490  1.548810
       Atomic Center    6 is at   0.373900  1.590450 -0.116800
       Atomic Center    7 is at   2.393800  0.800640 -0.162610
       Atomic Center    8 is at   1.936789 -1.250421  0.049976
     700 points will be used for fitting atomic charges
 Fitting point charges to eletrostatic potential
 Charges from ESP fit, RMS=   0.00536 RRMS=   0.07326:
 Charge=   0.00000 Dipole=     9.8113    -1.2465     1.4388 Tot=     9.9942
              1
     1  O   -0.936346
     2  O   -0.704216
     3  O   -1.144148
     4  P    1.199728
     5  H   -0.127899
     6  Ca   1.597554
     7  O   -1.394269
     8  Ca   1.509596
 -----------------------------------------------------------------

              Electrostatic Properties (Atomic Units)

 -----------------------------------------------------------------
    Center     Electric         -------- Electric Field --------
               Potential          X             Y             Z
 -----------------------------------------------------------------
    1 Atom    -22.403768
    2 Atom    -22.435206
    3 Atom    -22.374419
    4 Atom    -54.075814
    5 Atom     -1.162031
    6 Atom    -80.205983
    7 Atom    -22.450922
    8 Atom    -80.165925
 -----------------------------------------------------------------
 1\1\GINC-N028\SP\RB3LYP\6-31G(d,p)\Ca2H1O4P1\TIMN\04-May-2015\0\\# b3l
 yp/6-31G(d,p) pop=(ReadRadii,MK)\\Ca2HPO4_30\\0,1\O,0,-1.77914,1.14252
 ,0.309126\O,0,-2.59531,-1.11194,-0.798541\O,0,-0.19736,-0.777259,0.163
 142\P,0,-1.77742,-0.424588,0.246582\H,0,-2.12836,-0.863491,1.54881\Ca,
 0,0.3739,1.59045,-0.1168\O,0,2.3938,0.800641,-0.16261\Ca,0,1.93679,-1.
 25042,0.049976\\Version=EM64T-G03RevE.01\State=1-A\HF=-1998.14515\RMSD
 =3.285e-05\Thermal=0.\Dipole=3.6305612,-0.4242052,0.5554232\PG=C01 [X(
 Ca2H1O4P1)]\\@


 Boundary, n.  In political geography, an imaginary
 line between two nations, separating the imaginary
 rights of one from the imaginary rights of another.
                               -- Ambrose Bierce
 Job cpu time:  0 days  0 hours  0 minutes 21.9 seconds.
 File lengths (MBytes):  RWF=     21 Int=      0 D2E=      0 Chk=     10 Scr=      1
 Normal termination of Gaussian 03 at Mon May  4 20:08:26 2015.
