 Entering Gaussian System, Link 0=/home/timn/tmp/g03.e01/g03
 Input=Ca2HPO4_15.xyz.gjf
 Output=Ca2HPO4_15.xyz.out
 Initial command:
 /home/timn/tmp/g03.e01/l1.exe /home/timn/tmp/g03.e01/Gau-15857.inp -scrdir=/home/timn/tmp/g03.e01/
 Default is to use a total of   2 processors:
                                2 via shared-memory
                                1 via Linda
 Entering Link 1 = /home/timn/tmp/g03.e01/l1.exe PID=     15858.
  
 Copyright (c) 1988,1990,1992,1993,1995,1998,2003,2004,2007, Gaussian, Inc.
                  All Rights Reserved.
  
 This is the Gaussian(R) 03 program.  It is based on the
 the Gaussian(R) 98 system (copyright 1998, Gaussian, Inc.),
 the Gaussian(R) 94 system (copyright 1995, Gaussian, Inc.),
 the Gaussian 92(TM) system (copyright 1992, Gaussian, Inc.),
 the Gaussian 90(TM) system (copyright 1990, Gaussian, Inc.),
 the Gaussian 88(TM) system (copyright 1988, Gaussian, Inc.),
 the Gaussian 86(TM) system (copyright 1986, Carnegie Mellon
 University), and the Gaussian 82(TM) system (copyright 1983,
 Carnegie Mellon University). Gaussian is a federally registered
 trademark of Gaussian, Inc.
  
 This software contains proprietary and confidential information,
 including trade secrets, belonging to Gaussian, Inc.
  
 This software is provided under written license and may be
 used, copied, transmitted, or stored only in accord with that
 written license.
  
 The following legend is applicable only to US Government
 contracts under FAR:
  
                    RESTRICTED RIGHTS LEGEND
  
 Use, reproduction and disclosure by the US Government is
 subject to restrictions as set forth in subparagraphs (a)
 and (c) of the Commercial Computer Software - Restricted
 Rights clause in FAR 52.227-19.
  
 Gaussian, Inc.
 340 Quinnipiac St., Bldg. 40, Wallingford CT 06492
  
  
 ---------------------------------------------------------------
 Warning -- This program may not be used in any manner that
 competes with the business of Gaussian, Inc. or will provide
 assistance to any competitor of Gaussian, Inc.  The licensee
 of this program is prohibited from giving any competitor of
 Gaussian, Inc. access to this program.  By using this program,
 the user acknowledges that Gaussian, Inc. is engaged in the
 business of creating and licensing software in the field of
 computational chemistry and represents and warrants to the
 licensee that it is not a competitor of Gaussian, Inc. and that
 it will not use this program in any manner prohibited above.
 ---------------------------------------------------------------
  

 Cite this work as:
 Gaussian 03, Revision E.01,
 M. J. Frisch, G. W. Trucks, H. B. Schlegel, G. E. Scuseria, 
 M. A. Robb, J. R. Cheeseman, J. A. Montgomery, Jr., T. Vreven, 
 K. N. Kudin, J. C. Burant, J. M. Millam, S. S. Iyengar, J. Tomasi, 
 V. Barone, B. Mennucci, M. Cossi, G. Scalmani, N. Rega, 
 G. A. Petersson, H. Nakatsuji, M. Hada, M. Ehara, K. Toyota, 
 R. Fukuda, J. Hasegawa, M. Ishida, T. Nakajima, Y. Honda, O. Kitao, 
 H. Nakai, M. Klene, X. Li, J. E. Knox, H. P. Hratchian, J. B. Cross, 
 V. Bakken, C. Adamo, J. Jaramillo, R. Gomperts, R. E. Stratmann, 
 O. Yazyev, A. J. Austin, R. Cammi, C. Pomelli, J. W. Ochterski, 
 P. Y. Ayala, K. Morokuma, G. A. Voth, P. Salvador, J. J. Dannenberg, 
 V. G. Zakrzewski, S. Dapprich, A. D. Daniels, M. C. Strain, 
 O. Farkas, D. K. Malick, A. D. Rabuck, K. Raghavachari, 
 J. B. Foresman, J. V. Ortiz, Q. Cui, A. G. Baboul, S. Clifford, 
 J. Cioslowski, B. B. Stefanov, G. Liu, A. Liashenko, P. Piskorz, 
 I. Komaromi, R. L. Martin, D. J. Fox, T. Keith, M. A. Al-Laham, 
 C. Y. Peng, A. Nanayakkara, M. Challacombe, P. M. W. Gill, 
 B. Johnson, W. Chen, M. W. Wong, C. Gonzalez, and J. A. Pople, 
 Gaussian, Inc., Wallingford CT, 2004.
 
 ******************************************
 Gaussian 03:  EM64T-G03RevE.01 11-Sep-2007
                 4-May-2015 
 ******************************************
 %nproc=2
 Will use up to    2 processors via shared memory.
 Default route:  MP2=Direct MaxDisk=2000MB
 -------------------------------------
 # b3lyp/6-31G(d,p) pop=(ReadRadii,MK)
 -------------------------------------
 1/38=1/1;
 2/17=6,18=5,40=1/2;
 3/5=1,6=6,7=101,11=2,16=1,25=1,30=1,74=-5/1,2,3;
 4//1;
 5/5=2,32=1,38=5/2;
 6/7=2,8=2,9=2,10=2,15=8,20=101,28=1/1,2;
 99/5=1,9=1/99;
 ----------
 Ca2HPO4_15
 ----------
 Symbolic Z-matrix:
 Charge =  0 Multiplicity = 1
 O                    -1.44519  -1.29405  -0.0571 
 P                    -2.27832  -0.00092  -0.06749 
 O                     1.10168   0.00007   1.62578 
 H                     0.64917   0.00004   2.47598 
 O                    -1.44666   1.29318  -0.05784 
 O                     1.57949   0.0009   -1.36652 
 Ca                    0.87947   1.54959  -0.0652 
 Ca                    0.88108  -1.54894  -0.06571 
 
                          Input orientation:                          
 ---------------------------------------------------------------------
 Center     Atomic     Atomic              Coordinates (Angstroms)
 Number     Number      Type              X           Y           Z
 ---------------------------------------------------------------------
    1          8             0       -1.445190   -1.294050   -0.057099
    2         15             0       -2.278320   -0.000922   -0.067491
    3          8             0        1.101680    0.000071    1.625780
    4          1             0        0.649166    0.000040    2.475980
    5          8             0       -1.446660    1.293180   -0.057835
    6          8             0        1.579490    0.000897   -1.366520
    7         20             0        0.879472    1.549590   -0.065199
    8         20             0        0.881076   -1.548940   -0.065713
 ---------------------------------------------------------------------
                    Distance matrix (angstroms):
                    1          2          3          4          5
     1  O    0.000000
     2  P    1.538309   0.000000
     3  O    3.315626   3.780419   0.000000
     4  H    3.532348   3.878069   0.963125   0.000000
     5  O    2.587231   1.538328   3.316734   3.533400   0.000000
     6  O    3.541209   4.070648   3.030208   3.953519   3.541220
     7  Ca   3.672929   3.517917   2.304299   2.985253   2.340233
     8  Ca   2.340204   3.518259   2.304181   2.985519   3.673699
                    6          7          8
     6  O    0.000000
     7  Ca   2.140540   0.000000
     8  Ca   2.140532   3.098530   0.000000
 Stoichiometry    Ca2HO4P
 Framework group  C1[X(Ca2HO4P)]
 Deg. of freedom    18
 Full point group                 C1
 Largest Abelian subgroup         C1      NOp   1
 Largest concise Abelian subgroup C1      NOp   1
                         Standard orientation:                         
 ---------------------------------------------------------------------
 Center     Atomic     Atomic              Coordinates (Angstroms)
 Number     Number      Type              X           Y           Z
 ---------------------------------------------------------------------
    1          8             0       -1.445191   -1.294047   -0.057099
    2         15             0       -2.278319   -0.000918   -0.067491
    3          8             0        1.101681    0.000069    1.625780
    4          1             0        0.649167    0.000039    2.475980
    5          8             0       -1.446656    1.293183   -0.057835
    6          8             0        1.579491    0.000894   -1.366520
    7         20             0        0.879476    1.549588   -0.065199
    8         20             0        0.881075   -1.548942   -0.065713
 ---------------------------------------------------------------------
 Rotational constants (GHZ):      1.5586552      1.1803487      0.8498579
 Standard basis: 6-31G(d,p) (6D, 7F)
 There are   130 symmetry adapted basis functions of A   symmetry.
 Integral buffers will be    131072 words long.
 Raffenetti 2 integral format.
 Two-electron integral symmetry is turned on.
   130 basis functions,   323 primitive gaussians,   130 cartesian basis functions
    44 alpha electrons       44 beta electrons
       nuclear repulsion energy       625.3964607366 Hartrees.
 NAtoms=    8 NActive=    8 NUniq=    8 SFac= 7.50D-01 NAtFMM=   80 NAOKFM=F Big=F
 One-electron integrals computed using PRISM.
 NBasis=   130 RedAO= T  NBF=   130
 NBsUse=   130 1.00D-06 NBFU=   130
 Harris functional with IExCor=  402 diagonalized for initial guess.
 ExpMin= 2.60D-02 ExpMax= 3.53D+04 ExpMxC= 5.30D+03 IAcc=3 IRadAn=         5 AccDes= 0.00D+00
 HarFok:  IExCor= 402 AccDes= 0.00D+00 IRadAn=         5 IDoV=1
 ScaDFX=  1.000000  1.000000  1.000000  1.000000
 Initial guess orbital symmetries:
       Occupied  (A) (A) (A) (A) (A) (A) (A) (A) (A) (A) (A) (A)
                 (A) (A) (A) (A) (A) (A) (A) (A) (A) (A) (A) (A)
                 (A) (A) (A) (A) (A) (A) (A) (A) (A) (A) (A) (A)
                 (A) (A) (A) (A) (A) (A) (A) (A)
       Virtual   (A) (A) (A) (A) (A) (A) (A) (A) (A) (A) (A) (A)
                 (A) (A) (A) (A) (A) (A) (A) (A) (A) (A) (A) (A)
                 (A) (A) (A) (A) (A) (A) (A) (A) (A) (A) (A) (A)
                 (A) (A) (A) (A) (A) (A) (A) (A) (A) (A) (A) (A)
                 (A) (A) (A) (A) (A) (A) (A) (A) (A) (A) (A) (A)
                 (A) (A) (A) (A) (A) (A) (A) (A) (A) (A) (A) (A)
                 (A) (A) (A) (A) (A) (A) (A) (A) (A) (A) (A) (A)
                 (A) (A)
 The electronic state of the initial guess is 1-A.
 Requested convergence on RMS density matrix=1.00D-04 within 128 cycles.
 Requested convergence on MAX density matrix=1.00D-02.
 Requested convergence on             energy=1.00D-02.
 No special actions if energy rises.
 Keep R1 integrals in memory in canonical form, NReq=    38353964.
 EnCoef did     1 forward-backward iterations
 SCF Done:  E(RB+HF-LYP) =  -1998.16533115     A.U. after    8 cycles
             Convg  =    0.2526D-04             -V/T =  2.0029
             S**2   =   0.0000

 **********************************************************************

            Population analysis using the SCF density.

 **********************************************************************

 Orbital symmetries:
       Occupied  (A) (A) (A) (A) (A) (A) (A) (A) (A) (A) (A) (A)
                 (A) (A) (A) (A) (A) (A) (A) (A) (A) (A) (A) (A)
                 (A) (A) (A) (A) (A) (A) (A) (A) (A) (A) (A) (A)
                 (A) (A) (A) (A) (A) (A) (A) (A)
       Virtual   (A) (A) (A) (A) (A) (A) (A) (A) (A) (A) (A) (A)
                 (A) (A) (A) (A) (A) (A) (A) (A) (A) (A) (A) (A)
                 (A) (A) (A) (A) (A) (A) (A) (A) (A) (A) (A) (A)
                 (A) (A) (A) (A) (A) (A) (A) (A) (A) (A) (A) (A)
                 (A) (A) (A) (A) (A) (A) (A) (A) (A) (A) (A) (A)
                 (A) (A) (A) (A) (A) (A) (A) (A) (A) (A) (A) (A)
                 (A) (A) (A) (A) (A) (A) (A) (A) (A) (A) (A) (A)
                 (A) (A)
 The electronic state is 1-A.
 Alpha  occ. eigenvalues -- -145.31816-145.31815 -77.14014 -19.12092 -19.12089
 Alpha  occ. eigenvalues --  -19.07000 -18.97049 -15.38951 -15.38949 -12.52151
 Alpha  occ. eigenvalues --  -12.52151 -12.52090 -12.52089 -12.52030 -12.52029
 Alpha  occ. eigenvalues --   -6.59725  -4.76160  -4.75926  -4.75521  -1.76660
 Alpha  occ. eigenvalues --   -1.76527  -1.05276  -1.04522  -1.04350  -1.04112
 Alpha  occ. eigenvalues --   -1.03837  -1.03324  -0.97919  -0.92829  -0.88406
 Alpha  occ. eigenvalues --   -0.71065  -0.51475  -0.40900  -0.39814  -0.37214
 Alpha  occ. eigenvalues --   -0.36901  -0.29675  -0.28459  -0.26363  -0.25480
 Alpha  occ. eigenvalues --   -0.24061  -0.16783  -0.15345  -0.14884
 Alpha virt. eigenvalues --   -0.06126  -0.04852  -0.03991   0.00998   0.01765
 Alpha virt. eigenvalues --    0.02287   0.02342   0.04800   0.06036   0.07614
 Alpha virt. eigenvalues --    0.09556   0.13192   0.13329   0.14995   0.16729
 Alpha virt. eigenvalues --    0.17447   0.17950   0.18577   0.22369   0.24591
 Alpha virt. eigenvalues --    0.25327   0.26384   0.29294   0.29683   0.30908
 Alpha virt. eigenvalues --    0.33343   0.34744   0.39258   0.41835   0.44074
 Alpha virt. eigenvalues --    0.44826   0.46295   0.47536   0.48785   0.51344
 Alpha virt. eigenvalues --    0.68728   0.69329   0.69761   0.73890   0.89050
 Alpha virt. eigenvalues --    0.91699   1.00399   1.00779   1.02818   1.05570
 Alpha virt. eigenvalues --    1.06872   1.10126   1.15261   1.15333   1.17334
 Alpha virt. eigenvalues --    1.20722   1.22831   1.29194   1.30585   1.36985
 Alpha virt. eigenvalues --    1.40338   1.49111   1.58066   1.72316   1.74261
 Alpha virt. eigenvalues --    1.80931   1.83602   1.83924   1.86572   1.91082
 Alpha virt. eigenvalues --    1.92878   1.97288   2.00313   2.00457   2.02133
 Alpha virt. eigenvalues --    2.03072   2.03768   2.04789   2.11028   2.22940
 Alpha virt. eigenvalues --    2.42129   2.68328   2.70368   2.70628   2.80695
 Alpha virt. eigenvalues --    3.46109   3.49930   3.71542   3.79741   3.85903
 Alpha virt. eigenvalues --    4.04063
          Condensed to atoms (all electrons):
              1          2          3          4          5          6
     1  O    8.318759   0.264898  -0.001849  -0.000052  -0.027787  -0.000869
     2  P    0.264898  13.742485   0.004407   0.000939   0.264893  -0.000430
     3  O   -0.001849   0.004407   8.339352   0.259927  -0.001844  -0.005488
     4  H   -0.000052   0.000939   0.259927   0.479710  -0.000053   0.000226
     5  O   -0.027787   0.264893  -0.001844  -0.000053   8.318697  -0.000869
     6  O   -0.000869  -0.000430  -0.005488   0.000226  -0.000869   8.418571
     7  Ca  -0.001793   0.006408   0.123441  -0.009105   0.109071   0.239587
     8  Ca   0.109051   0.006371   0.123440  -0.009118  -0.001797   0.239602
              7          8
     1  O   -0.001793   0.109051
     2  P    0.006408   0.006371
     3  O    0.123441   0.123440
     4  H   -0.009105  -0.009118
     5  O    0.109071  -0.001797
     6  O    0.239587   0.239602
     7  Ca  18.919310  -0.419285
     8  Ca  -0.419285  18.919278
 Mulliken atomic charges:
              1
     1  O   -0.660357
     2  P    0.710030
     3  O   -0.841386
     4  H    0.277527
     5  O   -0.660311
     6  O   -0.890329
     7  Ca   1.032367
     8  Ca   1.032459
 Sum of Mulliken charges=   0.00000
 Atomic charges with hydrogens summed into heavy atoms:
              1
     1  O   -0.660357
     2  P    0.710030
     3  O   -0.563858
     4  H    0.000000
     5  O   -0.660311
     6  O   -0.890329
     7  Ca   1.032367
     8  Ca   1.032459
 Sum of Mulliken charges=   0.00000
 Electronic spatial extent (au):  <R**2>=  1345.3194
 Charge=     0.0000 electrons
 Dipole moment (field-independent basis, Debye):
    X=     1.4403    Y=    -0.0003    Z=     3.4765  Tot=     3.7631
 Quadrupole moment (field-independent basis, Debye-Ang):
   XX=   -76.6174   YY=   -37.9377   ZZ=   -72.9598
   XY=    -0.0182   XZ=     5.3596   YZ=     0.0145
 Traceless Quadrupole moment (field-independent basis, Debye-Ang):
   XX=   -14.1125   YY=    24.5673   ZZ=   -10.4548
   XY=    -0.0182   XZ=     5.3596   YZ=     0.0145
 Octapole moment (field-independent basis, Debye-Ang**2):
  XXX=    -0.5517  YYY=     0.0525  ZZZ=    25.5967  XYY=    49.0779
  XXY=    -0.0529  XXZ=    11.8427  XZZ=   -22.1774  YZZ=    -0.0105
  YYZ=    -1.4677  XYZ=     0.0116
 Hexadecapole moment (field-independent basis, Debye-Ang**3):
 XXXX=  -971.1435 YYYY=  -434.8407 ZZZZ=  -287.2474 XXXY=    -0.0860
 XXXZ=    26.5756 YYYX=    -0.0673 YYYZ=     0.0343 ZZZX=    23.1586
 ZZZY=     0.0263 XXYY=  -228.3210 XXZZ=  -232.3194 YYZZ=  -138.7062
 XXYZ=     0.0331 YYXZ=    -0.5092 ZZXY=    -0.0253
 N-N= 6.253964607366D+02 E-N=-5.988480504698D+03  KE= 1.992302332283D+03
 Merz-Kollman atomic radii used.
 Read replacement radii for each type of atom:
 Rad(20) =   1.188000000000D+00
 Atom Element Radius
    1     8    1.40
    2    15    1.80
    3     8    1.40
    4     1    1.20
    5     8    1.40
    6     8    1.40
    7    20    1.19
    8    20    1.19

 **********************************************************************

            Electrostatic Properties Using The SCF Density

 **********************************************************************

       Atomic Center    1 is at  -1.445191 -1.294047 -0.057099
       Atomic Center    2 is at  -2.278319 -0.000918 -0.067491
       Atomic Center    3 is at   1.101681  0.000069  1.625780
       Atomic Center    4 is at   0.649167  0.000039  2.475980
       Atomic Center    5 is at  -1.446656  1.293183 -0.057835
       Atomic Center    6 is at   1.579491  0.000894 -1.366520
       Atomic Center    7 is at   0.879476  1.549588 -0.065199
       Atomic Center    8 is at   0.881075 -1.548942 -0.065713
     748 points will be used for fitting atomic charges
 Fitting point charges to eletrostatic potential
 Charges from ESP fit, RMS=   0.00623 RRMS=   0.11779:
 Charge=   0.00000 Dipole=     1.9145    -0.0002     3.5131 Tot=     4.0009
              1
     1  O   -0.588282
     2  P    0.322391
     3  O   -1.283859
     4  H    0.466819
     5  O   -0.588241
     6  O   -1.326898
     7  Ca   1.499027
     8  Ca   1.499042
 -----------------------------------------------------------------

              Electrostatic Properties (Atomic Units)

 -----------------------------------------------------------------
    Center     Electric         -------- Electric Field --------
               Potential          X             Y             Z
 -----------------------------------------------------------------
    1 Atom    -22.343852
    2 Atom    -54.076677
    3 Atom    -22.388010
    4 Atom     -1.065822
    5 Atom    -22.343784
    6 Atom    -22.486922
    7 Atom    -80.224273
    8 Atom    -80.224278
 -----------------------------------------------------------------
 1\1\GINC-N023\SP\RB3LYP\6-31G(d,p)\Ca2H1O4P1\TIMN\04-May-2015\0\\# b3l
 yp/6-31G(d,p) pop=(ReadRadii,MK)\\Ca2HPO4_15\\0,1\O,0,-1.44519,-1.2940
 5,-0.057099\P,0,-2.27832,-0.000922,-0.067491\O,0,1.10168,0.000071,1.62
 578\H,0,0.649166,0.00004,2.47598\O,0,-1.44666,1.29318,-0.057835\O,0,1.
 57949,0.000897,-1.36652\Ca,0,0.879472,1.54959,-0.065199\Ca,0,0.881076,
 -1.54894,-0.065713\\Version=EM64T-G03RevE.01\State=1-A\HF=-1998.165331
 2\RMSD=2.526e-05\Thermal=0.\Dipole=0.5666453,-0.0001251,1.367775\PG=C0
 1 [X(Ca2H1O4P1)]\\@


 NO SCIENCE HAS EVER MADE MORE RAPID PROGRESS IN A
 SHORTER TIME THAN CHEMISTRY.
   -- MARTIN HEINRICH KLOPROTH, 1791
 (FIRST PROFESSOR OF CHEMISTRY AT THE UNIVERSITY OF BERLIN)
 Job cpu time:  0 days  0 hours  0 minutes 18.6 seconds.
 File lengths (MBytes):  RWF=     21 Int=      0 D2E=      0 Chk=     10 Scr=      1
 Normal termination of Gaussian 03 at Mon May  4 20:41:37 2015.
