 Entering Gaussian System, Link 0=/home/timn/tmp/g03.e01/g03
 Input=Ca2HPO4_37.xyz.gjf
 Output=Ca2HPO4_37.xyz.out
 Initial command:
 /home/timn/tmp/g03.e01/l1.exe /home/timn/tmp/g03.e01/Gau-32278.inp -scrdir=/home/timn/tmp/g03.e01/
 Default is to use a total of   2 processors:
                                2 via shared-memory
                                1 via Linda
 Entering Link 1 = /home/timn/tmp/g03.e01/l1.exe PID=     32279.
  
 Copyright (c) 1988,1990,1992,1993,1995,1998,2003,2004,2007, Gaussian, Inc.
                  All Rights Reserved.
  
 This is the Gaussian(R) 03 program.  It is based on the
 the Gaussian(R) 98 system (copyright 1998, Gaussian, Inc.),
 the Gaussian(R) 94 system (copyright 1995, Gaussian, Inc.),
 the Gaussian 92(TM) system (copyright 1992, Gaussian, Inc.),
 the Gaussian 90(TM) system (copyright 1990, Gaussian, Inc.),
 the Gaussian 88(TM) system (copyright 1988, Gaussian, Inc.),
 the Gaussian 86(TM) system (copyright 1986, Carnegie Mellon
 University), and the Gaussian 82(TM) system (copyright 1983,
 Carnegie Mellon University). Gaussian is a federally registered
 trademark of Gaussian, Inc.
  
 This software contains proprietary and confidential information,
 including trade secrets, belonging to Gaussian, Inc.
  
 This software is provided under written license and may be
 used, copied, transmitted, or stored only in accord with that
 written license.
  
 The following legend is applicable only to US Government
 contracts under FAR:
  
                    RESTRICTED RIGHTS LEGEND
  
 Use, reproduction and disclosure by the US Government is
 subject to restrictions as set forth in subparagraphs (a)
 and (c) of the Commercial Computer Software - Restricted
 Rights clause in FAR 52.227-19.
  
 Gaussian, Inc.
 340 Quinnipiac St., Bldg. 40, Wallingford CT 06492
  
  
 ---------------------------------------------------------------
 Warning -- This program may not be used in any manner that
 competes with the business of Gaussian, Inc. or will provide
 assistance to any competitor of Gaussian, Inc.  The licensee
 of this program is prohibited from giving any competitor of
 Gaussian, Inc. access to this program.  By using this program,
 the user acknowledges that Gaussian, Inc. is engaged in the
 business of creating and licensing software in the field of
 computational chemistry and represents and warrants to the
 licensee that it is not a competitor of Gaussian, Inc. and that
 it will not use this program in any manner prohibited above.
 ---------------------------------------------------------------
  

 Cite this work as:
 Gaussian 03, Revision E.01,
 M. J. Frisch, G. W. Trucks, H. B. Schlegel, G. E. Scuseria, 
 M. A. Robb, J. R. Cheeseman, J. A. Montgomery, Jr., T. Vreven, 
 K. N. Kudin, J. C. Burant, J. M. Millam, S. S. Iyengar, J. Tomasi, 
 V. Barone, B. Mennucci, M. Cossi, G. Scalmani, N. Rega, 
 G. A. Petersson, H. Nakatsuji, M. Hada, M. Ehara, K. Toyota, 
 R. Fukuda, J. Hasegawa, M. Ishida, T. Nakajima, Y. Honda, O. Kitao, 
 H. Nakai, M. Klene, X. Li, J. E. Knox, H. P. Hratchian, J. B. Cross, 
 V. Bakken, C. Adamo, J. Jaramillo, R. Gomperts, R. E. Stratmann, 
 O. Yazyev, A. J. Austin, R. Cammi, C. Pomelli, J. W. Ochterski, 
 P. Y. Ayala, K. Morokuma, G. A. Voth, P. Salvador, J. J. Dannenberg, 
 V. G. Zakrzewski, S. Dapprich, A. D. Daniels, M. C. Strain, 
 O. Farkas, D. K. Malick, A. D. Rabuck, K. Raghavachari, 
 J. B. Foresman, J. V. Ortiz, Q. Cui, A. G. Baboul, S. Clifford, 
 J. Cioslowski, B. B. Stefanov, G. Liu, A. Liashenko, P. Piskorz, 
 I. Komaromi, R. L. Martin, D. J. Fox, T. Keith, M. A. Al-Laham, 
 C. Y. Peng, A. Nanayakkara, M. Challacombe, P. M. W. Gill, 
 B. Johnson, W. Chen, M. W. Wong, C. Gonzalez, and J. A. Pople, 
 Gaussian, Inc., Wallingford CT, 2004.
 
 ******************************************
 Gaussian 03:  EM64T-G03RevE.01 11-Sep-2007
                 4-May-2015 
 ******************************************
 %nproc=2
 Will use up to    2 processors via shared memory.
 Default route:  MP2=Direct MaxDisk=2000MB
 -------------------------------------
 # b3lyp/6-31G(d,p) pop=(ReadRadii,MK)
 -------------------------------------
 1/38=1/1;
 2/17=6,18=5,40=1/2;
 3/5=1,6=6,7=101,11=2,16=1,25=1,30=1,74=-5/1,2,3;
 4//1;
 5/5=2,32=1,38=5/2;
 6/7=2,8=2,9=2,10=2,15=8,20=101,28=1/1,2;
 99/5=1,9=1/99;
 ----------
 Ca2HPO4_37
 ----------
 Symbolic Z-matrix:
 Charge =  0 Multiplicity = 1
 O                    -1.15784  -1.12673   0.1292 
 O                    -0.37321  -0.55491   1.37617 
 Ca                   -0.04103   1.53132   0.31941 
 P                    -2.31793  -0.06152  -0.56848 
 H                    -3.31754  -0.13763   0.45708 
 O                     1.3109    0.57163  -1.22577 
 O                     2.09834   0.72898   0.11555 
 Ca                    1.19408  -1.32589  -0.07396 
 
                          Input orientation:                          
 ---------------------------------------------------------------------
 Center     Atomic     Atomic              Coordinates (Angstroms)
 Number     Number      Type              X           Y           Z
 ---------------------------------------------------------------------
    1          8             0       -1.157840   -1.126730    0.129195
    2          8             0       -0.373214   -0.554909    1.376170
    3         20             0       -0.041033    1.531320    0.319411
    4         15             0       -2.317930   -0.061521   -0.568483
    5          1             0       -3.317540   -0.137630    0.457083
    6          8             0        1.310900    0.571630   -1.225770
    7          8             0        2.098340    0.728981    0.115546
    8         20             0        1.194080   -1.325890   -0.073960
 ---------------------------------------------------------------------
                    Distance matrix (angstroms):
                    1          2          3          4          5
     1  O    0.000000
     2  O    1.580368   0.000000
     3  Ca   2.889406   2.362083   0.000000
     4  P    1.722566   2.794106   2.917149   0.000000
     5  H    2.397944   3.112539   3.679653   1.434154   0.000000
     6  O    3.288622   3.297790   2.266343   3.741833   4.975691
     7  O    3.747874   3.057143   2.293954   4.538307   5.495400
     8  Ca   2.369064   2.270176   3.137498   3.765288   4.695603
                    6          7          8
     6  O    0.000000
     7  O    1.563314   0.000000
     8  Ca   2.222812   2.253019   0.000000
 Stoichiometry    Ca2HO4P
 Framework group  C1[X(Ca2HO4P)]
 Deg. of freedom    18
 Full point group                 C1
 Largest Abelian subgroup         C1      NOp   1
 Largest concise Abelian subgroup C1      NOp   1
                         Standard orientation:                         
 ---------------------------------------------------------------------
 Center     Atomic     Atomic              Coordinates (Angstroms)
 Number     Number      Type              X           Y           Z
 ---------------------------------------------------------------------
    1          8             0       -1.157838   -1.126730    0.129195
    2          8             0       -0.373213   -0.554909    1.376170
    3         20             0       -0.041034    1.531321    0.319411
    4         15             0       -2.317929   -0.061522   -0.568483
    5          1             0       -3.317539   -0.137632    0.457083
    6          8             0        1.310900    0.571632   -1.225770
    7          8             0        2.098340    0.728984    0.115546
    8         20             0        1.194082   -1.325888   -0.073960
 ---------------------------------------------------------------------
 Rotational constants (GHZ):      1.8556602      1.1878735      0.9037250
 Standard basis: 6-31G(d,p) (6D, 7F)
 There are   130 symmetry adapted basis functions of A   symmetry.
 Integral buffers will be    131072 words long.
 Raffenetti 2 integral format.
 Two-electron integral symmetry is turned on.
   130 basis functions,   323 primitive gaussians,   130 cartesian basis functions
    44 alpha electrons       44 beta electrons
       nuclear repulsion energy       641.9118354977 Hartrees.
 NAtoms=    8 NActive=    8 NUniq=    8 SFac= 7.50D-01 NAtFMM=   80 NAOKFM=F Big=F
 One-electron integrals computed using PRISM.
 NBasis=   130 RedAO= T  NBF=   130
 NBsUse=   130 1.00D-06 NBFU=   130
 Harris functional with IExCor=  402 diagonalized for initial guess.
 ExpMin= 2.60D-02 ExpMax= 3.53D+04 ExpMxC= 5.30D+03 IAcc=3 IRadAn=         5 AccDes= 0.00D+00
 HarFok:  IExCor= 402 AccDes= 0.00D+00 IRadAn=         5 IDoV=1
 ScaDFX=  1.000000  1.000000  1.000000  1.000000
 Initial guess orbital symmetries:
       Occupied  (A) (A) (A) (A) (A) (A) (A) (A) (A) (A) (A) (A)
                 (A) (A) (A) (A) (A) (A) (A) (A) (A) (A) (A) (A)
                 (A) (A) (A) (A) (A) (A) (A) (A) (A) (A) (A) (A)
                 (A) (A) (A) (A) (A) (A) (A) (A)
       Virtual   (A) (A) (A) (A) (A) (A) (A) (A) (A) (A) (A) (A)
                 (A) (A) (A) (A) (A) (A) (A) (A) (A) (A) (A) (A)
                 (A) (A) (A) (A) (A) (A) (A) (A) (A) (A) (A) (A)
                 (A) (A) (A) (A) (A) (A) (A) (A) (A) (A) (A) (A)
                 (A) (A) (A) (A) (A) (A) (A) (A) (A) (A) (A) (A)
                 (A) (A) (A) (A) (A) (A) (A) (A) (A) (A) (A) (A)
                 (A) (A) (A) (A) (A) (A) (A) (A) (A) (A) (A) (A)
                 (A) (A)
 The electronic state of the initial guess is 1-A.
 Requested convergence on RMS density matrix=1.00D-04 within 128 cycles.
 Requested convergence on MAX density matrix=1.00D-02.
 Requested convergence on             energy=1.00D-02.
 No special actions if energy rises.
 Keep R1 integrals in memory in canonical form, NReq=    38353679.
 SCF Done:  E(RB+HF-LYP) =  -1997.91951651     A.U. after    8 cycles
             Convg  =    0.5000D-04             -V/T =  2.0029
             S**2   =   0.0000

 **********************************************************************

            Population analysis using the SCF density.

 **********************************************************************

 Orbital symmetries:
       Occupied  (A) (A) (A) (A) (A) (A) (A) (A) (A) (A) (A) (A)
                 (A) (A) (A) (A) (A) (A) (A) (A) (A) (A) (A) (A)
                 (A) (A) (A) (A) (A) (A) (A) (A) (A) (A) (A) (A)
                 (A) (A) (A) (A) (A) (A) (A) (A)
       Virtual   (A) (A) (A) (A) (A) (A) (A) (A) (A) (A) (A) (A)
                 (A) (A) (A) (A) (A) (A) (A) (A) (A) (A) (A) (A)
                 (A) (A) (A) (A) (A) (A) (A) (A) (A) (A) (A) (A)
                 (A) (A) (A) (A) (A) (A) (A) (A) (A) (A) (A) (A)
                 (A) (A) (A) (A) (A) (A) (A) (A) (A) (A) (A) (A)
                 (A) (A) (A) (A) (A) (A) (A) (A) (A) (A) (A) (A)
                 (A) (A) (A) (A) (A) (A) (A) (A) (A) (A) (A) (A)
                 (A) (A)
 The electronic state is 1-A.
 Alpha  occ. eigenvalues -- -145.35882-145.33913 -77.04289 -19.16995 -19.10727
 Alpha  occ. eigenvalues --  -19.08100 -19.08093 -15.42937 -15.41012 -12.56130
 Alpha  occ. eigenvalues --  -12.56100 -12.56037 -12.54225 -12.54169 -12.54085
 Alpha  occ. eigenvalues --   -6.51077  -4.67634  -4.67052  -4.66760  -1.80455
 Alpha  occ. eigenvalues --   -1.78538  -1.09128  -1.08338  -1.07920  -1.06361
 Alpha  occ. eigenvalues --   -1.06016  -1.05777  -0.98278  -0.90955  -0.80016
 Alpha  occ. eigenvalues --   -0.71885  -0.54021  -0.39829  -0.37054  -0.35860
 Alpha  occ. eigenvalues --   -0.31709  -0.30260  -0.28984  -0.26163  -0.24295
 Alpha  occ. eigenvalues --   -0.21012  -0.18563  -0.17152  -0.16100
 Alpha virt. eigenvalues --   -0.07748  -0.05565  -0.02045   0.00785   0.01016
 Alpha virt. eigenvalues --    0.01951   0.03040   0.03877   0.04862   0.06933
 Alpha virt. eigenvalues --    0.08427   0.09277   0.09860   0.13192   0.14160
 Alpha virt. eigenvalues --    0.15169   0.16229   0.18481   0.20163   0.22054
 Alpha virt. eigenvalues --    0.23414   0.26763   0.28234   0.28933   0.29949
 Alpha virt. eigenvalues --    0.32911   0.36253   0.38224   0.38806   0.42026
 Alpha virt. eigenvalues --    0.43514   0.43849   0.45428   0.50615   0.51801
 Alpha virt. eigenvalues --    0.67307   0.70551   0.72904   0.77128   0.83638
 Alpha virt. eigenvalues --    0.90550   0.95572   0.98591   1.02131   1.04930
 Alpha virt. eigenvalues --    1.10159   1.12969   1.15671   1.16842   1.18012
 Alpha virt. eigenvalues --    1.18704   1.23228   1.25138   1.29119   1.41433
 Alpha virt. eigenvalues --    1.49126   1.52034   1.61758   1.63649   1.64761
 Alpha virt. eigenvalues --    1.66303   1.73183   1.82567   1.88392   1.89965
 Alpha virt. eigenvalues --    1.90616   1.96273   1.99716   2.00479   2.02328
 Alpha virt. eigenvalues --    2.03119   2.15313   2.18390   2.27306   2.28204
 Alpha virt. eigenvalues --    2.34100   2.34470   2.46601   2.74737   3.03881
 Alpha virt. eigenvalues --    3.08628   3.58881   3.69573   3.84410   3.89235
 Alpha virt. eigenvalues --    3.93820
          Condensed to atoms (all electrons):
              1          2          3          4          5          6
     1  O    8.285295  -0.005835   0.008504   0.140172  -0.019464  -0.002363
     2  O   -0.005835   8.392072   0.102866  -0.043152  -0.000704  -0.000032
     3  Ca   0.008504   0.102866  18.645369   0.143001   0.003912   0.109967
     4  P    0.140172  -0.043152   0.143001  14.495226   0.234805   0.001866
     5  H   -0.019464  -0.000704   0.003912   0.234805   0.851456   0.000015
     6  O   -0.002363  -0.000032   0.109967   0.001866   0.000015   8.362196
     7  O    0.000446  -0.005906   0.108026  -0.000825  -0.000001  -0.007284
     8  Ca   0.078327   0.103115  -0.188951   0.031867  -0.009724   0.119075
              7          8
     1  O    0.000446   0.078327
     2  O   -0.005906   0.103115
     3  Ca   0.108026  -0.188951
     4  P   -0.000825   0.031867
     5  H   -0.000001  -0.009724
     6  O   -0.007284   0.119075
     7  O    8.380375   0.111636
     8  Ca   0.111636  18.561295
 Mulliken atomic charges:
              1
     1  O   -0.485082
     2  O   -0.542422
     3  Ca   1.067307
     4  P   -0.002961
     5  H   -0.060294
     6  O   -0.583440
     7  O   -0.586467
     8  Ca   1.193360
 Sum of Mulliken charges=   0.00000
 Atomic charges with hydrogens summed into heavy atoms:
              1
     1  O   -0.485082
     2  O   -0.542422
     3  Ca   1.067307
     4  P   -0.063255
     5  H    0.000000
     6  O   -0.583440
     7  O   -0.586467
     8  Ca   1.193360
 Sum of Mulliken charges=   0.00000
 Electronic spatial extent (au):  <R**2>=  1275.6139
 Charge=     0.0000 electrons
 Dipole moment (field-independent basis, Debye):
    X=     3.5167    Y=    -1.3651    Z=     1.7197  Tot=     4.1459
 Quadrupole moment (field-independent basis, Debye-Ang):
   XX=   -79.1983   YY=   -39.7144   ZZ=   -73.2744
   XY=   -19.7638   XZ=     1.7844   YZ=     8.1668
 Traceless Quadrupole moment (field-independent basis, Debye-Ang):
   XX=   -15.1359   YY=    24.3480   ZZ=    -9.2120
   XY=   -19.7638   XZ=     1.7844   YZ=     8.1668
 Octapole moment (field-independent basis, Debye-Ang**2):
  XXX=    23.6722  YYY=    -1.3027  ZZZ=     7.1327  XYY=    32.4886
  XXY=   -28.5744  XXZ=    11.6733  XZZ=    13.1913  YZZ=     0.5158
  YYZ=     5.5836  XYZ=     4.9541
 Hexadecapole moment (field-independent basis, Debye-Ang**3):
 XXXX= -1028.2583 YYYY=  -363.5718 ZZZZ=  -272.3746 XXXY=   -76.0785
 XXXZ=   -19.9761 YYYX=   -51.2837 YYYZ=    21.3843 ZZZX=    -4.3060
 ZZZY=    16.4205 XXYY=  -230.4570 XXZZ=  -223.3085 YYZZ=  -115.8062
 XXYZ=    -1.1209 YYXZ=    -5.1750 ZZXY=   -14.0896
 N-N= 6.419118354977D+02 E-N=-6.020800503710D+03  KE= 1.992135044105D+03
 Merz-Kollman atomic radii used.
 Read replacement radii for each type of atom:
 Rad(20) =   1.188000000000D+00
 Atom Element Radius
    1     8    1.40
    2     8    1.40
    3    20    1.19
    4    15    1.80
    5     1    1.20
    6     8    1.40
    7     8    1.40
    8    20    1.19

 **********************************************************************

            Electrostatic Properties Using The SCF Density

 **********************************************************************

       Atomic Center    1 is at  -1.157838 -1.126730  0.129195
       Atomic Center    2 is at  -0.373213 -0.554909  1.376170
       Atomic Center    3 is at  -0.041034  1.531321  0.319411
       Atomic Center    4 is at  -2.317929 -0.061522 -0.568483
       Atomic Center    5 is at  -3.317539 -0.137632  0.457083
       Atomic Center    6 is at   1.310900  0.571632 -1.225770
       Atomic Center    7 is at   2.098340  0.728984  0.115546
       Atomic Center    8 is at   1.194082 -1.325888 -0.073960
     738 points will be used for fitting atomic charges
 Fitting point charges to eletrostatic potential
 Charges from ESP fit, RMS=   0.00735 RRMS=   0.12184:
 Charge=   0.00000 Dipole=     3.8403    -0.9644     2.0504 Tot=     4.4589
              1
     1  O   -0.168954
     2  O   -0.787134
     3  Ca   1.356036
     4  P   -0.645315
     5  H    0.153409
     6  O   -0.698651
     7  O   -0.718005
     8  Ca   1.508614
 -----------------------------------------------------------------

              Electrostatic Properties (Atomic Units)

 -----------------------------------------------------------------
    Center     Electric         -------- Electric Field --------
               Potential          X             Y             Z
 -----------------------------------------------------------------
    1 Atom    -22.301001
    2 Atom    -22.360597
    3 Atom    -80.202973
    4 Atom    -54.174165
    5 Atom     -1.147552
    6 Atom    -22.385601
    7 Atom    -22.389265
    8 Atom    -80.183280
 -----------------------------------------------------------------
 1\1\GINC-N025\SP\RB3LYP\6-31G(d,p)\Ca2H1O4P1\TIMN\04-May-2015\0\\# b3l
 yp/6-31G(d,p) pop=(ReadRadii,MK)\\Ca2HPO4_37\\0,1\O,0,-1.15784,-1.1267
 3,0.129195\O,0,-0.373214,-0.554909,1.37617\Ca,0,-0.041033,1.53132,0.31
 9411\P,0,-2.31793,-0.061521,-0.568483\H,0,-3.31754,-0.13763,0.457083\O
 ,0,1.3109,0.57163,-1.22577\O,0,2.09834,0.728981,0.115546\Ca,0,1.19408,
 -1.32589,-0.07396\\Version=EM64T-G03RevE.01\State=1-A\HF=-1997.9195165
 \RMSD=5.000e-05\Thermal=0.\Dipole=1.3835772,-0.5370809,0.6765985\PG=C0
 1 [X(Ca2H1O4P1)]\\@


 FAULTILY FAULTLESS, ICILY REGULAR, SPLENDIDLY NULL...
           MAUDE BY TENNYSON
 Job cpu time:  0 days  0 hours  0 minutes 19.7 seconds.
 File lengths (MBytes):  RWF=     21 Int=      0 D2E=      0 Chk=     10 Scr=      1
 Normal termination of Gaussian 03 at Mon May  4 20:08:25 2015.
