 Entering Gaussian System, Link 0=/home/timn/tmp/g03.e01/g03
 Input=Ca2HPO4_74.xyz.gjf
 Output=Ca2HPO4_74.xyz.out
 Initial command:
 /home/timn/tmp/g03.e01/l1.exe /home/timn/tmp/g03.e01/Gau-20314.inp -scrdir=/home/timn/tmp/g03.e01/
 Default is to use a total of   2 processors:
                                2 via shared-memory
                                1 via Linda
 Entering Link 1 = /home/timn/tmp/g03.e01/l1.exe PID=     20315.
  
 Copyright (c) 1988,1990,1992,1993,1995,1998,2003,2004,2007, Gaussian, Inc.
                  All Rights Reserved.
  
 This is the Gaussian(R) 03 program.  It is based on the
 the Gaussian(R) 98 system (copyright 1998, Gaussian, Inc.),
 the Gaussian(R) 94 system (copyright 1995, Gaussian, Inc.),
 the Gaussian 92(TM) system (copyright 1992, Gaussian, Inc.),
 the Gaussian 90(TM) system (copyright 1990, Gaussian, Inc.),
 the Gaussian 88(TM) system (copyright 1988, Gaussian, Inc.),
 the Gaussian 86(TM) system (copyright 1986, Carnegie Mellon
 University), and the Gaussian 82(TM) system (copyright 1983,
 Carnegie Mellon University). Gaussian is a federally registered
 trademark of Gaussian, Inc.
  
 This software contains proprietary and confidential information,
 including trade secrets, belonging to Gaussian, Inc.
  
 This software is provided under written license and may be
 used, copied, transmitted, or stored only in accord with that
 written license.
  
 The following legend is applicable only to US Government
 contracts under FAR:
  
                    RESTRICTED RIGHTS LEGEND
  
 Use, reproduction and disclosure by the US Government is
 subject to restrictions as set forth in subparagraphs (a)
 and (c) of the Commercial Computer Software - Restricted
 Rights clause in FAR 52.227-19.
  
 Gaussian, Inc.
 340 Quinnipiac St., Bldg. 40, Wallingford CT 06492
  
  
 ---------------------------------------------------------------
 Warning -- This program may not be used in any manner that
 competes with the business of Gaussian, Inc. or will provide
 assistance to any competitor of Gaussian, Inc.  The licensee
 of this program is prohibited from giving any competitor of
 Gaussian, Inc. access to this program.  By using this program,
 the user acknowledges that Gaussian, Inc. is engaged in the
 business of creating and licensing software in the field of
 computational chemistry and represents and warrants to the
 licensee that it is not a competitor of Gaussian, Inc. and that
 it will not use this program in any manner prohibited above.
 ---------------------------------------------------------------
  

 Cite this work as:
 Gaussian 03, Revision E.01,
 M. J. Frisch, G. W. Trucks, H. B. Schlegel, G. E. Scuseria, 
 M. A. Robb, J. R. Cheeseman, J. A. Montgomery, Jr., T. Vreven, 
 K. N. Kudin, J. C. Burant, J. M. Millam, S. S. Iyengar, J. Tomasi, 
 V. Barone, B. Mennucci, M. Cossi, G. Scalmani, N. Rega, 
 G. A. Petersson, H. Nakatsuji, M. Hada, M. Ehara, K. Toyota, 
 R. Fukuda, J. Hasegawa, M. Ishida, T. Nakajima, Y. Honda, O. Kitao, 
 H. Nakai, M. Klene, X. Li, J. E. Knox, H. P. Hratchian, J. B. Cross, 
 V. Bakken, C. Adamo, J. Jaramillo, R. Gomperts, R. E. Stratmann, 
 O. Yazyev, A. J. Austin, R. Cammi, C. Pomelli, J. W. Ochterski, 
 P. Y. Ayala, K. Morokuma, G. A. Voth, P. Salvador, J. J. Dannenberg, 
 V. G. Zakrzewski, S. Dapprich, A. D. Daniels, M. C. Strain, 
 O. Farkas, D. K. Malick, A. D. Rabuck, K. Raghavachari, 
 J. B. Foresman, J. V. Ortiz, Q. Cui, A. G. Baboul, S. Clifford, 
 J. Cioslowski, B. B. Stefanov, G. Liu, A. Liashenko, P. Piskorz, 
 I. Komaromi, R. L. Martin, D. J. Fox, T. Keith, M. A. Al-Laham, 
 C. Y. Peng, A. Nanayakkara, M. Challacombe, P. M. W. Gill, 
 B. Johnson, W. Chen, M. W. Wong, C. Gonzalez, and J. A. Pople, 
 Gaussian, Inc., Wallingford CT, 2004.
 
 ******************************************
 Gaussian 03:  EM64T-G03RevE.01 11-Sep-2007
                 4-May-2015 
 ******************************************
 %nproc=2
 Will use up to    2 processors via shared memory.
 Default route:  MP2=Direct MaxDisk=2000MB
 -------------------------------------
 # b3lyp/6-31G(d,p) pop=(ReadRadii,MK)
 -------------------------------------
 1/38=1/1;
 2/17=6,18=5,40=1/2;
 3/5=1,6=6,7=101,11=2,16=1,25=1,30=1,74=-5/1,2,3;
 4//1;
 5/5=2,32=1,38=5/2;
 6/7=2,8=2,9=2,10=2,15=8,20=101,28=1/1,2;
 99/5=1,9=1/99;
 ----------
 Ca2HPO4_74
 ----------
 Symbolic Z-matrix:
 Charge =  0 Multiplicity = 1
 O                    -2.32359   0.618     0.03139 
 O                    -1.11176   0.88252  -0.85922 
 P                    -0.17395   1.32954   0.47976 
 O                     1.36149   1.4285   -0.46561 
 H                     1.44865   2.26447  -0.94294 
 O                     0.22778  -0.12065   1.04101 
 Ca                   -1.35438  -1.43036  -0.11184 
 Ca                    2.15084  -0.80337  -0.09986 
 
                          Input orientation:                          
 ---------------------------------------------------------------------
 Center     Atomic     Atomic              Coordinates (Angstroms)
 Number     Number      Type              X           Y           Z
 ---------------------------------------------------------------------
    1          8             0       -2.323590    0.617995    0.031393
    2          8             0       -1.111760    0.882524   -0.859217
    3         15             0       -0.173945    1.329540    0.479764
    4          8             0        1.361490    1.428500   -0.465612
    5          1             0        1.448650    2.264470   -0.942942
    6          8             0        0.227782   -0.120647    1.041010
    7         20             0       -1.354380   -1.430360   -0.111843
    8         20             0        2.150840   -0.803373   -0.099862
 ---------------------------------------------------------------------
                    Distance matrix (angstroms):
                    1          2          3          4          5
     1  O    0.000000
     2  O    1.526988   0.000000
     3  P    2.308312   1.694754   0.000000
     4  O    3.805752   2.563197   1.805849   0.000000
     5  H    4.229658   2.910753   2.351808   0.966585   0.000000
     6  O    2.841552   2.532111   1.606059   2.440299   3.333972
     7  Ca   2.270604   2.442717   3.059489   3.959063   4.711632
     8  Ca   4.696599   3.750124   3.207789   2.395434   3.258146
                    6          7          8
     6  O    0.000000
     7  Ca   2.355346   0.000000
     8  Ca   2.337917   3.560874   0.000000
 Stoichiometry    Ca2HO4P
 Framework group  C1[X(Ca2HO4P)]
 Deg. of freedom    18
 Full point group                 C1
 Largest Abelian subgroup         C1      NOp   1
 Largest concise Abelian subgroup C1      NOp   1
                         Standard orientation:                         
 ---------------------------------------------------------------------
 Center     Atomic     Atomic              Coordinates (Angstroms)
 Number     Number      Type              X           Y           Z
 ---------------------------------------------------------------------
    1          8             0       -2.323589    0.618001    0.031393
    2          8             0       -1.111759    0.882528   -0.859217
    3         15             0       -0.173943    1.329542    0.479764
    4          8             0        1.361492    1.428498   -0.465612
    5          1             0        1.448654    2.264468   -0.942942
    6          8             0        0.227781   -0.120646    1.041010
    7         20             0       -1.354384   -1.430356   -0.111843
    8         20             0        2.150838   -0.803376   -0.099862
 ---------------------------------------------------------------------
 Rotational constants (GHZ):      1.9409882      1.1502014      0.8193905
 Standard basis: 6-31G(d,p) (6D, 7F)
 There are   130 symmetry adapted basis functions of A   symmetry.
 Integral buffers will be    131072 words long.
 Raffenetti 2 integral format.
 Two-electron integral symmetry is turned on.
   130 basis functions,   323 primitive gaussians,   130 cartesian basis functions
    44 alpha electrons       44 beta electrons
       nuclear repulsion energy       642.3917249647 Hartrees.
 NAtoms=    8 NActive=    8 NUniq=    8 SFac= 7.50D-01 NAtFMM=   80 NAOKFM=F Big=F
 One-electron integrals computed using PRISM.
 NBasis=   130 RedAO= T  NBF=   130
 NBsUse=   130 1.00D-06 NBFU=   130
 Harris functional with IExCor=  402 diagonalized for initial guess.
 ExpMin= 2.60D-02 ExpMax= 3.53D+04 ExpMxC= 5.30D+03 IAcc=3 IRadAn=         5 AccDes= 0.00D+00
 HarFok:  IExCor= 402 AccDes= 0.00D+00 IRadAn=         5 IDoV=1
 ScaDFX=  1.000000  1.000000  1.000000  1.000000
 Initial guess orbital symmetries:
       Occupied  (A) (A) (A) (A) (A) (A) (A) (A) (A) (A) (A) (A)
                 (A) (A) (A) (A) (A) (A) (A) (A) (A) (A) (A) (A)
                 (A) (A) (A) (A) (A) (A) (A) (A) (A) (A) (A) (A)
                 (A) (A) (A) (A) (A) (A) (A) (A)
       Virtual   (A) (A) (A) (A) (A) (A) (A) (A) (A) (A) (A) (A)
                 (A) (A) (A) (A) (A) (A) (A) (A) (A) (A) (A) (A)
                 (A) (A) (A) (A) (A) (A) (A) (A) (A) (A) (A) (A)
                 (A) (A) (A) (A) (A) (A) (A) (A) (A) (A) (A) (A)
                 (A) (A) (A) (A) (A) (A) (A) (A) (A) (A) (A) (A)
                 (A) (A) (A) (A) (A) (A) (A) (A) (A) (A) (A) (A)
                 (A) (A) (A) (A) (A) (A) (A) (A) (A) (A) (A) (A)
                 (A) (A)
 The electronic state of the initial guess is 1-A.
 Requested convergence on RMS density matrix=1.00D-04 within 128 cycles.
 Requested convergence on MAX density matrix=1.00D-02.
 Requested convergence on             energy=1.00D-02.
 No special actions if energy rises.
 Keep R1 integrals in memory in canonical form, NReq=    38354117.
 EnCoef did     9 forward-backward iterations
 EnCoef did     8 forward-backward iterations
 EnCoef did     9 forward-backward iterations
 EnCoef did     8 forward-backward iterations
 SCF Done:  E(RB+HF-LYP) =  -1998.01050981     A.U. after   11 cycles
             Convg  =    0.5556D-04             -V/T =  2.0029
             S**2   =   0.0000

 **********************************************************************

            Population analysis using the SCF density.

 **********************************************************************

 Orbital symmetries:
       Occupied  (A) (A) (A) (A) (A) (A) (A) (A) (A) (A) (A) (A)
                 (A) (A) (A) (A) (A) (A) (A) (A) (A) (A) (A) (A)
                 (A) (A) (A) (A) (A) (A) (A) (A) (A) (A) (A) (A)
                 (A) (A) (A) (A) (A) (A) (A) (A)
       Virtual   (A) (A) (A) (A) (A) (A) (A) (A) (A) (A) (A) (A)
                 (A) (A) (A) (A) (A) (A) (A) (A) (A) (A) (A) (A)
                 (A) (A) (A) (A) (A) (A) (A) (A) (A) (A) (A) (A)
                 (A) (A) (A) (A) (A) (A) (A) (A) (A) (A) (A) (A)
                 (A) (A) (A) (A) (A) (A) (A) (A) (A) (A) (A) (A)
                 (A) (A) (A) (A) (A) (A) (A) (A) (A) (A) (A) (A)
                 (A) (A) (A) (A) (A) (A) (A) (A) (A) (A) (A) (A)
                 (A) (A)
 The electronic state is 1-A.
 Alpha  occ. eigenvalues -- -145.38194-145.37709 -77.16759 -19.17523 -19.17168
 Alpha  occ. eigenvalues --  -19.12349 -19.11558 -15.45326 -15.44826 -12.58522
 Alpha  occ. eigenvalues --  -12.58477 -12.58392 -12.58036 -12.57984 -12.57892
 Alpha  occ. eigenvalues --   -6.61953  -4.78433  -4.78210  -4.77648  -1.82655
 Alpha  occ. eigenvalues --   -1.82229  -1.10819  -1.10244  -1.10134  -1.10059
 Alpha  occ. eigenvalues --   -1.09763  -1.09608  -1.03790  -1.00383  -0.94343
 Alpha  occ. eigenvalues --   -0.79493  -0.57789  -0.50123  -0.42639  -0.42525
 Alpha  occ. eigenvalues --   -0.40136  -0.37578  -0.33872  -0.32462  -0.30741
 Alpha  occ. eigenvalues --   -0.25049  -0.23739  -0.22185  -0.13878
 Alpha virt. eigenvalues --   -0.08715  -0.03705  -0.02945  -0.01016  -0.00705
 Alpha virt. eigenvalues --    0.01006   0.02434   0.04497   0.04972   0.05587
 Alpha virt. eigenvalues --    0.06408   0.09013   0.09372   0.10606   0.12318
 Alpha virt. eigenvalues --    0.13482   0.14045   0.15291   0.16430   0.18379
 Alpha virt. eigenvalues --    0.18916   0.20097   0.20997   0.23361   0.26646
 Alpha virt. eigenvalues --    0.29008   0.30839   0.32234   0.35149   0.36654
 Alpha virt. eigenvalues --    0.39093   0.40018   0.42097   0.42590   0.51825
 Alpha virt. eigenvalues --    0.53554   0.63426   0.65381   0.71547   0.82377
 Alpha virt. eigenvalues --    0.88066   0.91327   0.93416   0.96229   1.00718
 Alpha virt. eigenvalues --    1.05372   1.06954   1.09892   1.11843   1.16724
 Alpha virt. eigenvalues --    1.17517   1.23563   1.27858   1.31695   1.38166
 Alpha virt. eigenvalues --    1.45100   1.50713   1.58209   1.58289   1.63500
 Alpha virt. eigenvalues --    1.70328   1.72446   1.81320   1.83063   1.86539
 Alpha virt. eigenvalues --    1.90552   1.91075   1.96203   1.97033   1.98426
 Alpha virt. eigenvalues --    2.08288   2.19739   2.30781   2.32917   2.34285
 Alpha virt. eigenvalues --    2.53311   2.62320   2.64860   2.69911   3.06741
 Alpha virt. eigenvalues --    3.36201   3.57776   3.69746   3.85106   3.90031
 Alpha virt. eigenvalues --    4.07721
          Condensed to atoms (all electrons):
              1          2          3          4          5          6
     1  O    8.361753   0.002658   0.023448   0.000908  -0.000008  -0.008361
     2  O    0.002658   8.315630   0.132065  -0.021158   0.000599  -0.032884
     3  P    0.023448   0.132065  13.496366   0.085309  -0.000771   0.220003
     4  O    0.000908  -0.021158   0.085309   8.354164   0.280126  -0.040153
     5  H   -0.000008   0.000599  -0.000771   0.280126   0.384956   0.002173
     6  O   -0.008361  -0.032884   0.220003  -0.040153   0.002173   8.510459
     7  Ca   0.125571   0.056191   0.004548  -0.006046  -0.001237   0.081078
     8  Ca  -0.004733   0.000281   0.003577   0.071937   0.000852   0.083060
              7          8
     1  O    0.125571  -0.004733
     2  O    0.056191   0.000281
     3  P    0.004548   0.003577
     4  O   -0.006046   0.071937
     5  H   -0.001237   0.000852
     6  O    0.081078   0.083060
     7  Ca  18.889292   0.225879
     8  Ca   0.225879  19.117559
 Mulliken atomic charges:
              1
     1  O   -0.501236
     2  O   -0.453382
     3  P    1.035454
     4  O   -0.725086
     5  H    0.333310
     6  O   -0.815374
     7  Ca   0.624726
     8  Ca   0.501588
 Sum of Mulliken charges=   0.00000
 Atomic charges with hydrogens summed into heavy atoms:
              1
     1  O   -0.501236
     2  O   -0.453382
     3  P    1.035454
     4  O   -0.391776
     5  H    0.000000
     6  O   -0.815374
     7  Ca   0.624726
     8  Ca   0.501588
 Sum of Mulliken charges=   0.00000
 Electronic spatial extent (au):  <R**2>=  1349.8987
 Charge=     0.0000 electrons
 Dipole moment (field-independent basis, Debye):
    X=     2.4195    Y=    -1.1168    Z=    -0.2441  Tot=     2.6760
 Quadrupole moment (field-independent basis, Debye-Ang):
   XX=   -67.8091   YY=   -75.8717   ZZ=   -75.4275
   XY=    16.6241   XZ=    -0.6141   YZ=    -4.1759
 Traceless Quadrupole moment (field-independent basis, Debye-Ang):
   XX=     5.2270   YY=    -2.8356   ZZ=    -2.3914
   XY=    16.6241   XZ=    -0.6141   YZ=    -4.1759
 Octapole moment (field-independent basis, Debye-Ang**2):
  XXX=    -8.2924  YYY=    86.2278  ZZZ=     5.8053  XYY=   -20.4555
  XXY=     0.3854  XXZ=     8.4264  XZZ=   -10.2522  YZZ=    19.4403
  YYZ=     1.2687  XYZ=    -6.6459
 Hexadecapole moment (field-independent basis, Debye-Ang**3):
 XXXX= -1201.6465 YYYY=  -892.0316 ZZZZ=  -258.3939 XXXY=   123.3110
 XXXZ=    16.5542 YYYX=   105.8794 YYYZ=   -65.7828 ZZZX=     8.9849
 ZZZY=   -30.4431 XXYY=  -343.2456 XXZZ=  -233.3336 YYZZ=  -183.5836
 XXYZ=   -19.9762 YYXZ=    -3.1291 ZZXY=    28.7304
 N-N= 6.423917249647D+02 E-N=-6.017369677784D+03  KE= 1.992168485185D+03
 Merz-Kollman atomic radii used.
 Read replacement radii for each type of atom:
 Rad(20) =   1.188000000000D+00
 Atom Element Radius
    1     8    1.40
    2     8    1.40
    3    15    1.80
    4     8    1.40
    5     1    1.20
    6     8    1.40
    7    20    1.19
    8    20    1.19

 **********************************************************************

            Electrostatic Properties Using The SCF Density

 **********************************************************************

       Atomic Center    1 is at  -2.323589  0.618001  0.031393
       Atomic Center    2 is at  -1.111759  0.882528 -0.859217
       Atomic Center    3 is at  -0.173943  1.329542  0.479764
       Atomic Center    4 is at   1.361492  1.428498 -0.465612
       Atomic Center    5 is at   1.448654  2.264468 -0.942942
       Atomic Center    6 is at   0.227781 -0.120646  1.041010
       Atomic Center    7 is at  -1.354384 -1.430356 -0.111843
       Atomic Center    8 is at   2.150838 -0.803376 -0.099862
     682 points will be used for fitting atomic charges
 Fitting point charges to eletrostatic potential
 Charges from ESP fit, RMS=   0.03257 RRMS=   0.58564:
 Charge=   0.00000 Dipole=     4.5750    -7.5230    -1.8326 Tot=     8.9936
              1
     1  O   -0.354711
     2  O   -0.338865
     3  P    0.058517
     4  O    0.093175
     5  H   -0.006237
     6  O   -0.516058
     7  Ca   0.721041
     8  Ca   0.343137
 -----------------------------------------------------------------

              Electrostatic Properties (Atomic Units)

 -----------------------------------------------------------------
    Center     Electric         -------- Electric Field --------
               Potential          X             Y             Z
 -----------------------------------------------------------------
    1 Atom    -22.353618
    2 Atom    -22.295159
    3 Atom    -54.050539
    4 Atom    -22.290639
    5 Atom     -0.973177
    6 Atom    -22.345912
    7 Atom    -80.169326
    8 Atom    -80.159290
 -----------------------------------------------------------------
 1\1\GINC-N036\SP\RB3LYP\6-31G(d,p)\Ca2H1O4P1\TIMN\04-May-2015\0\\# b3l
 yp/6-31G(d,p) pop=(ReadRadii,MK)\\Ca2HPO4_74\\0,1\O,0,-2.32359,0.61799
 5,0.031393\O,0,-1.11176,0.882524,-0.859217\P,0,-0.173945,1.32954,0.479
 764\O,0,1.36149,1.4285,-0.465612\H,0,1.44865,2.26447,-0.942942\O,0,0.2
 27782,-0.120647,1.04101\Ca,0,-1.35438,-1.43036,-0.111843\Ca,0,2.15084,
 -0.803373,-0.099862\\Version=EM64T-G03RevE.01\State=1-A\HF=-1998.01050
 98\RMSD=5.556e-05\Thermal=0.\Dipole=0.9518915,-0.4393989,-0.0960181\PG
 =C01 [X(Ca2H1O4P1)]\\@


 REFRAIN FROM ILLUSIONS, INSIST ON WORK AND NOT WORDS,
 PATIENTLY SEEK DIVINE AND SCIENTIFIC TRUTH.
 LAST WORDS OF MARIA MENDELEEVA TO HER SON DMITRI, C. 1850
 Job cpu time:  0 days  0 hours  0 minutes 24.0 seconds.
 File lengths (MBytes):  RWF=     21 Int=      0 D2E=      0 Chk=     10 Scr=      1
 Normal termination of Gaussian 03 at Mon May  4 20:08:51 2015.
