 Entering Gaussian System, Link 0=/home/timn/tmp/g03.e01/g03
 Input=Ca2HPO4_14.xyz.gjf
 Output=Ca2HPO4_14.xyz.out
 Initial command:
 /home/timn/tmp/g03.e01/l1.exe /home/timn/tmp/g03.e01/Gau-27066.inp -scrdir=/home/timn/tmp/g03.e01/
 Default is to use a total of   2 processors:
                                2 via shared-memory
                                1 via Linda
 Entering Link 1 = /home/timn/tmp/g03.e01/l1.exe PID=     27067.
  
 Copyright (c) 1988,1990,1992,1993,1995,1998,2003,2004,2007, Gaussian, Inc.
                  All Rights Reserved.
  
 This is the Gaussian(R) 03 program.  It is based on the
 the Gaussian(R) 98 system (copyright 1998, Gaussian, Inc.),
 the Gaussian(R) 94 system (copyright 1995, Gaussian, Inc.),
 the Gaussian 92(TM) system (copyright 1992, Gaussian, Inc.),
 the Gaussian 90(TM) system (copyright 1990, Gaussian, Inc.),
 the Gaussian 88(TM) system (copyright 1988, Gaussian, Inc.),
 the Gaussian 86(TM) system (copyright 1986, Carnegie Mellon
 University), and the Gaussian 82(TM) system (copyright 1983,
 Carnegie Mellon University). Gaussian is a federally registered
 trademark of Gaussian, Inc.
  
 This software contains proprietary and confidential information,
 including trade secrets, belonging to Gaussian, Inc.
  
 This software is provided under written license and may be
 used, copied, transmitted, or stored only in accord with that
 written license.
  
 The following legend is applicable only to US Government
 contracts under FAR:
  
                    RESTRICTED RIGHTS LEGEND
  
 Use, reproduction and disclosure by the US Government is
 subject to restrictions as set forth in subparagraphs (a)
 and (c) of the Commercial Computer Software - Restricted
 Rights clause in FAR 52.227-19.
  
 Gaussian, Inc.
 340 Quinnipiac St., Bldg. 40, Wallingford CT 06492
  
  
 ---------------------------------------------------------------
 Warning -- This program may not be used in any manner that
 competes with the business of Gaussian, Inc. or will provide
 assistance to any competitor of Gaussian, Inc.  The licensee
 of this program is prohibited from giving any competitor of
 Gaussian, Inc. access to this program.  By using this program,
 the user acknowledges that Gaussian, Inc. is engaged in the
 business of creating and licensing software in the field of
 computational chemistry and represents and warrants to the
 licensee that it is not a competitor of Gaussian, Inc. and that
 it will not use this program in any manner prohibited above.
 ---------------------------------------------------------------
  

 Cite this work as:
 Gaussian 03, Revision E.01,
 M. J. Frisch, G. W. Trucks, H. B. Schlegel, G. E. Scuseria, 
 M. A. Robb, J. R. Cheeseman, J. A. Montgomery, Jr., T. Vreven, 
 K. N. Kudin, J. C. Burant, J. M. Millam, S. S. Iyengar, J. Tomasi, 
 V. Barone, B. Mennucci, M. Cossi, G. Scalmani, N. Rega, 
 G. A. Petersson, H. Nakatsuji, M. Hada, M. Ehara, K. Toyota, 
 R. Fukuda, J. Hasegawa, M. Ishida, T. Nakajima, Y. Honda, O. Kitao, 
 H. Nakai, M. Klene, X. Li, J. E. Knox, H. P. Hratchian, J. B. Cross, 
 V. Bakken, C. Adamo, J. Jaramillo, R. Gomperts, R. E. Stratmann, 
 O. Yazyev, A. J. Austin, R. Cammi, C. Pomelli, J. W. Ochterski, 
 P. Y. Ayala, K. Morokuma, G. A. Voth, P. Salvador, J. J. Dannenberg, 
 V. G. Zakrzewski, S. Dapprich, A. D. Daniels, M. C. Strain, 
 O. Farkas, D. K. Malick, A. D. Rabuck, K. Raghavachari, 
 J. B. Foresman, J. V. Ortiz, Q. Cui, A. G. Baboul, S. Clifford, 
 J. Cioslowski, B. B. Stefanov, G. Liu, A. Liashenko, P. Piskorz, 
 I. Komaromi, R. L. Martin, D. J. Fox, T. Keith, M. A. Al-Laham, 
 C. Y. Peng, A. Nanayakkara, M. Challacombe, P. M. W. Gill, 
 B. Johnson, W. Chen, M. W. Wong, C. Gonzalez, and J. A. Pople, 
 Gaussian, Inc., Wallingford CT, 2004.
 
 ******************************************
 Gaussian 03:  EM64T-G03RevE.01 11-Sep-2007
                 4-May-2015 
 ******************************************
 %nproc=2
 Will use up to    2 processors via shared memory.
 Default route:  MP2=Direct MaxDisk=2000MB
 -------------------------------------
 # b3lyp/6-31G(d,p) pop=(ReadRadii,MK)
 -------------------------------------
 1/38=1/1;
 2/17=6,18=5,40=1/2;
 3/5=1,6=6,7=101,11=2,16=1,25=1,30=1,74=-5/1,2,3;
 4//1;
 5/5=2,32=1,38=5/2;
 6/7=2,8=2,9=2,10=2,15=8,20=101,28=1/1,2;
 99/5=1,9=1/99;
 ----------
 Ca2HPO4_14
 ----------
 Symbolic Z-matrix:
 Charge =  0 Multiplicity = 1
 O                    -1.77498  -1.2426   -0.06351 
 O                    -4.12974  -0.00042  -0.05221 
 P                    -2.65679   0.00058  -0.0509 
 O                    -1.77603   1.24446  -0.04045 
 Ca                    0.2677    0.00165  -0.08164 
 Ca                    3.82961   0.00453  -0.37857 
 O                     2.13932  -0.01434   1.13949 
 H                     2.23709  -0.02884   2.10118 
 
                          Input orientation:                          
 ---------------------------------------------------------------------
 Center     Atomic     Atomic              Coordinates (Angstroms)
 Number     Number      Type              X           Y           Z
 ---------------------------------------------------------------------
    1          8             0       -1.774980   -1.242600   -0.063509
    2          8             0       -4.129740   -0.000424   -0.052214
    3         15             0       -2.656790    0.000575   -0.050899
    4          8             0       -1.776030    1.244460   -0.040454
    5         20             0        0.267699    0.001646   -0.081642
    6         20             0        3.829610    0.004528   -0.378567
    7          8             0        2.139320   -0.014343    1.139490
    8          1             0        2.237090   -0.028839    2.101180
 ---------------------------------------------------------------------
                    Distance matrix (angstroms):
                    1          2          3          4          5
     1  O    0.000000
     2  O    2.662334   0.000000
     3  P    1.524215   1.472951   0.000000
     4  O    2.487167   2.662673   1.524171   0.000000
     5  Ca   2.391864   4.397538   2.924651   2.392303   0.000000
     6  Ca   5.750306   7.966039   6.494672   5.751083   3.574267
     7  O    4.275227   6.381337   4.941652   4.278647   2.234812
     8  H    4.717605   6.721193   5.346248   4.723666   2.940092
                    6          7          8
     6  Ca   0.000000
     7  O    2.271989   0.000000
     8  H    2.947266   0.966756   0.000000
 Stoichiometry    Ca2HO4P
 Framework group  C1[X(Ca2HO4P)]
 Deg. of freedom    18
 Full point group                 C1
 Largest Abelian subgroup         C1      NOp   1
 Largest concise Abelian subgroup C1      NOp   1
                         Standard orientation:                         
 ---------------------------------------------------------------------
 Center     Atomic     Atomic              Coordinates (Angstroms)
 Number     Number      Type              X           Y           Z
 ---------------------------------------------------------------------
    1          8             0       -1.774979   -1.242601   -0.063509
    2          8             0       -4.129740   -0.000425   -0.052214
    3         15             0       -2.656790    0.000574   -0.050899
    4          8             0       -1.776030    1.244459   -0.040454
    5         20             0        0.267699    0.001646   -0.081642
    6         20             0        3.829610    0.004529   -0.378567
    7          8             0        2.139320   -0.014343    1.139490
    8          1             0        2.237090   -0.028839    2.101180
 ---------------------------------------------------------------------
 Rotational constants (GHZ):      6.2503124      0.3915466      0.3861348
 Standard basis: 6-31G(d,p) (6D, 7F)
 There are   130 symmetry adapted basis functions of A   symmetry.
 Integral buffers will be    131072 words long.
 Raffenetti 2 integral format.
 Two-electron integral symmetry is turned on.
   130 basis functions,   323 primitive gaussians,   130 cartesian basis functions
    44 alpha electrons       44 beta electrons
       nuclear repulsion energy       558.1823761630 Hartrees.
 NAtoms=    8 NActive=    8 NUniq=    8 SFac= 7.50D-01 NAtFMM=   80 NAOKFM=F Big=F
 One-electron integrals computed using PRISM.
 NBasis=   130 RedAO= T  NBF=   130
 NBsUse=   130 1.00D-06 NBFU=   130
 Harris functional with IExCor=  402 diagonalized for initial guess.
 ExpMin= 2.60D-02 ExpMax= 3.53D+04 ExpMxC= 5.30D+03 IAcc=3 IRadAn=         5 AccDes= 0.00D+00
 HarFok:  IExCor= 402 AccDes= 0.00D+00 IRadAn=         5 IDoV=1
 ScaDFX=  1.000000  1.000000  1.000000  1.000000
 Initial guess orbital symmetries:
       Occupied  (A) (A) (A) (A) (A) (A) (A) (A) (A) (A) (A) (A)
                 (A) (A) (A) (A) (A) (A) (A) (A) (A) (A) (A) (A)
                 (A) (A) (A) (A) (A) (A) (A) (A) (A) (A) (A) (A)
                 (A) (A) (A) (A) (A) (A) (A) (A)
       Virtual   (A) (A) (A) (A) (A) (A) (A) (A) (A) (A) (A) (A)
                 (A) (A) (A) (A) (A) (A) (A) (A) (A) (A) (A) (A)
                 (A) (A) (A) (A) (A) (A) (A) (A) (A) (A) (A) (A)
                 (A) (A) (A) (A) (A) (A) (A) (A) (A) (A) (A) (A)
                 (A) (A) (A) (A) (A) (A) (A) (A) (A) (A) (A) (A)
                 (A) (A) (A) (A) (A) (A) (A) (A) (A) (A) (A) (A)
                 (A) (A) (A) (A) (A) (A) (A) (A) (A) (A) (A) (A)
                 (A) (A)
 The electronic state of the initial guess is 1-A.
 Requested convergence on RMS density matrix=1.00D-04 within 128 cycles.
 Requested convergence on MAX density matrix=1.00D-02.
 Requested convergence on             energy=1.00D-02.
 No special actions if energy rises.
 Keep R1 integrals in memory in canonical form, NReq=    38354270.
 SCF Done:  E(RB+HF-LYP) =  -1998.14386377     A.U. after    7 cycles
             Convg  =    0.4087D-04             -V/T =  2.0029
             S**2   =   0.0000

 **********************************************************************

            Population analysis using the SCF density.

 **********************************************************************

 Orbital symmetries:
       Occupied  (A) (A) (A) (A) (A) (A) (A) (A) (A) (A) (A) (A)
                 (A) (A) (A) (A) (A) (A) (A) (A) (A) (A) (A) (A)
                 (A) (A) (A) (A) (A) (A) (A) (A) (A) (A) (A) (A)
                 (A) (A) (A) (A) (A) (A) (A) (A)
       Virtual   (A) (A) (A) (A) (A) (A) (A) (A) (A) (A) (A) (A)
                 (A) (A) (A) (A) (A) (A) (A) (A) (A) (A) (A) (A)
                 (A) (A) (A) (A) (A) (A) (A) (A) (A) (A) (A) (A)
                 (A) (A) (A) (A) (A) (A) (A) (A) (A) (A) (A) (A)
                 (A) (A) (A) (A) (A) (A) (A) (A) (A) (A) (A) (A)
                 (A) (A) (A) (A) (A) (A) (A) (A) (A) (A) (A) (A)
                 (A) (A) (A) (A) (A) (A) (A) (A) (A) (A) (A) (A)
                 (A) (A)
 The electronic state is 1-A.
 Alpha  occ. eigenvalues -- -145.38347-145.38080 -77.21561 -19.15637 -19.15634
 Alpha  occ. eigenvalues --  -19.14696 -19.12109 -15.45499 -15.45267 -12.58714
 Alpha  occ. eigenvalues --  -12.58682 -12.58536 -12.58439 -12.58428 -12.58309
 Alpha  occ. eigenvalues --   -6.67054  -4.83647  -4.83152  -4.83108  -1.82985
 Alpha  occ. eigenvalues --   -1.82643  -1.11150  -1.10741  -1.10614  -1.10138
 Alpha  occ. eigenvalues --   -1.10112  -1.09781  -1.04567  -0.97433  -0.96880
 Alpha  occ. eigenvalues --   -0.93493  -0.52611  -0.45539  -0.44213  -0.43208
 Alpha  occ. eigenvalues --   -0.42824  -0.36801  -0.33646  -0.32891  -0.32478
 Alpha  occ. eigenvalues --   -0.32099  -0.30003  -0.29397  -0.15400
 Alpha virt. eigenvalues --   -0.08094  -0.04883  -0.04169  -0.03052  -0.00928
 Alpha virt. eigenvalues --   -0.00582   0.00655   0.01075   0.04232   0.06418
 Alpha virt. eigenvalues --    0.09208   0.10512   0.10653   0.12412   0.13432
 Alpha virt. eigenvalues --    0.13598   0.14291   0.16270   0.17099   0.18190
 Alpha virt. eigenvalues --    0.19400   0.19489   0.19841   0.21926   0.23542
 Alpha virt. eigenvalues --    0.28634   0.31067   0.31622   0.33006   0.34677
 Alpha virt. eigenvalues --    0.39307   0.39474   0.41366   0.44161   0.45776
 Alpha virt. eigenvalues --    0.52654   0.64125   0.66944   0.82501   0.85581
 Alpha virt. eigenvalues --    0.88055   0.89172   0.94861   0.97008   0.98935
 Alpha virt. eigenvalues --    1.00057   1.00293   1.08715   1.11471   1.13303
 Alpha virt. eigenvalues --    1.14965   1.17915   1.19094   1.22283   1.33596
 Alpha virt. eigenvalues --    1.36379   1.41507   1.48860   1.61381   1.75359
 Alpha virt. eigenvalues --    1.76237   1.77363   1.78853   1.81795   1.82134
 Alpha virt. eigenvalues --    1.82465   1.87441   1.89040   1.94593   1.95373
 Alpha virt. eigenvalues --    2.02956   2.13222   2.26118   2.27306   2.36107
 Alpha virt. eigenvalues --    2.64652   2.65056   2.69031   2.79609   2.81563
 Alpha virt. eigenvalues --    3.40282   3.41937   3.73427   3.78197   3.87184
 Alpha virt. eigenvalues --    3.92427
          Condensed to atoms (all electrons):
              1          2          3          4          5          6
     1  O    8.272177  -0.023908   0.325479  -0.053192   0.125751  -0.002831
     2  O   -0.023908   7.995217   0.533377  -0.023874   0.007243   0.000119
     3  P    0.325479   0.533377  12.686096   0.325516  -0.013331  -0.001518
     4  O   -0.053192  -0.023874   0.325516   8.272036   0.125704  -0.002826
     5  Ca   0.125751   0.007243  -0.013331   0.125704  18.561324   0.171454
     6  Ca  -0.002831   0.000119  -0.001518  -0.002826   0.171454  19.538233
     7  O   -0.000040   0.000000  -0.000135  -0.000039   0.103859   0.059803
     8  H   -0.000003   0.000000  -0.000018  -0.000002  -0.005143   0.006377
              7          8
     1  O   -0.000040  -0.000003
     2  O    0.000000   0.000000
     3  P   -0.000135  -0.000018
     4  O   -0.000039  -0.000002
     5  Ca   0.103859  -0.005143
     6  Ca   0.059803   0.006377
     7  O    8.394281   0.265835
     8  H    0.265835   0.433320
 Mulliken atomic charges:
              1
     1  O   -0.643434
     2  O   -0.488174
     3  P    1.144533
     4  O   -0.643323
     5  Ca   0.923138
     6  Ca   0.231189
     7  O   -0.823564
     8  H    0.299634
 Sum of Mulliken charges=   0.00000
 Atomic charges with hydrogens summed into heavy atoms:
              1
     1  O   -0.643434
     2  O   -0.488174
     3  P    1.144533
     4  O   -0.643323
     5  Ca   0.923138
     6  Ca   0.231189
     7  O   -0.523930
     8  H    0.000000
 Sum of Mulliken charges=   0.00000
 Electronic spatial extent (au):  <R**2>=  2574.5528
 Charge=     0.0000 electrons
 Dipole moment (field-independent basis, Debye):
    X=     5.8200    Y=    -0.0216    Z=     1.7441  Tot=     6.0757
 Quadrupole moment (field-independent basis, Debye-Ang):
   XX=   -87.6654   YY=   -79.3750   ZZ=   -69.1380
   XY=    -0.0900   XZ=     6.1310   YZ=    -0.1042
 Traceless Quadrupole moment (field-independent basis, Debye-Ang):
   XX=    -8.9393   YY=    -0.6488   ZZ=     9.5881
   XY=    -0.0900   XZ=     6.1310   YZ=    -0.1042
 Octapole moment (field-independent basis, Debye-Ang**2):
  XXX=    43.1509  YYY=    -0.3425  ZZZ=    39.0994  XYY=   -19.4723
  XXY=    -0.4302  XXZ=    34.0537  XZZ=   -41.1771  YZZ=    -0.2846
  YYZ=     9.1247  XYZ=     0.1828
 Hexadecapole moment (field-independent basis, Debye-Ang**3):
 XXXX= -3730.2812 YYYY=  -276.2071 ZZZZ=  -230.2958 XXXY=    -2.2717
 XXXZ=   170.4398 YYYX=    -0.9954 YYYZ=     0.0686 ZZZX=   117.0221
 ZZZY=    -0.2718 XXYY=  -660.6546 XXZZ=  -633.0326 YYZZ=   -87.8632
 XXYZ=    -0.2182 YYXZ=    27.3662 ZZXY=    -0.8161
 N-N= 5.581823761630D+02 E-N=-5.847989743621D+03  KE= 1.992308368010D+03
 Merz-Kollman atomic radii used.
 Read replacement radii for each type of atom:
 Rad(20) =   1.188000000000D+00
 Atom Element Radius
    1     8    1.40
    2     8    1.40
    3    15    1.80
    4     8    1.40
    5    20    1.19
    6    20    1.19
    7     8    1.40
    8     1    1.20

 **********************************************************************

            Electrostatic Properties Using The SCF Density

 **********************************************************************

       Atomic Center    1 is at  -1.774979 -1.242601 -0.063509
       Atomic Center    2 is at  -4.129740 -0.000425 -0.052214
       Atomic Center    3 is at  -2.656790  0.000574 -0.050899
       Atomic Center    4 is at  -1.776030  1.244459 -0.040454
       Atomic Center    5 is at   0.267699  0.001646 -0.081642
       Atomic Center    6 is at   3.829610  0.004529 -0.378567
       Atomic Center    7 is at   2.139320 -0.014343  1.139490
       Atomic Center    8 is at   2.237090 -0.028839  2.101180
     766 points will be used for fitting atomic charges
 Fitting point charges to eletrostatic potential
 Charges from ESP fit, RMS=   0.02480 RRMS=   0.47847:
 Charge=   0.00000 Dipole=    11.3236     0.0127    -2.1565 Tot=    11.5271
              1
     1  O   -0.797803
     2  O   -0.722167
     3  P    1.482799
     4  O   -0.800505
     5  Ca   0.971596
     6  Ca   0.287263
     7  O   -0.601855
     8  H    0.180672
 -----------------------------------------------------------------

              Electrostatic Properties (Atomic Units)

 -----------------------------------------------------------------
    Center     Electric         -------- Electric Field --------
               Potential          X             Y             Z
 -----------------------------------------------------------------
    1 Atom    -22.309567
    2 Atom    -22.321828
    3 Atom    -53.993219
    4 Atom    -22.309526
    5 Atom    -80.159416
    6 Atom    -80.165301
    7 Atom    -22.336649
    8 Atom     -1.011781
 -----------------------------------------------------------------
 1\1\GINC-N041\SP\RB3LYP\6-31G(d,p)\Ca2H1O4P1\TIMN\04-May-2015\0\\# b3l
 yp/6-31G(d,p) pop=(ReadRadii,MK)\\Ca2HPO4_14\\0,1\O,0,-1.77498,-1.2426
 ,-0.063509\O,0,-4.12974,-0.000424,-0.052214\P,0,-2.65679,0.000575,-0.0
 50899\O,0,-1.77603,1.24446,-0.040454\Ca,0,0.267699,0.001646,-0.081642\
 Ca,0,3.82961,0.004528,-0.378567\O,0,2.13932,-0.014343,1.13949\H,0,2.23
 709,-0.028839,2.10118\\Version=EM64T-G03RevE.01\State=1-A\HF=-1998.143
 8638\RMSD=4.087e-05\Thermal=0.\Dipole=2.2897608,-0.0084903,0.6861827\P
 G=C01 [X(Ca2H1O4P1)]\\@


 THOSE WHO ARE UNABLE TO LEARN FROM PAST MEETINGS
 ARE CONDEMNED TO REPEAT THEM.
 Job cpu time:  0 days  0 hours  0 minutes 18.7 seconds.
 File lengths (MBytes):  RWF=     21 Int=      0 D2E=      0 Chk=     10 Scr=      1
 Normal termination of Gaussian 03 at Mon May  4 20:08:27 2015.
