 Entering Gaussian System, Link 0=/home/timn/tmp/g03.e01/g03
 Input=Ca2HPO4_48.xyz.gjf
 Output=Ca2HPO4_48.xyz.out
 Initial command:
 /home/timn/tmp/g03.e01/l1.exe /home/timn/tmp/g03.e01/Gau-14971.inp -scrdir=/home/timn/tmp/g03.e01/
 Default is to use a total of   2 processors:
                                2 via shared-memory
                                1 via Linda
 Entering Link 1 = /home/timn/tmp/g03.e01/l1.exe PID=     14972.
  
 Copyright (c) 1988,1990,1992,1993,1995,1998,2003,2004,2007, Gaussian, Inc.
                  All Rights Reserved.
  
 This is the Gaussian(R) 03 program.  It is based on the
 the Gaussian(R) 98 system (copyright 1998, Gaussian, Inc.),
 the Gaussian(R) 94 system (copyright 1995, Gaussian, Inc.),
 the Gaussian 92(TM) system (copyright 1992, Gaussian, Inc.),
 the Gaussian 90(TM) system (copyright 1990, Gaussian, Inc.),
 the Gaussian 88(TM) system (copyright 1988, Gaussian, Inc.),
 the Gaussian 86(TM) system (copyright 1986, Carnegie Mellon
 University), and the Gaussian 82(TM) system (copyright 1983,
 Carnegie Mellon University). Gaussian is a federally registered
 trademark of Gaussian, Inc.
  
 This software contains proprietary and confidential information,
 including trade secrets, belonging to Gaussian, Inc.
  
 This software is provided under written license and may be
 used, copied, transmitted, or stored only in accord with that
 written license.
  
 The following legend is applicable only to US Government
 contracts under FAR:
  
                    RESTRICTED RIGHTS LEGEND
  
 Use, reproduction and disclosure by the US Government is
 subject to restrictions as set forth in subparagraphs (a)
 and (c) of the Commercial Computer Software - Restricted
 Rights clause in FAR 52.227-19.
  
 Gaussian, Inc.
 340 Quinnipiac St., Bldg. 40, Wallingford CT 06492
  
  
 ---------------------------------------------------------------
 Warning -- This program may not be used in any manner that
 competes with the business of Gaussian, Inc. or will provide
 assistance to any competitor of Gaussian, Inc.  The licensee
 of this program is prohibited from giving any competitor of
 Gaussian, Inc. access to this program.  By using this program,
 the user acknowledges that Gaussian, Inc. is engaged in the
 business of creating and licensing software in the field of
 computational chemistry and represents and warrants to the
 licensee that it is not a competitor of Gaussian, Inc. and that
 it will not use this program in any manner prohibited above.
 ---------------------------------------------------------------
  

 Cite this work as:
 Gaussian 03, Revision E.01,
 M. J. Frisch, G. W. Trucks, H. B. Schlegel, G. E. Scuseria, 
 M. A. Robb, J. R. Cheeseman, J. A. Montgomery, Jr., T. Vreven, 
 K. N. Kudin, J. C. Burant, J. M. Millam, S. S. Iyengar, J. Tomasi, 
 V. Barone, B. Mennucci, M. Cossi, G. Scalmani, N. Rega, 
 G. A. Petersson, H. Nakatsuji, M. Hada, M. Ehara, K. Toyota, 
 R. Fukuda, J. Hasegawa, M. Ishida, T. Nakajima, Y. Honda, O. Kitao, 
 H. Nakai, M. Klene, X. Li, J. E. Knox, H. P. Hratchian, J. B. Cross, 
 V. Bakken, C. Adamo, J. Jaramillo, R. Gomperts, R. E. Stratmann, 
 O. Yazyev, A. J. Austin, R. Cammi, C. Pomelli, J. W. Ochterski, 
 P. Y. Ayala, K. Morokuma, G. A. Voth, P. Salvador, J. J. Dannenberg, 
 V. G. Zakrzewski, S. Dapprich, A. D. Daniels, M. C. Strain, 
 O. Farkas, D. K. Malick, A. D. Rabuck, K. Raghavachari, 
 J. B. Foresman, J. V. Ortiz, Q. Cui, A. G. Baboul, S. Clifford, 
 J. Cioslowski, B. B. Stefanov, G. Liu, A. Liashenko, P. Piskorz, 
 I. Komaromi, R. L. Martin, D. J. Fox, T. Keith, M. A. Al-Laham, 
 C. Y. Peng, A. Nanayakkara, M. Challacombe, P. M. W. Gill, 
 B. Johnson, W. Chen, M. W. Wong, C. Gonzalez, and J. A. Pople, 
 Gaussian, Inc., Wallingford CT, 2004.
 
 ******************************************
 Gaussian 03:  EM64T-G03RevE.01 11-Sep-2007
                 4-May-2015 
 ******************************************
 %nproc=2
 Will use up to    2 processors via shared memory.
 Default route:  MP2=Direct MaxDisk=2000MB
 -------------------------------------
 # b3lyp/6-31G(d,p) pop=(ReadRadii,MK)
 -------------------------------------
 1/38=1/1;
 2/17=6,18=5,40=1/2;
 3/5=1,6=6,7=101,11=2,16=1,25=1,30=1,74=-5/1,2,3;
 4//1;
 5/5=2,32=1,38=5/2;
 6/7=2,8=2,9=2,10=2,15=8,20=101,28=1/1,2;
 99/5=1,9=1/99;
 ----------
 Ca2HPO4_48
 ----------
 Symbolic Z-matrix:
 Charge =  0 Multiplicity = 1
 O                     2.55904   1.24603   0.00038 
 O                     2.55908  -1.246    -0.00046 
 P                     3.47088   0.00003  -0.00025 
 Ca                    0.53129  -0.00003   0.00034 
 O                    -1.55637  -0.00069   0.78854 
 O                    -1.55618   0.00064  -0.78837 
 Ca                   -3.64869   0.00002  -0.00017 
 H                    -5.75971   0.00003  -0.00039 
 
                          Input orientation:                          
 ---------------------------------------------------------------------
 Center     Atomic     Atomic              Coordinates (Angstroms)
 Number     Number      Type              X           Y           Z
 ---------------------------------------------------------------------
    1          8             0        2.559040    1.246030    0.000383
    2          8             0        2.559080   -1.246000   -0.000457
    3         15             0        3.470880    0.000028   -0.000252
    4         20             0        0.531288   -0.000034    0.000336
    5          8             0       -1.556370   -0.000690    0.788542
    6          8             0       -1.556180    0.000638   -0.788371
    7         20             0       -3.648690    0.000023   -0.000167
    8          1             0       -5.759710    0.000031   -0.000385
 ---------------------------------------------------------------------
                    Distance matrix (angstroms):
                    1          2          3          4          5
     1  O    0.000000
     2  O    2.492030   0.000000
     3  P    1.544012   1.544009   0.000000
     4  Ca   2.380011   2.379994   2.939592   0.000000
     5  O    4.371739   4.371527   5.088756   2.231498   0.000000
     6  O    4.371289   4.371531   5.088464   2.231498   1.576914
     7  Ca   6.331544   6.331586   7.119570   4.179978   2.236038
     8  H    8.411547   8.411591   9.230590   6.290998   4.276736
                    6          7          8
     6  O    0.000000
     7  Ca   2.236038   0.000000
     8  H    4.276750   2.111020   0.000000
 Stoichiometry    Ca2HO4P
 Framework group  C1[X(Ca2HO4P)]
 Deg. of freedom    18
 Full point group                 C1
 Largest Abelian subgroup         C1      NOp   1
 Largest concise Abelian subgroup C1      NOp   1
                         Standard orientation:                         
 ---------------------------------------------------------------------
 Center     Atomic     Atomic              Coordinates (Angstroms)
 Number     Number      Type              X           Y           Z
 ---------------------------------------------------------------------
    1          8             0        2.559040    1.246029    0.000383
    2          8             0        2.559080   -1.246001   -0.000457
    3         15             0        3.470880    0.000027   -0.000252
    4         20             0        0.531288   -0.000035    0.000336
    5          8             0       -1.556370   -0.000690    0.788542
    6          8             0       -1.556180    0.000638   -0.788371
    7         20             0       -3.648690    0.000023   -0.000167
    8          1             0       -5.759710    0.000031   -0.000385
 ---------------------------------------------------------------------
 Rotational constants (GHZ):      7.2661140      0.4022905      0.3929751
 Standard basis: 6-31G(d,p) (6D, 7F)
 There are   130 symmetry adapted basis functions of A   symmetry.
 Integral buffers will be    131072 words long.
 Raffenetti 2 integral format.
 Two-electron integral symmetry is turned on.
   130 basis functions,   323 primitive gaussians,   130 cartesian basis functions
    44 alpha electrons       44 beta electrons
       nuclear repulsion energy       560.2641456774 Hartrees.
 NAtoms=    8 NActive=    8 NUniq=    8 SFac= 7.50D-01 NAtFMM=   80 NAOKFM=F Big=F
 One-electron integrals computed using PRISM.
 NBasis=   130 RedAO= T  NBF=   130
 NBsUse=   130 1.00D-06 NBFU=   130
 Harris functional with IExCor=  402 diagonalized for initial guess.
 ExpMin= 2.60D-02 ExpMax= 3.53D+04 ExpMxC= 5.30D+03 IAcc=3 IRadAn=         5 AccDes= 0.00D+00
 HarFok:  IExCor= 402 AccDes= 0.00D+00 IRadAn=         5 IDoV=1
 ScaDFX=  1.000000  1.000000  1.000000  1.000000
 Initial guess orbital symmetries:
       Occupied  (A) (A) (A) (A) (A) (A) (A) (A) (A) (A) (A) (A)
                 (A) (A) (A) (A) (A) (A) (A) (A) (A) (A) (A) (A)
                 (A) (A) (A) (A) (A) (A) (A) (A) (A) (A) (A) (A)
                 (A) (A) (A) (A) (A) (A) (A) (A)
       Virtual   (A) (A) (A) (A) (A) (A) (A) (A) (A) (A) (A) (A)
                 (A) (A) (A) (A) (A) (A) (A) (A) (A) (A) (A) (A)
                 (A) (A) (A) (A) (A) (A) (A) (A) (A) (A) (A) (A)
                 (A) (A) (A) (A) (A) (A) (A) (A) (A) (A) (A) (A)
                 (A) (A) (A) (A) (A) (A) (A) (A) (A) (A) (A) (A)
                 (A) (A) (A) (A) (A) (A) (A) (A) (A) (A) (A) (A)
                 (A) (A) (A) (A) (A) (A) (A) (A) (A) (A) (A) (A)
                 (A) (A)
 The electronic state of the initial guess is 1-A.
 Requested convergence on RMS density matrix=1.00D-04 within 128 cycles.
 Requested convergence on MAX density matrix=1.00D-02.
 Requested convergence on             energy=1.00D-02.
 No special actions if energy rises.
 Keep R1 integrals in memory in canonical form, NReq=    38354270.
 SCF Done:  E(RB+HF-LYP) =  -1998.07639854     A.U. after    6 cycles
             Convg  =    0.1387D-04             -V/T =  2.0029
             S**2   =   0.0000

 **********************************************************************

            Population analysis using the SCF density.

 **********************************************************************

 Orbital symmetries:
       Occupied  (A) (A) (A) (A) (A) (A) (A) (A) (A) (A) (A) (A)
                 (A) (A) (A) (A) (A) (A) (A) (A) (A) (A) (A) (A)
                 (A) (A) (A) (A) (A) (A) (A) (A) (A) (A) (A) (A)
                 (A) (A) (A) (A) (A) (A) (A) (A)
       Virtual   (A) (A) (A) (A) (A) (A) (A) (A) (A) (A) (A) (A)
                 (A) (A) (A) (A) (A) (A) (A) (A) (A) (A) (A) (A)
                 (A) (A) (A) (A) (A) (A) (A) (A) (A) (A) (A) (A)
                 (A) (A) (A) (A) (A) (A) (A) (A) (A) (A) (A) (A)
                 (A) (A) (A) (A) (A) (A) (A) (A) (A) (A) (A) (A)
                 (A) (A) (A) (A) (A) (A) (A) (A) (A) (A) (A) (A)
                 (A) (A) (A) (A) (A) (A) (A) (A) (A) (A) (A) (A)
                 (A) (A)
 The electronic state is 1-A.
 Alpha  occ. eigenvalues -- -145.35002-145.34945 -77.15849 -19.13869 -19.13866
 Alpha  occ. eigenvalues --  -19.11726 -19.11720 -15.42336 -15.42174 -12.55583
 Alpha  occ. eigenvalues --  -12.55525 -12.55389 -12.55377 -12.55272 -12.55171
 Alpha  occ. eigenvalues --   -6.61768  -4.78201  -4.77933  -4.77562  -1.80085
 Alpha  occ. eigenvalues --   -1.79874  -1.08759  -1.08192  -1.07926  -1.07809
 Alpha  occ. eigenvalues --   -1.07714  -1.07071  -1.00242  -0.94402  -0.93700
 Alpha  occ. eigenvalues --   -0.75908  -0.52716  -0.41386  -0.39868  -0.39300
 Alpha  occ. eigenvalues --   -0.35483  -0.34397  -0.32532  -0.30955  -0.29775
 Alpha  occ. eigenvalues --   -0.27416  -0.24228  -0.21412  -0.19877
 Alpha virt. eigenvalues --   -0.06391  -0.04143  -0.02476  -0.02352  -0.01105
 Alpha virt. eigenvalues --    0.00746   0.01356   0.04257   0.05519   0.05667
 Alpha virt. eigenvalues --    0.08285   0.08500   0.11703   0.13730   0.13830
 Alpha virt. eigenvalues --    0.13909   0.15257   0.15747   0.20790   0.20993
 Alpha virt. eigenvalues --    0.21432   0.22526   0.24629   0.27234   0.27369
 Alpha virt. eigenvalues --    0.31470   0.33917   0.34655   0.35092   0.35405
 Alpha virt. eigenvalues --    0.40721   0.41335   0.41790   0.43739   0.46231
 Alpha virt. eigenvalues --    0.50944   0.66882   0.67449   0.75663   0.85957
 Alpha virt. eigenvalues --    0.90251   0.95400   0.96846   1.00344   1.02132
 Alpha virt. eigenvalues --    1.03164   1.03761   1.05110   1.06027   1.14299
 Alpha virt. eigenvalues --    1.15096   1.21946   1.26802   1.27041   1.38641
 Alpha virt. eigenvalues --    1.39419   1.44490   1.48665   1.59508   1.64883
 Alpha virt. eigenvalues --    1.79000   1.81277   1.82299   1.83444   1.84491
 Alpha virt. eigenvalues --    1.85950   1.91040   1.94316   1.97111   1.99419
 Alpha virt. eigenvalues --    2.02963   2.03583   2.14267   2.14939   2.24904
 Alpha virt. eigenvalues --    2.28958   2.29730   2.43183   2.68687   2.77400
 Alpha virt. eigenvalues --    3.03104   3.47165   3.66414   3.72371   3.79666
 Alpha virt. eigenvalues --    3.81225
          Condensed to atoms (all electrons):
              1          2          3          4          5          6
     1  O    8.319482  -0.050069   0.264047   0.114119  -0.000038  -0.000038
     2  O   -0.050069   8.319382   0.264070   0.114127  -0.000038  -0.000038
     3  P    0.264047   0.264070  13.687096   0.042109   0.000011   0.000010
     4  Ca   0.114119   0.114127   0.042109  18.410785   0.105654   0.105646
     5  O   -0.000038  -0.000038   0.000011   0.105654   8.416329  -0.007773
     6  O   -0.000038  -0.000038   0.000010   0.105646  -0.007773   8.416350
     7  Ca   0.000069   0.000069  -0.001232  -0.027030   0.102751   0.102749
     8  H    0.000000   0.000000   0.000000   0.009117  -0.000204  -0.000204
              7          8
     1  O    0.000069   0.000000
     2  O    0.000069   0.000000
     3  P   -0.001232   0.000000
     4  Ca  -0.027030   0.009117
     5  O    0.102751  -0.000204
     6  O    0.102749  -0.000204
     7  Ca  18.553284   0.331188
     8  H    0.331188   0.939149
 Mulliken atomic charges:
              1
     1  O   -0.647572
     2  O   -0.647503
     3  P    0.743890
     4  Ca   1.125473
     5  O   -0.616692
     6  O   -0.616704
     7  Ca   0.938153
     8  H   -0.279044
 Sum of Mulliken charges=   0.00000
 Atomic charges with hydrogens summed into heavy atoms:
              1
     1  O   -0.647572
     2  O   -0.647503
     3  P    0.743890
     4  Ca   1.125473
     5  O   -0.616692
     6  O   -0.616704
     7  Ca   0.659109
     8  H    0.000000
 Sum of Mulliken charges=   0.00000
 Electronic spatial extent (au):  <R**2>=  2549.4617
 Charge=     0.0000 electrons
 Dipole moment (field-independent basis, Debye):
    X=     1.4259    Y=    -0.0004    Z=     0.0017  Tot=     1.4259
 Quadrupole moment (field-independent basis, Debye-Ang):
   XX=  -108.1289   YY=   -68.8471   ZZ=   -62.3126
   XY=    -0.0011   XZ=    -0.0009   YZ=    -0.0002
 Traceless Quadrupole moment (field-independent basis, Debye-Ang):
   XX=   -28.3660   YY=    10.9158   ZZ=    17.4502
   XY=    -0.0011   XZ=    -0.0009   YZ=    -0.0002
 Octapole moment (field-independent basis, Debye-Ang**2):
  XXX=   279.6864  YYY=    -0.0013  ZZZ=     0.0055  XYY=   -21.3017
  XXY=    -0.0031  XXZ=     0.0250  XZZ=    11.5639  YZZ=     0.0000
  YYZ=     0.0024  XYZ=    -0.0143
 Hexadecapole moment (field-independent basis, Debye-Ang**3):
 XXXX= -5406.8673 YYYY=  -196.9093 ZZZZ=  -112.8485 XXXY=     0.0083
 XXXZ=    -0.1553 YYYX=    -0.0019 YYYZ=    -0.0026 ZZZX=    -0.0057
 ZZZY=    -0.0029 XXYY=  -606.4912 XXZZ=  -540.5328 YYZZ=   -50.2936
 XXYZ=    -0.0126 YYXZ=    -0.0015 ZZXY=     0.0000
 N-N= 5.602641456774D+02 E-N=-5.855188866767D+03  KE= 1.992351206684D+03
 Merz-Kollman atomic radii used.
 Read replacement radii for each type of atom:
 Rad(20) =   1.188000000000D+00
 Atom Element Radius
    1     8    1.40
    2     8    1.40
    3    15    1.80
    4    20    1.19
    5     8    1.40
    6     8    1.40
    7    20    1.19
    8     1    1.20

 **********************************************************************

            Electrostatic Properties Using The SCF Density

 **********************************************************************

       Atomic Center    1 is at   2.559040  1.246029  0.000383
       Atomic Center    2 is at   2.559080 -1.246001 -0.000457
       Atomic Center    3 is at   3.470880  0.000027 -0.000252
       Atomic Center    4 is at   0.531288 -0.000035  0.000336
       Atomic Center    5 is at  -1.556370 -0.000690  0.788542
       Atomic Center    6 is at  -1.556180  0.000638 -0.788371
       Atomic Center    7 is at  -3.648690  0.000023 -0.000167
       Atomic Center    8 is at  -5.759710  0.000031 -0.000385
     893 points will be used for fitting atomic charges
 Fitting point charges to eletrostatic potential
 Charges from ESP fit, RMS=   0.00580 RRMS=   0.13233:
 Charge=   0.00000 Dipole=     1.1026     0.0015     0.0015 Tot=     1.1026
              1
     1  O   -0.616437
     2  O   -0.616699
     3  P    0.406164
     4  Ca   1.627818
     5  O   -0.802780
     6  O   -0.802706
     7  Ca   1.537907
     8  H   -0.733266
 -----------------------------------------------------------------

              Electrostatic Properties (Atomic Units)

 -----------------------------------------------------------------
    Center     Electric         -------- Electric Field --------
               Potential          X             Y             Z
 -----------------------------------------------------------------
    1 Atom    -22.327967
    2 Atom    -22.327878
    3 Atom    -54.059217
    4 Atom    -80.192585
    5 Atom    -22.350025
    6 Atom    -22.350039
    7 Atom    -80.193120
    8 Atom     -1.210918
 -----------------------------------------------------------------
 1\1\GINC-N023\SP\RB3LYP\6-31G(d,p)\Ca2H1O4P1\TIMN\04-May-2015\0\\# b3l
 yp/6-31G(d,p) pop=(ReadRadii,MK)\\Ca2HPO4_48\\0,1\O,0,2.55904,1.24603,
 0.000383\O,0,2.55908,-1.246,-0.000457\P,0,3.47088,0.000028,-0.000252\C
 a,0,0.531288,-0.000034,0.000336\O,0,-1.55637,-0.00069,0.788542\O,0,-1.
 55618,0.000638,-0.788371\Ca,0,-3.64869,0.000023,-0.000167\H,0,-5.75971
 ,0.000031,-0.000385\\Version=EM64T-G03RevE.01\State=1-A\HF=-1998.07639
 85\RMSD=1.387e-05\Thermal=0.\Dipole=0.5609855,-0.0001599,0.0006817\PG=
 C01 [X(Ca2H1O4P1)]\\@


 ALTHOUGH J.J. COULD DIAGNOSE THE FAULTS OF AN
 APPARATUS WITH UNCANNY ACCURACY, IT WAS JUST AS
 WELL NOT TO LET HIM HANDLE IT.
   -- GEORGE THOMPSON, ABOUT HIS FATHER
 Job cpu time:  0 days  0 hours  0 minutes 13.9 seconds.
 File lengths (MBytes):  RWF=     21 Int=      0 D2E=      0 Chk=     10 Scr=      1
 Normal termination of Gaussian 03 at Mon May  4 20:08:36 2015.
