 Entering Gaussian System, Link 0=/home/timn/tmp/g03.e01/g03
 Input=Ca2HPO4_13.xyz.gjf
 Output=Ca2HPO4_13.xyz.out
 Initial command:
 /home/timn/tmp/g03.e01/l1.exe /home/timn/tmp/g03.e01/Gau-10181.inp -scrdir=/home/timn/tmp/g03.e01/
 Default is to use a total of   2 processors:
                                2 via shared-memory
                                1 via Linda
 Entering Link 1 = /home/timn/tmp/g03.e01/l1.exe PID=     10182.
  
 Copyright (c) 1988,1990,1992,1993,1995,1998,2003,2004,2007, Gaussian, Inc.
                  All Rights Reserved.
  
 This is the Gaussian(R) 03 program.  It is based on the
 the Gaussian(R) 98 system (copyright 1998, Gaussian, Inc.),
 the Gaussian(R) 94 system (copyright 1995, Gaussian, Inc.),
 the Gaussian 92(TM) system (copyright 1992, Gaussian, Inc.),
 the Gaussian 90(TM) system (copyright 1990, Gaussian, Inc.),
 the Gaussian 88(TM) system (copyright 1988, Gaussian, Inc.),
 the Gaussian 86(TM) system (copyright 1986, Carnegie Mellon
 University), and the Gaussian 82(TM) system (copyright 1983,
 Carnegie Mellon University). Gaussian is a federally registered
 trademark of Gaussian, Inc.
  
 This software contains proprietary and confidential information,
 including trade secrets, belonging to Gaussian, Inc.
  
 This software is provided under written license and may be
 used, copied, transmitted, or stored only in accord with that
 written license.
  
 The following legend is applicable only to US Government
 contracts under FAR:
  
                    RESTRICTED RIGHTS LEGEND
  
 Use, reproduction and disclosure by the US Government is
 subject to restrictions as set forth in subparagraphs (a)
 and (c) of the Commercial Computer Software - Restricted
 Rights clause in FAR 52.227-19.
  
 Gaussian, Inc.
 340 Quinnipiac St., Bldg. 40, Wallingford CT 06492
  
  
 ---------------------------------------------------------------
 Warning -- This program may not be used in any manner that
 competes with the business of Gaussian, Inc. or will provide
 assistance to any competitor of Gaussian, Inc.  The licensee
 of this program is prohibited from giving any competitor of
 Gaussian, Inc. access to this program.  By using this program,
 the user acknowledges that Gaussian, Inc. is engaged in the
 business of creating and licensing software in the field of
 computational chemistry and represents and warrants to the
 licensee that it is not a competitor of Gaussian, Inc. and that
 it will not use this program in any manner prohibited above.
 ---------------------------------------------------------------
  

 Cite this work as:
 Gaussian 03, Revision E.01,
 M. J. Frisch, G. W. Trucks, H. B. Schlegel, G. E. Scuseria, 
 M. A. Robb, J. R. Cheeseman, J. A. Montgomery, Jr., T. Vreven, 
 K. N. Kudin, J. C. Burant, J. M. Millam, S. S. Iyengar, J. Tomasi, 
 V. Barone, B. Mennucci, M. Cossi, G. Scalmani, N. Rega, 
 G. A. Petersson, H. Nakatsuji, M. Hada, M. Ehara, K. Toyota, 
 R. Fukuda, J. Hasegawa, M. Ishida, T. Nakajima, Y. Honda, O. Kitao, 
 H. Nakai, M. Klene, X. Li, J. E. Knox, H. P. Hratchian, J. B. Cross, 
 V. Bakken, C. Adamo, J. Jaramillo, R. Gomperts, R. E. Stratmann, 
 O. Yazyev, A. J. Austin, R. Cammi, C. Pomelli, J. W. Ochterski, 
 P. Y. Ayala, K. Morokuma, G. A. Voth, P. Salvador, J. J. Dannenberg, 
 V. G. Zakrzewski, S. Dapprich, A. D. Daniels, M. C. Strain, 
 O. Farkas, D. K. Malick, A. D. Rabuck, K. Raghavachari, 
 J. B. Foresman, J. V. Ortiz, Q. Cui, A. G. Baboul, S. Clifford, 
 J. Cioslowski, B. B. Stefanov, G. Liu, A. Liashenko, P. Piskorz, 
 I. Komaromi, R. L. Martin, D. J. Fox, T. Keith, M. A. Al-Laham, 
 C. Y. Peng, A. Nanayakkara, M. Challacombe, P. M. W. Gill, 
 B. Johnson, W. Chen, M. W. Wong, C. Gonzalez, and J. A. Pople, 
 Gaussian, Inc., Wallingford CT, 2004.
 
 ******************************************
 Gaussian 03:  EM64T-G03RevE.01 11-Sep-2007
                 4-May-2015 
 ******************************************
 %nproc=2
 Will use up to    2 processors via shared memory.
 Default route:  MP2=Direct MaxDisk=2000MB
 -------------------------------------
 # b3lyp/6-31G(d,p) pop=(ReadRadii,MK)
 -------------------------------------
 1/38=1/1;
 2/17=6,18=5,40=1/2;
 3/5=1,6=6,7=101,11=2,16=1,25=1,30=1,74=-5/1,2,3;
 4//1;
 5/5=2,32=1,38=5/2;
 6/7=2,8=2,9=2,10=2,15=8,20=101,28=1/1,2;
 99/5=1,9=1/99;
 ----------
 Ca2HPO4_13
 ----------
 Symbolic Z-matrix:
 Charge =  0 Multiplicity = 1
 O                    -4.17925  -0.99538   0.38332 
 H                    -4.85239  -0.42615  -0.01772 
 O                    -2.97677  -0.34092  -0.04974 
 O                     1.47837   0.30391   0.39912 
 P                     1.45578   1.85971   0.19691 
 O                     0.05259   2.20931  -0.30017 
 Ca                    2.34308  -1.87736  -0.05137 
 Ca                   -0.94227   0.03311  -0.26844 
 
                          Input orientation:                          
 ---------------------------------------------------------------------
 Center     Atomic     Atomic              Coordinates (Angstroms)
 Number     Number      Type              X           Y           Z
 ---------------------------------------------------------------------
    1          8             0       -4.179250   -0.995380    0.383321
    2          1             0       -4.852390   -0.426150   -0.017722
    3          8             0       -2.976770   -0.340922   -0.049740
    4          8             0        1.478370    0.303914    0.399120
    5         15             0        1.455780    1.859710    0.196912
    6          8             0        0.052588    2.209310   -0.300168
    7         20             0        2.343080   -1.877360   -0.051373
    8         20             0       -0.942270    0.033114   -0.268438
 ---------------------------------------------------------------------
                    Distance matrix (angstroms):
                    1          2          3          4          5
     1  O    0.000000
     2  H    0.968491   0.000000
     3  O    1.435902   1.877828   0.000000
     4  O    5.804918   6.386335   4.523888   0.000000
     5  P    6.319798   6.712990   4.954908   1.569044   0.000000
     6  O    5.352163   5.575324   3.967796   2.480402   1.529136
     7  Ca   6.596032   7.340431   5.537278   2.389273   3.848979
     8  Ca   3.458414   3.944974   2.080125   2.525562   3.050188
                    6          7          8
     6  O    0.000000
     7  Ca   4.691388   0.000000
     8  Ca   2.393027   3.806646   0.000000
 Stoichiometry    Ca2HO4P
 Framework group  C1[X(Ca2HO4P)]
 Deg. of freedom    18
 Full point group                 C1
 Largest Abelian subgroup         C1      NOp   1
 Largest concise Abelian subgroup C1      NOp   1
                         Standard orientation:                         
 ---------------------------------------------------------------------
 Center     Atomic     Atomic              Coordinates (Angstroms)
 Number     Number      Type              X           Y           Z
 ---------------------------------------------------------------------
    1          8             0       -4.179249   -0.995383    0.383321
    2          1             0       -4.852390   -0.426154   -0.017722
    3          8             0       -2.976770   -0.340924   -0.049740
    4          8             0        1.478370    0.303916    0.399120
    5         15             0        1.455778    1.859712    0.196912
    6          8             0        0.052586    2.209311   -0.300168
    7         20             0        2.343082   -1.877357   -0.051373
    8         20             0       -0.942270    0.033114   -0.268438
 ---------------------------------------------------------------------
 Rotational constants (GHZ):      1.4196534      0.6233849      0.4411634
 Standard basis: 6-31G(d,p) (6D, 7F)
 There are   130 symmetry adapted basis functions of A   symmetry.
 Integral buffers will be    131072 words long.
 Raffenetti 2 integral format.
 Two-electron integral symmetry is turned on.
   130 basis functions,   323 primitive gaussians,   130 cartesian basis functions
    44 alpha electrons       44 beta electrons
       nuclear repulsion energy       548.2421473213 Hartrees.
 NAtoms=    8 NActive=    8 NUniq=    8 SFac= 7.50D-01 NAtFMM=   80 NAOKFM=F Big=F
 One-electron integrals computed using PRISM.
 NBasis=   130 RedAO= T  NBF=   130
 NBsUse=   130 1.00D-06 NBFU=   130
 Harris functional with IExCor=  402 diagonalized for initial guess.
 ExpMin= 2.60D-02 ExpMax= 3.53D+04 ExpMxC= 5.30D+03 IAcc=3 IRadAn=         5 AccDes= 0.00D+00
 HarFok:  IExCor= 402 AccDes= 0.00D+00 IRadAn=         5 IDoV=1
 ScaDFX=  1.000000  1.000000  1.000000  1.000000
 Initial guess orbital symmetries:
       Occupied  (A) (A) (A) (A) (A) (A) (A) (A) (A) (A) (A) (A)
                 (A) (A) (A) (A) (A) (A) (A) (A) (A) (A) (A) (A)
                 (A) (A) (A) (A) (A) (A) (A) (A) (A) (A) (A) (A)
                 (A) (A) (A) (A) (A) (A) (A) (A)
       Virtual   (A) (A) (A) (A) (A) (A) (A) (A) (A) (A) (A) (A)
                 (A) (A) (A) (A) (A) (A) (A) (A) (A) (A) (A) (A)
                 (A) (A) (A) (A) (A) (A) (A) (A) (A) (A) (A) (A)
                 (A) (A) (A) (A) (A) (A) (A) (A) (A) (A) (A) (A)
                 (A) (A) (A) (A) (A) (A) (A) (A) (A) (A) (A) (A)
                 (A) (A) (A) (A) (A) (A) (A) (A) (A) (A) (A) (A)
                 (A) (A) (A) (A) (A) (A) (A) (A) (A) (A) (A) (A)
                 (A) (A)
 The electronic state of the initial guess is 1-A.
 Requested convergence on RMS density matrix=1.00D-04 within 128 cycles.
 Requested convergence on MAX density matrix=1.00D-02.
 Requested convergence on             energy=1.00D-02.
 No special actions if energy rises.
 Keep R1 integrals in memory in canonical form, NReq=    38354263.
 EnCoef did     6 forward-backward iterations
 EnCoef did   100 forward-backward iterations
 SCF Done:  E(RB+HF-LYP) =  -1998.00301498     A.U. after    9 cycles
             Convg  =    0.8642D-04             -V/T =  2.0029
             S**2   =   0.0000

 **********************************************************************

            Population analysis using the SCF density.

 **********************************************************************

 Orbital symmetries:
       Occupied  (A) (A) (A) (A) (A) (A) (A) (A) (A) (A) (A) (A)
                 (A) (A) (A) (A) (A) (A) (A) (A) (A) (A) (A) (A)
                 (A) (A) (A) (A) (A) (A) (A) (A) (A) (A) (A) (A)
                 (A) (A) (A) (A) (A) (A) (A) (A)
       Virtual   (A) (A) (A) (A) (A) (A) (A) (A) (A) (A) (A) (A)
                 (A) (A) (A) (A) (A) (A) (A) (A) (A) (A) (A) (A)
                 (A) (A) (A) (A) (A) (A) (A) (A) (A) (A) (A) (A)
                 (A) (A) (A) (A) (A) (A) (A) (A) (A) (A) (A) (A)
                 (A) (A) (A) (A) (A) (A) (A) (A) (A) (A) (A) (A)
                 (A) (A) (A) (A) (A) (A) (A) (A) (A) (A) (A) (A)
                 (A) (A) (A) (A) (A) (A) (A) (A) (A) (A) (A) (A)
                 (A) (A)
 The electronic state is 1-A.
 Alpha  occ. eigenvalues -- -145.38828-145.37775 -77.19418 -19.17849 -19.16960
 Alpha  occ. eigenvalues --  -19.14531 -19.09788 -15.45982 -15.44882 -12.59134
 Alpha  occ. eigenvalues --  -12.59131 -12.59058 -12.58122 -12.58061 -12.57923
 Alpha  occ. eigenvalues --   -6.65255  -4.81689  -4.81442  -4.81025  -1.83249
 Alpha  occ. eigenvalues --   -1.82312  -1.10825  -1.10620  -1.10551  -1.10229
 Alpha  occ. eigenvalues --   -1.10139  -1.09973  -1.03693  -1.02006  -0.97910
 Alpha  occ. eigenvalues --   -0.76904  -0.56867  -0.45603  -0.44811  -0.43347
 Alpha  occ. eigenvalues --   -0.42612  -0.36969  -0.34791  -0.33613  -0.32777
 Alpha  occ. eigenvalues --   -0.31034  -0.21807  -0.17822  -0.15181
 Alpha virt. eigenvalues --   -0.09719  -0.07014  -0.04487  -0.03054  -0.01193
 Alpha virt. eigenvalues --    0.00422   0.01968   0.03127   0.04477   0.05411
 Alpha virt. eigenvalues --    0.07437   0.08754   0.10195   0.10592   0.12601
 Alpha virt. eigenvalues --    0.13300   0.13611   0.16856   0.17103   0.17836
 Alpha virt. eigenvalues --    0.18586   0.19124   0.19405   0.21394   0.22204
 Alpha virt. eigenvalues --    0.25176   0.27328   0.29225   0.30220   0.32903
 Alpha virt. eigenvalues --    0.35633   0.38917   0.40707   0.42589   0.43875
 Alpha virt. eigenvalues --    0.49238   0.63334   0.64253   0.70777   0.82753
 Alpha virt. eigenvalues --    0.84174   0.90615   0.92242   0.93722   0.97098
 Alpha virt. eigenvalues --    0.99405   1.02948   1.06123   1.08544   1.10423
 Alpha virt. eigenvalues --    1.12533   1.18799   1.19997   1.23497   1.28647
 Alpha virt. eigenvalues --    1.35259   1.38848   1.46490   1.56796   1.59449
 Alpha virt. eigenvalues --    1.63802   1.75811   1.78295   1.81129   1.84034
 Alpha virt. eigenvalues --    1.87142   1.89486   1.93319   1.94956   1.99214
 Alpha virt. eigenvalues --    2.08529   2.15182   2.19426   2.43063   2.43660
 Alpha virt. eigenvalues --    2.60537   2.69355   2.74783   2.86346   3.05189
 Alpha virt. eigenvalues --    3.43754   3.45575   3.61337   3.65606   3.73129
 Alpha virt. eigenvalues --    3.87126
          Condensed to atoms (all electrons):
              1          2          3          4          5          6
     1  O    8.015010   0.255063   0.072221   0.000000   0.000000   0.000000
     2  H    0.255063   0.469060  -0.029835   0.000000  -0.000001   0.000000
     3  O    0.072221  -0.029835   8.319972  -0.000032  -0.000146  -0.000076
     4  O    0.000000   0.000000  -0.000032   8.467123   0.225576  -0.046774
     5  P    0.000000  -0.000001  -0.000146   0.225576  13.664505   0.306958
     6  O    0.000000   0.000000  -0.000076  -0.046774   0.306958   8.257385
     7  Ca   0.000004  -0.000247  -0.009205  -0.000146  -0.013558  -0.006184
     8  Ca  -0.002078  -0.009484   0.222269   0.054587   0.022332   0.106541
              7          8
     1  O    0.000004  -0.002078
     2  H   -0.000247  -0.009484
     3  O   -0.009205   0.222269
     4  O   -0.000146   0.054587
     5  P   -0.013558   0.022332
     6  O   -0.006184   0.106541
     7  Ca  19.867255   0.061739
     8  Ca   0.061739  18.520647
 Mulliken atomic charges:
              1
     1  O   -0.340218
     2  H    0.315444
     3  O   -0.575167
     4  O   -0.700333
     5  P    0.794335
     6  O   -0.617850
     7  Ca   0.100342
     8  Ca   1.023447
 Sum of Mulliken charges=   0.00000
 Atomic charges with hydrogens summed into heavy atoms:
              1
     1  O   -0.024775
     2  H    0.000000
     3  O   -0.575167
     4  O   -0.700333
     5  P    0.794335
     6  O   -0.617850
     7  Ca   0.100342
     8  Ca   1.023447
 Sum of Mulliken charges=   0.00000
 Electronic spatial extent (au):  <R**2>=  2271.2860
 Charge=     0.0000 electrons
 Dipole moment (field-independent basis, Debye):
    X=     3.6962    Y=     1.9961    Z=    -0.4865  Tot=     4.2289
 Quadrupole moment (field-independent basis, Debye-Ang):
   XX=   -78.1460   YY=   -83.9655   ZZ=   -70.9690
   XY=    -4.4919   XZ=     5.4659   YZ=    -0.3525
 Traceless Quadrupole moment (field-independent basis, Debye-Ang):
   XX=    -0.4525   YY=    -6.2720   ZZ=     6.7245
   XY=    -4.4919   XZ=     5.4659   YZ=    -0.3525
 Octapole moment (field-independent basis, Debye-Ang**2):
  XXX=   -50.1733  YYY=    56.8148  ZZZ=     7.3010  XYY=   -14.2705
  XXY=    41.6900  XXZ=    -9.7015  XZZ=   -23.0265  YZZ=    22.3023
  YYZ=    11.8817  XYZ=    -8.0391
 Hexadecapole moment (field-independent basis, Debye-Ang**3):
 XXXX= -1894.1358 YYYY= -1237.0402 ZZZZ=  -177.6056 XXXY=    13.6590
 XXXZ=    82.7786 YYYX=   137.1464 YYYZ=   -17.2826 ZZZX=    19.7241
 ZZZY=   -18.4674 XXYY=  -584.0260 XXZZ=  -395.7840 YYZZ=  -222.8125
 XXYZ=    -7.6928 YYXZ=    16.2257 ZZXY=    41.5823
 N-N= 5.482421473213D+02 E-N=-5.828529536772D+03  KE= 1.992206398967D+03
 Merz-Kollman atomic radii used.
 Read replacement radii for each type of atom:
 Rad(20) =   1.188000000000D+00
 Atom Element Radius
    1     8    1.40
    2     1    1.20
    3     8    1.40
    4     8    1.40
    5    15    1.80
    6     8    1.40
    7    20    1.19
    8    20    1.19

 **********************************************************************

            Electrostatic Properties Using The SCF Density

 **********************************************************************

       Atomic Center    1 is at  -4.179249 -0.995383  0.383321
       Atomic Center    2 is at  -4.852390 -0.426154 -0.017722
       Atomic Center    3 is at  -2.976770 -0.340924 -0.049740
       Atomic Center    4 is at   1.478370  0.303916  0.399120
       Atomic Center    5 is at   1.455778  1.859712  0.196912
       Atomic Center    6 is at   0.052586  2.209311 -0.300168
       Atomic Center    7 is at   2.343082 -1.877357 -0.051373
       Atomic Center    8 is at  -0.942270  0.033114 -0.268438
     855 points will be used for fitting atomic charges
 Fitting point charges to eletrostatic potential
 Charges from ESP fit, RMS=   0.02174 RRMS=   0.45555:
 Charge=   0.00000 Dipole=     6.9382    -2.5616    -2.3602 Tot=     7.7635
              1
     1  O   -0.612198
     2  H    0.380231
     3  O   -0.504540
     4  O   -0.205958
     5  P    0.002999
     6  O   -0.321534
     7  Ca   0.223517
     8  Ca   1.037483
 -----------------------------------------------------------------

              Electrostatic Properties (Atomic Units)

 -----------------------------------------------------------------
    Center     Electric         -------- Electric Field --------
               Potential          X             Y             Z
 -----------------------------------------------------------------
    1 Atom    -22.321419
    2 Atom     -1.046035
    3 Atom    -22.364895
    4 Atom    -22.288031
    5 Atom    -54.024035
    6 Atom    -22.297562
    7 Atom    -80.158274
    8 Atom    -80.164896
 -----------------------------------------------------------------
 1\1\GINC-N032\SP\RB3LYP\6-31G(d,p)\Ca2H1O4P1\TIMN\04-May-2015\0\\# b3l
 yp/6-31G(d,p) pop=(ReadRadii,MK)\\Ca2HPO4_13\\0,1\O,0,-4.17925,-0.9953
 8,0.383321\H,0,-4.85239,-0.42615,-0.017722\O,0,-2.97677,-0.340922,-0.0
 4974\O,0,1.47837,0.303914,0.39912\P,0,1.45578,1.85971,0.196912\O,0,0.0
 52588,2.20931,-0.300168\Ca,0,2.34308,-1.87736,-0.051373\Ca,0,-0.94227,
 0.033114,-0.268438\\Version=EM64T-G03RevE.01\State=1-A\HF=-1998.003015
 \RMSD=8.642e-05\Thermal=0.\Dipole=1.4542049,0.7853418,-0.1914219\PG=C0
 1 [X(Ca2H1O4P1)]\\@


 LAWS OF PROGRAMMING DEFINITION:  A WORKING PROGRAM
                                  IS ONE THAT HAS
                                  ONLY UNOBSERVED
                                  BUGS.
 Job cpu time:  0 days  0 hours  0 minutes 17.5 seconds.
 File lengths (MBytes):  RWF=     21 Int=      0 D2E=      0 Chk=     10 Scr=      1
 Normal termination of Gaussian 03 at Mon May  4 20:08:23 2015.
