 Entering Gaussian System, Link 0=/home/timn/tmp/g03.e01/g03
 Input=Ca2HPO4_47.xyz.gjf
 Output=Ca2HPO4_47.xyz.out
 Initial command:
 /home/timn/tmp/g03.e01/l1.exe /home/timn/tmp/g03.e01/Gau-751.inp -scrdir=/home/timn/tmp/g03.e01/
 Default is to use a total of   2 processors:
                                2 via shared-memory
                                1 via Linda
 Entering Link 1 = /home/timn/tmp/g03.e01/l1.exe PID=       752.
  
 Copyright (c) 1988,1990,1992,1993,1995,1998,2003,2004,2007, Gaussian, Inc.
                  All Rights Reserved.
  
 This is the Gaussian(R) 03 program.  It is based on the
 the Gaussian(R) 98 system (copyright 1998, Gaussian, Inc.),
 the Gaussian(R) 94 system (copyright 1995, Gaussian, Inc.),
 the Gaussian 92(TM) system (copyright 1992, Gaussian, Inc.),
 the Gaussian 90(TM) system (copyright 1990, Gaussian, Inc.),
 the Gaussian 88(TM) system (copyright 1988, Gaussian, Inc.),
 the Gaussian 86(TM) system (copyright 1986, Carnegie Mellon
 University), and the Gaussian 82(TM) system (copyright 1983,
 Carnegie Mellon University). Gaussian is a federally registered
 trademark of Gaussian, Inc.
  
 This software contains proprietary and confidential information,
 including trade secrets, belonging to Gaussian, Inc.
  
 This software is provided under written license and may be
 used, copied, transmitted, or stored only in accord with that
 written license.
  
 The following legend is applicable only to US Government
 contracts under FAR:
  
                    RESTRICTED RIGHTS LEGEND
  
 Use, reproduction and disclosure by the US Government is
 subject to restrictions as set forth in subparagraphs (a)
 and (c) of the Commercial Computer Software - Restricted
 Rights clause in FAR 52.227-19.
  
 Gaussian, Inc.
 340 Quinnipiac St., Bldg. 40, Wallingford CT 06492
  
  
 ---------------------------------------------------------------
 Warning -- This program may not be used in any manner that
 competes with the business of Gaussian, Inc. or will provide
 assistance to any competitor of Gaussian, Inc.  The licensee
 of this program is prohibited from giving any competitor of
 Gaussian, Inc. access to this program.  By using this program,
 the user acknowledges that Gaussian, Inc. is engaged in the
 business of creating and licensing software in the field of
 computational chemistry and represents and warrants to the
 licensee that it is not a competitor of Gaussian, Inc. and that
 it will not use this program in any manner prohibited above.
 ---------------------------------------------------------------
  

 Cite this work as:
 Gaussian 03, Revision E.01,
 M. J. Frisch, G. W. Trucks, H. B. Schlegel, G. E. Scuseria, 
 M. A. Robb, J. R. Cheeseman, J. A. Montgomery, Jr., T. Vreven, 
 K. N. Kudin, J. C. Burant, J. M. Millam, S. S. Iyengar, J. Tomasi, 
 V. Barone, B. Mennucci, M. Cossi, G. Scalmani, N. Rega, 
 G. A. Petersson, H. Nakatsuji, M. Hada, M. Ehara, K. Toyota, 
 R. Fukuda, J. Hasegawa, M. Ishida, T. Nakajima, Y. Honda, O. Kitao, 
 H. Nakai, M. Klene, X. Li, J. E. Knox, H. P. Hratchian, J. B. Cross, 
 V. Bakken, C. Adamo, J. Jaramillo, R. Gomperts, R. E. Stratmann, 
 O. Yazyev, A. J. Austin, R. Cammi, C. Pomelli, J. W. Ochterski, 
 P. Y. Ayala, K. Morokuma, G. A. Voth, P. Salvador, J. J. Dannenberg, 
 V. G. Zakrzewski, S. Dapprich, A. D. Daniels, M. C. Strain, 
 O. Farkas, D. K. Malick, A. D. Rabuck, K. Raghavachari, 
 J. B. Foresman, J. V. Ortiz, Q. Cui, A. G. Baboul, S. Clifford, 
 J. Cioslowski, B. B. Stefanov, G. Liu, A. Liashenko, P. Piskorz, 
 I. Komaromi, R. L. Martin, D. J. Fox, T. Keith, M. A. Al-Laham, 
 C. Y. Peng, A. Nanayakkara, M. Challacombe, P. M. W. Gill, 
 B. Johnson, W. Chen, M. W. Wong, C. Gonzalez, and J. A. Pople, 
 Gaussian, Inc., Wallingford CT, 2004.
 
 ******************************************
 Gaussian 03:  EM64T-G03RevE.01 11-Sep-2007
                 4-May-2015 
 ******************************************
 %nproc=2
 Will use up to    2 processors via shared memory.
 Default route:  MP2=Direct MaxDisk=2000MB
 -------------------------------------
 # b3lyp/6-31G(d,p) pop=(ReadRadii,MK)
 -------------------------------------
 1/38=1/1;
 2/17=6,18=5,40=1/2;
 3/5=1,6=6,7=101,11=2,16=1,25=1,30=1,74=-5/1,2,3;
 4//1;
 5/5=2,32=1,38=5/2;
 6/7=2,8=2,9=2,10=2,15=8,20=101,28=1/1,2;
 99/5=1,9=1/99;
 ----------
 Ca2HPO4_47
 ----------
 Symbolic Z-matrix:
 Charge =  0 Multiplicity = 1
 O                     1.47473  -1.36503   0. 
 O                     0.35421  -2.39877   0. 
 O                    -1.91951  -0.867     0. 
 P                    -0.31706  -0.85066   0. 
 Ca                   -2.2345    1.34755   0. 
 O                     0.        0.80217   0. 
 Ca                    2.31556   0.71516   0. 
 H                     3.85916   2.13458   0. 
 
                          Input orientation:                          
 ---------------------------------------------------------------------
 Center     Atomic     Atomic              Coordinates (Angstroms)
 Number     Number      Type              X           Y           Z
 ---------------------------------------------------------------------
    1          8             0        1.474730   -1.365030    0.000000
    2          8             0        0.354205   -2.398770    0.000000
    3          8             0       -1.919510   -0.867000    0.000000
    4         15             0       -0.317061   -0.850662    0.000000
    5         20             0       -2.234500    1.347550    0.000000
    6          8             0        0.000000    0.802168    0.000000
    7         20             0        2.315560    0.715164    0.000000
    8          1             0        3.859160    2.134580    0.000000
 ---------------------------------------------------------------------
                    Distance matrix (angstroms):
                    1          2          3          4          5
     1  O    0.000000
     2  O    1.524531   0.000000
     3  O    3.430583   2.741551   0.000000
     4  P    1.864159   1.687376   1.602532   0.000000
     5  Ca   4.595267   4.553714   2.236839   2.916969   0.000000
     6  O    2.621369   3.220476   2.543745   1.682966   2.300094
     7  Ca   2.243703   3.680149   4.520958   3.063087   4.593796
     8  H    4.234711   5.730268   6.511721   5.133468   6.144274
                    6          7          8
     6  O    0.000000
     7  Ca   2.317194   0.000000
     8  H    4.082700   2.097008   0.000000
 Stoichiometry    Ca2HO4P
 Framework group  CS[SG(Ca2HO4P)]
 Deg. of freedom    13
 Full point group                 CS
 Largest Abelian subgroup         CS      NOp   2
 Largest concise Abelian subgroup C1      NOp   1
                         Standard orientation:                         
 ---------------------------------------------------------------------
 Center     Atomic     Atomic              Coordinates (Angstroms)
 Number     Number      Type              X           Y           Z
 ---------------------------------------------------------------------
    1          8             0        1.474735   -1.365025    0.000000
    2          8             0        0.354212   -2.398768    0.000000
    3          8             0       -1.919506   -0.867003    0.000000
    4         15             0       -0.317057   -0.850661    0.000000
    5         20             0       -2.234501    1.347547    0.000000
    6          8             0        0.000000    0.802169    0.000000
    7         20             0        2.315560    0.715171    0.000000
    8          1             0        3.859157    2.134590    0.000000
 ---------------------------------------------------------------------
 Rotational constants (GHZ):      2.0021638      0.9371759      0.6383678
 Standard basis: 6-31G(d,p) (6D, 7F)
 There are    96 symmetry adapted basis functions of A'  symmetry.
 There are    34 symmetry adapted basis functions of A"  symmetry.
 Integral buffers will be    131072 words long.
 Raffenetti 2 integral format.
 Two-electron integral symmetry is turned on.
   130 basis functions,   323 primitive gaussians,   130 cartesian basis functions
    44 alpha electrons       44 beta electrons
       nuclear repulsion energy       622.0067136742 Hartrees.
 NAtoms=    8 NActive=    8 NUniq=    8 SFac= 7.50D-01 NAtFMM=   80 NAOKFM=F Big=F
 One-electron integrals computed using PRISM.
 NBasis=   130 RedAO= T  NBF=    96    34
 NBsUse=   130 1.00D-06 NBFU=    96    34
 Harris functional with IExCor=  402 diagonalized for initial guess.
 ExpMin= 2.60D-02 ExpMax= 3.53D+04 ExpMxC= 5.30D+03 IAcc=3 IRadAn=         5 AccDes= 0.00D+00
 HarFok:  IExCor= 402 AccDes= 0.00D+00 IRadAn=         5 IDoV=1
 ScaDFX=  1.000000  1.000000  1.000000  1.000000
 Initial guess orbital symmetries:
       Occupied  (A') (A') (A') (A') (A') (A') (A') (A') (A') (A')
                 (A') (A") (A') (A') (A") (A') (A') (A') (A") (A')
                 (A') (A') (A') (A') (A') (A') (A") (A") (A') (A')
                 (A') (A') (A') (A') (A') (A") (A') (A") (A') (A")
                 (A') (A") (A') (A')
       Virtual   (A') (A") (A') (A') (A") (A') (A") (A') (A') (A')
                 (A') (A') (A') (A') (A") (A") (A') (A') (A') (A")
                 (A") (A') (A") (A") (A') (A') (A') (A') (A') (A")
                 (A') (A') (A') (A') (A') (A') (A") (A") (A') (A')
                 (A') (A') (A") (A') (A") (A') (A') (A") (A") (A')
                 (A') (A') (A') (A') (A') (A') (A') (A") (A') (A')
                 (A") (A") (A') (A") (A") (A') (A') (A') (A") (A")
                 (A') (A") (A') (A') (A') (A") (A') (A') (A') (A')
                 (A') (A') (A') (A') (A') (A')
 The electronic state of the initial guess is 1-A'.
 Requested convergence on RMS density matrix=1.00D-04 within 128 cycles.
 Requested convergence on MAX density matrix=1.00D-02.
 Requested convergence on             energy=1.00D-02.
 No special actions if energy rises.
 Keep R1 integrals in memory in canonical form, NReq=    38354313.
 SCF Done:  E(RB+HF-LYP) =  -1997.90108969     A.U. after   10 cycles
             Convg  =    0.2538D-04             -V/T =  2.0029
             S**2   =   0.0000

 **********************************************************************

            Population analysis using the SCF density.

 **********************************************************************

 Orbital symmetries:
       Occupied  (A') (A') (A') (A') (A') (A') (A') (A') (A') (A")
                 (A') (A') (A") (A') (A') (A') (A") (A') (A') (A')
                 (A') (A') (A") (A') (A') (A") (A') (A') (A') (A')
                 (A') (A') (A') (A') (A") (A') (A') (A") (A') (A")
                 (A') (A") (A') (A')
       Virtual   (A') (A") (A') (A") (A') (A") (A') (A') (A') (A')
                 (A') (A') (A") (A') (A") (A') (A') (A') (A') (A")
                 (A") (A') (A") (A") (A') (A') (A') (A") (A') (A')
                 (A') (A') (A') (A') (A') (A') (A") (A") (A') (A')
                 (A') (A') (A") (A') (A") (A') (A") (A') (A") (A')
                 (A') (A') (A') (A') (A') (A') (A') (A") (A') (A')
                 (A") (A") (A") (A') (A') (A") (A') (A') (A") (A")
                 (A') (A') (A") (A') (A') (A") (A') (A') (A') (A')
                 (A') (A') (A') (A') (A') (A')
 The electronic state is 1-A'.
 Alpha  occ. eigenvalues -- -145.39254-145.37655 -77.23862 -19.21843 -19.19060
 Alpha  occ. eigenvalues --  -19.15839 -19.14705 -15.46431 -15.44899 -12.59629
 Alpha  occ. eigenvalues --  -12.59552 -12.59512 -12.58132 -12.58071 -12.57890
 Alpha  occ. eigenvalues --   -6.68075  -4.84439  -4.84418  -4.84227  -1.83879
 Alpha  occ. eigenvalues --   -1.82493  -1.12138  -1.11497  -1.11414  -1.11243
 Alpha  occ. eigenvalues --   -1.10426  -1.10119  -1.08650  -0.98298  -0.94087
 Alpha  occ. eigenvalues --   -0.84790  -0.58388  -0.46821  -0.45709  -0.43923
 Alpha  occ. eigenvalues --   -0.42919  -0.37061  -0.36734  -0.32318  -0.32083
 Alpha  occ. eigenvalues --   -0.29981  -0.26967  -0.21982  -0.15366
 Alpha virt. eigenvalues --   -0.09664  -0.07187  -0.04984  -0.03792  -0.02820
 Alpha virt. eigenvalues --   -0.01334  -0.00989   0.00063   0.01127   0.05136
 Alpha virt. eigenvalues --    0.05516   0.08621   0.10712   0.12286   0.12540
 Alpha virt. eigenvalues --    0.14267   0.14938   0.17192   0.17725   0.18716
 Alpha virt. eigenvalues --    0.19330   0.19481   0.20670   0.21174   0.22774
 Alpha virt. eigenvalues --    0.28772   0.30076   0.33553   0.34320   0.35299
 Alpha virt. eigenvalues --    0.37203   0.38322   0.39689   0.43099   0.43682
 Alpha virt. eigenvalues --    0.48652   0.60485   0.61210   0.73097   0.86752
 Alpha virt. eigenvalues --    0.90074   0.93778   0.94482   0.95941   0.98539
 Alpha virt. eigenvalues --    1.00550   1.03960   1.04337   1.07337   1.10221
 Alpha virt. eigenvalues --    1.12036   1.21002   1.29153   1.32084   1.36336
 Alpha virt. eigenvalues --    1.41989   1.50670   1.53223   1.55343   1.67936
 Alpha virt. eigenvalues --    1.78183   1.79197   1.81531   1.81815   1.83158
 Alpha virt. eigenvalues --    1.83224   1.87509   1.92823   1.97817   1.99232
 Alpha virt. eigenvalues --    2.04820   2.13743   2.13790   2.15011   2.24612
 Alpha virt. eigenvalues --    2.26891   2.40330   2.46695   2.51602   2.73316
 Alpha virt. eigenvalues --    3.03945   3.62412   3.67369   3.71476   3.87017
 Alpha virt. eigenvalues --    3.97304
          Condensed to atoms (all electrons):
              1          2          3          4          5          6
     1  O    8.534737   0.024116   0.003185  -0.095152  -0.016157  -0.017398
     2  O    0.024116   8.259200  -0.006379   0.026421  -0.016900   0.006939
     3  O    0.003185  -0.006379   8.398571   0.172598   0.098399  -0.018439
     4  P   -0.095152   0.026421   0.172598  13.602267   0.185180  -0.086324
     5  Ca  -0.016157  -0.016900   0.098399   0.185180  19.086848   0.047190
     6  O   -0.017398   0.006939  -0.018439  -0.086324   0.047190   8.728988
     7  Ca   0.102907  -0.015974  -0.021932   0.081762   0.061036   0.087021
     8  H   -0.000144   0.000001   0.000000   0.000073  -0.001916  -0.000310
              7          8
     1  O    0.102907  -0.000144
     2  O   -0.015974   0.000001
     3  O   -0.021932   0.000000
     4  P    0.081762   0.000073
     5  Ca   0.061036  -0.001916
     6  O    0.087021  -0.000310
     7  Ca  18.560771   0.336763
     8  H    0.336763   0.955483
 Mulliken atomic charges:
              1
     1  O   -0.536095
     2  O   -0.277424
     3  O   -0.626003
     4  P    1.113174
     5  Ca   0.556319
     6  O   -0.747667
     7  Ca   0.807646
     8  H   -0.289950
 Sum of Mulliken charges=   0.00000
 Atomic charges with hydrogens summed into heavy atoms:
              1
     1  O   -0.536095
     2  O   -0.277424
     3  O   -0.626003
     4  P    1.113174
     5  Ca   0.556319
     6  O   -0.747667
     7  Ca   0.517696
     8  H    0.000000
 Sum of Mulliken charges=   0.00000
 Electronic spatial extent (au):  <R**2>=  1623.1588
 Charge=     0.0000 electrons
 Dipole moment (field-independent basis, Debye):
    X=    -3.3918    Y=     2.2990    Z=     0.0000  Tot=     4.0975
 Quadrupole moment (field-independent basis, Debye-Ang):
   XX=   -80.5978   YY=   -86.8246   ZZ=   -68.3991
   XY=   -18.5639   XZ=     0.0000   YZ=     0.0000
 Traceless Quadrupole moment (field-independent basis, Debye-Ang):
   XX=    -1.9907   YY=    -8.2174   ZZ=    10.2081
   XY=   -18.5639   XZ=     0.0000   YZ=     0.0000
 Octapole moment (field-independent basis, Debye-Ang**2):
  XXX=   -87.9076  YYY=   -44.6795  ZZZ=     0.0000  XYY=   -43.6782
  XXY=   -51.1520  XXZ=     0.0000  XZZ=     7.1716  YZZ=   -10.8686
  YYZ=     0.0000  XYZ=     0.0000
 Hexadecapole moment (field-independent basis, Debye-Ang**3):
 XXXX= -1995.8781 YYYY=  -927.2653 ZZZZ=  -139.6423 XXXY=  -256.5088
 XXXZ=     0.0000 YYYX=   -18.0624 YYYZ=     0.0000 ZZZX=     0.0000
 ZZZY=     0.0000 XXYY=  -570.4201 XXZZ=  -280.8857 YYZZ=  -164.4161
 XXYZ=     0.0000 YYXZ=     0.0000 ZZXY=    18.8124
 N-N= 6.220067136742D+02 E-N=-5.974509576347D+03  KE= 1.992051697026D+03
 Symmetry A'   KE= 1.800957871561D+03
 Symmetry A"   KE= 1.910938254658D+02
 Merz-Kollman atomic radii used.
 Read replacement radii for each type of atom:
 Rad(20) =   1.188000000000D+00
 Atom Element Radius
    1     8    1.40
    2     8    1.40
    3     8    1.40
    4    15    1.80
    5    20    1.19
    6     8    1.40
    7    20    1.19
    8     1    1.20

 **********************************************************************

            Electrostatic Properties Using The SCF Density

 **********************************************************************

       Atomic Center    1 is at   1.474735 -1.365025  0.000000
       Atomic Center    2 is at   0.354212 -2.398768  0.000000
       Atomic Center    3 is at  -1.919506 -0.867003  0.000000
       Atomic Center    4 is at  -0.317057 -0.850661  0.000000
       Atomic Center    5 is at  -2.234501  1.347547  0.000000
       Atomic Center    6 is at   0.000000  0.802169  0.000000
       Atomic Center    7 is at   2.315560  0.715171  0.000000
       Atomic Center    8 is at   3.859157  2.134590  0.000000
     751 points will be used for fitting atomic charges
 Fitting point charges to eletrostatic potential
 Charges from ESP fit, RMS=   0.01567 RRMS=   0.28000:
 Charge=   0.00000 Dipole=    -6.0200     4.5099     0.0000 Tot=     7.5219
              1
     1  O   -0.614446
     2  O   -0.205774
     3  O   -0.676955
     4  P    0.868889
     5  Ca   0.853021
     6  O   -1.023084
     7  Ca   1.602166
     8  H   -0.803817
 -----------------------------------------------------------------

              Electrostatic Properties (Atomic Units)

 -----------------------------------------------------------------
    Center     Electric         -------- Electric Field --------
               Potential          X             Y             Z
 -----------------------------------------------------------------
    1 Atom    -22.279978
    2 Atom    -22.255559
    3 Atom    -22.317920
    4 Atom    -53.972512
    5 Atom    -80.152480
    6 Atom    -22.311539
    7 Atom    -80.166535
    8 Atom     -1.208189
 -----------------------------------------------------------------
 1\1\GINC-N025\SP\RB3LYP\6-31G(d,p)\Ca2H1O4P1\TIMN\04-May-2015\0\\# b3l
 yp/6-31G(d,p) pop=(ReadRadii,MK)\\Ca2HPO4_47\\0,1\O,0,1.47473,-1.36503
 ,0.\O,0,0.354205,-2.39877,0.\O,0,-1.91951,-0.867,0.\P,0,-0.317061,-0.8
 50662,0.\Ca,0,-2.2345,1.34755,0.\O,0,0.,0.802168,0.\Ca,0,2.31556,0.715
 164,0.\H,0,3.85916,2.13458,0.\\Version=EM64T-G03RevE.01\State=1-A'\HF=
 -1997.9010897\RMSD=2.538e-05\Thermal=0.\Dipole=-1.3344251,0.9045084,0.
 \PG=CS [SG(Ca2H1O4P1)]\\@


 NOBODY LOSES ALL THE TIME
 I HAD AN UNCLE NAMED
 SOL WHO WAS A BORN FAILURE AND
 NEARLY EVERYBODY SAID HE SHOULD HAVE GONE
 INTO VAUDEVILLE PERHAPS BECAUSE MY UNCLE SOL COULD
 SING MCCANN HE WAS A DIVER ON XMAS EVE LIKE HELL ITSELF WHICH
 MAY OR MAY NOT ACCOUNT FOR THE FACT THAT MY UNCLE
 SOL INDULGED IN THAT POSSIBLY MOST INEXCUSABLE
 OF ALL TO USE A HIGHFALOOTIN PHRASE
 LUXURIES THAT IS OR TO
 WIT FARMING AND BE
 IT NEEDLESSLY
 ADDED
 MY UNCLE SOL'S FARM
 FAILED BECAUSE THE CHICKENS
 ATE THE VEGETABLES SO
 MY UNCLE SOL HAD A
 CHICKEN FARM TILL THE
 SKUNKS ATE THE CHICKENS WHEN 
 MY UNCLE SOL
 HAD A SKUNK FARM BUT
 THE SKUNKS CAUGHT COLD AND
 DIED AND SO
 MY UNCLE SOL IMITATED THE
 SKUNKS IN A SUBTLE MANNER
 OR BY DROWNING HIMSELF IN THE WATERTANK
 BUT SOMEBODY WHO'D GIVEN MY UNCLE SOL A VICTOR
 VICTROLA AND RECORDS WHILE HE LIVED PRESENTED TO
 HIM UPON THE AUSPICIOUS OCCASION OF HIS DECEASE A
 SCRUMPTIOUS NOT TO MENTION SPLENDIFEROUS FUNERAL WITH
 TALL BOYS IN BLACK GLOVES AND FLOWERS AND EVERYTHING AND
 I REMEMBER WE ALL CRIED LIKE THE MISSOURI
 WHEN MY UNCLE SOL'S COFFIN LURCHED BECAUSE
 SOMEBODY PRESSED A BUTTON
 (AND DOWN WENT
 MY UNCLE
 SOL
 AND STARTED A WORM FARM)
           E. E. CUMMINGS
 Job cpu time:  0 days  0 hours  0 minutes 16.9 seconds.
 File lengths (MBytes):  RWF=     21 Int=      0 D2E=      0 Chk=     10 Scr=      1
 Normal termination of Gaussian 03 at Mon May  4 20:41:35 2015.
