 Entering Gaussian System, Link 0=/home/timn/tmp/g03.e01/g03
 Input=Ca2HPO4_25.xyz.gjf
 Output=Ca2HPO4_25.xyz.out
 Initial command:
 /home/timn/tmp/g03.e01/l1.exe /home/timn/tmp/g03.e01/Gau-16073.inp -scrdir=/home/timn/tmp/g03.e01/
 Default is to use a total of   2 processors:
                                2 via shared-memory
                                1 via Linda
 Entering Link 1 = /home/timn/tmp/g03.e01/l1.exe PID=     16074.
  
 Copyright (c) 1988,1990,1992,1993,1995,1998,2003,2004,2007, Gaussian, Inc.
                  All Rights Reserved.
  
 This is the Gaussian(R) 03 program.  It is based on the
 the Gaussian(R) 98 system (copyright 1998, Gaussian, Inc.),
 the Gaussian(R) 94 system (copyright 1995, Gaussian, Inc.),
 the Gaussian 92(TM) system (copyright 1992, Gaussian, Inc.),
 the Gaussian 90(TM) system (copyright 1990, Gaussian, Inc.),
 the Gaussian 88(TM) system (copyright 1988, Gaussian, Inc.),
 the Gaussian 86(TM) system (copyright 1986, Carnegie Mellon
 University), and the Gaussian 82(TM) system (copyright 1983,
 Carnegie Mellon University). Gaussian is a federally registered
 trademark of Gaussian, Inc.
  
 This software contains proprietary and confidential information,
 including trade secrets, belonging to Gaussian, Inc.
  
 This software is provided under written license and may be
 used, copied, transmitted, or stored only in accord with that
 written license.
  
 The following legend is applicable only to US Government
 contracts under FAR:
  
                    RESTRICTED RIGHTS LEGEND
  
 Use, reproduction and disclosure by the US Government is
 subject to restrictions as set forth in subparagraphs (a)
 and (c) of the Commercial Computer Software - Restricted
 Rights clause in FAR 52.227-19.
  
 Gaussian, Inc.
 340 Quinnipiac St., Bldg. 40, Wallingford CT 06492
  
  
 ---------------------------------------------------------------
 Warning -- This program may not be used in any manner that
 competes with the business of Gaussian, Inc. or will provide
 assistance to any competitor of Gaussian, Inc.  The licensee
 of this program is prohibited from giving any competitor of
 Gaussian, Inc. access to this program.  By using this program,
 the user acknowledges that Gaussian, Inc. is engaged in the
 business of creating and licensing software in the field of
 computational chemistry and represents and warrants to the
 licensee that it is not a competitor of Gaussian, Inc. and that
 it will not use this program in any manner prohibited above.
 ---------------------------------------------------------------
  

 Cite this work as:
 Gaussian 03, Revision E.01,
 M. J. Frisch, G. W. Trucks, H. B. Schlegel, G. E. Scuseria, 
 M. A. Robb, J. R. Cheeseman, J. A. Montgomery, Jr., T. Vreven, 
 K. N. Kudin, J. C. Burant, J. M. Millam, S. S. Iyengar, J. Tomasi, 
 V. Barone, B. Mennucci, M. Cossi, G. Scalmani, N. Rega, 
 G. A. Petersson, H. Nakatsuji, M. Hada, M. Ehara, K. Toyota, 
 R. Fukuda, J. Hasegawa, M. Ishida, T. Nakajima, Y. Honda, O. Kitao, 
 H. Nakai, M. Klene, X. Li, J. E. Knox, H. P. Hratchian, J. B. Cross, 
 V. Bakken, C. Adamo, J. Jaramillo, R. Gomperts, R. E. Stratmann, 
 O. Yazyev, A. J. Austin, R. Cammi, C. Pomelli, J. W. Ochterski, 
 P. Y. Ayala, K. Morokuma, G. A. Voth, P. Salvador, J. J. Dannenberg, 
 V. G. Zakrzewski, S. Dapprich, A. D. Daniels, M. C. Strain, 
 O. Farkas, D. K. Malick, A. D. Rabuck, K. Raghavachari, 
 J. B. Foresman, J. V. Ortiz, Q. Cui, A. G. Baboul, S. Clifford, 
 J. Cioslowski, B. B. Stefanov, G. Liu, A. Liashenko, P. Piskorz, 
 I. Komaromi, R. L. Martin, D. J. Fox, T. Keith, M. A. Al-Laham, 
 C. Y. Peng, A. Nanayakkara, M. Challacombe, P. M. W. Gill, 
 B. Johnson, W. Chen, M. W. Wong, C. Gonzalez, and J. A. Pople, 
 Gaussian, Inc., Wallingford CT, 2004.
 
 ******************************************
 Gaussian 03:  EM64T-G03RevE.01 11-Sep-2007
                 4-May-2015 
 ******************************************
 %nproc=2
 Will use up to    2 processors via shared memory.
 Default route:  MP2=Direct MaxDisk=2000MB
 --------------------------------------------
 # b3lyp/6-31G(d,p) pop=(ReadRadii,MK) scf=qc
 --------------------------------------------
 1/38=1/1;
 2/17=6,18=5,40=1/2;
 3/5=1,6=6,7=101,11=2,16=1,25=1,30=1,74=-5/1,2,3;
 4//1;
 5/5=2,8=3,32=1,38=5/8;
 6/7=2,8=2,9=2,10=2,15=8,20=101,28=1/1,2;
 99/5=1,9=1/99;
 ----------
 Ca2HPO4_25
 ----------
 Symbolic Z-matrix:
 Charge =  0 Multiplicity = 1
 O                    -2.25476   2.66438   0. 
 O                     0.        1.30209   0. 
 O                     3.74309   0.03373   0. 
 O                     3.58254  -1.35143   0. 
 Ca                    1.53072  -0.40201   0. 
 P                    -1.53418   1.36302   0. 
 H                    -0.22636  -1.78902   0. 
 Ca                   -2.39711  -1.59032   0. 
 
                          Input orientation:                          
 ---------------------------------------------------------------------
 Center     Atomic     Atomic              Coordinates (Angstroms)
 Number     Number      Type              X           Y           Z
 ---------------------------------------------------------------------
    1          8             0       -2.254760    2.664380    0.000000
    2          8             0        0.000000    1.302090    0.000000
    3          8             0        3.743090    0.033727    0.000000
    4          8             0        3.582540   -1.351430    0.000000
    5         20             0        1.530720   -0.402007    0.000000
    6         15             0       -1.534180    1.363020    0.000000
    7          1             0       -0.226362   -1.789020    0.000000
    8         20             0       -2.397110   -1.590320    0.000000
 ---------------------------------------------------------------------
                    Distance matrix (angstroms):
                    1          2          3          4          5
     1  O    0.000000
     2  O    2.634346   0.000000
     3  O    6.549392   3.952147   0.000000
     4  O    7.085252   4.458224   1.394430   0.000000
     5  Ca   4.871610   2.290644   2.254871   2.260834   0.000000
     6  P    1.487539   1.535389   5.442113   5.792155   3.536797
     7  H    4.893585   3.099387   4.367946   3.833956   2.238558
     8  Ca   4.257081   3.756617   6.351345   5.984420   4.103649
                    6          7          8
     6  P    0.000000
     7  H    3.412586   0.000000
     8  Ca   3.076827   2.179823   0.000000
 Stoichiometry    Ca2HO4P
 Framework group  CS[SG(Ca2HO4P)]
 Deg. of freedom    13
 Full point group                 CS
 Largest Abelian subgroup         CS      NOp   2
 Largest concise Abelian subgroup C1      NOp   1
                         Standard orientation:                         
 ---------------------------------------------------------------------
 Center     Atomic     Atomic              Coordinates (Angstroms)
 Number     Number      Type              X           Y           Z
 ---------------------------------------------------------------------
    1          8             0       -2.254759    2.664383    0.000000
    2          8             0        0.000000    1.302091    0.000000
    3          8             0        3.743089    0.033725    0.000000
    4          8             0        3.582538   -1.351432    0.000000
    5         20             0        1.530719   -0.402007    0.000000
    6         15             0       -1.534180    1.363023    0.000000
    7          1             0       -0.226365   -1.789018    0.000000
    8         20             0       -2.397112   -1.590317    0.000000
 ---------------------------------------------------------------------
 Rotational constants (GHZ):      1.5878158      0.5453125      0.4059089
 Standard basis: 6-31G(d,p) (6D, 7F)
 There are    96 symmetry adapted basis functions of A'  symmetry.
 There are    34 symmetry adapted basis functions of A"  symmetry.
 Integral buffers will be    131072 words long.
 Raffenetti 2 integral format.
 Two-electron integral symmetry is turned on.
   130 basis functions,   323 primitive gaussians,   130 cartesian basis functions
    44 alpha electrons       44 beta electrons
       nuclear repulsion energy       533.4647412341 Hartrees.
 NAtoms=    8 NActive=    8 NUniq=    8 SFac= 7.50D-01 NAtFMM=   80 NAOKFM=F Big=F
 One-electron integrals computed using PRISM.
 NBasis=   130 RedAO= T  NBF=    96    34
 NBsUse=   130 1.00D-06 NBFU=    96    34
 Harris functional with IExCor=  402 diagonalized for initial guess.
 ExpMin= 2.60D-02 ExpMax= 3.53D+04 ExpMxC= 5.30D+03 IAcc=3 IRadAn=         5 AccDes= 0.00D+00
 HarFok:  IExCor= 402 AccDes= 0.00D+00 IRadAn=         5 IDoV=1
 ScaDFX=  1.000000  1.000000  1.000000  1.000000
 Initial guess orbital symmetries:
       Occupied  (A') (A') (A') (A') (A') (A') (A') (A') (A') (A')
                 (A') (A') (A') (A") (A") (A') (A') (A') (A") (A')
                 (A') (A') (A') (A') (A') (A") (A") (A') (A') (A')
                 (A') (A') (A') (A') (A') (A") (A') (A") (A") (A')
                 (A') (A') (A') (A")
       Virtual   (A") (A') (A') (A') (A") (A') (A") (A') (A') (A')
                 (A') (A') (A') (A') (A") (A") (A') (A') (A') (A")
                 (A") (A') (A") (A') (A") (A') (A') (A') (A') (A")
                 (A') (A') (A') (A') (A') (A') (A") (A") (A') (A')
                 (A') (A') (A") (A') (A") (A") (A') (A') (A') (A")
                 (A') (A') (A') (A') (A') (A') (A') (A') (A") (A')
                 (A") (A') (A") (A") (A') (A') (A') (A") (A") (A')
                 (A") (A") (A') (A') (A') (A') (A") (A') (A') (A')
                 (A') (A') (A') (A') (A') (A')
 The electronic state of the initial guess is 1-A'.
 Keep R1 integrals in memory in canonical form, NReq=    37575864.
 Gradient too large for Newton-Raphson -- use scaled steepest descent instead.
 Gradient too large for Newton-Raphson -- use scaled steepest descent instead.
 Gradient too large for Newton-Raphson -- use scaled steepest descent instead.
 Gradient too large for Newton-Raphson -- use scaled steepest descent instead.
 Gradient too large for Newton-Raphson -- use scaled steepest descent instead.
 Gradient too large for Newton-Raphson -- use scaled steepest descent instead.
 Gradient too large for Newton-Raphson -- use scaled steepest descent instead.
 Gradient too large for Newton-Raphson -- use scaled steepest descent instead.
 Gradient too large for Newton-Raphson -- use scaled steepest descent instead.
 Gradient too large for Newton-Raphson -- use scaled steepest descent instead.
 Gradient too large for Newton-Raphson -- use scaled steepest descent instead.
 Gradient too large for Newton-Raphson -- use scaled steepest descent instead.
 Gradient too large for Newton-Raphson -- use scaled steepest descent instead.
 Gradient too large for Newton-Raphson -- use scaled steepest descent instead.
 Gradient too large for Newton-Raphson -- use scaled steepest descent instead.
 Gradient too large for Newton-Raphson -- use scaled steepest descent instead.
 Gradient too large for Newton-Raphson -- use scaled steepest descent instead.
 Gradient too large for Newton-Raphson -- use scaled steepest descent instead.
 Gradient too large for Newton-Raphson -- use scaled steepest descent instead.
 Gradient too large for Newton-Raphson -- use scaled steepest descent instead.
 Gradient too large for Newton-Raphson -- use scaled steepest descent instead.
 Gradient too large for Newton-Raphson -- use scaled steepest descent instead.
 Gradient too large for Newton-Raphson -- use scaled steepest descent instead.
 Gradient too large for Newton-Raphson -- use scaled steepest descent instead.
 Gradient too large for Newton-Raphson -- use scaled steepest descent instead.
 Gradient too large for Newton-Raphson -- use scaled steepest descent instead.
 Gradient too large for Newton-Raphson -- use scaled steepest descent instead.
 Gradient too large for Newton-Raphson -- use scaled steepest descent instead.
 Gradient too large for Newton-Raphson -- use scaled steepest descent instead.
 Gradient too large for Newton-Raphson -- use scaled steepest descent instead.
 Gradient too large for Newton-Raphson -- use scaled steepest descent instead.
 Gradient too large for Newton-Raphson -- use scaled steepest descent instead.
 Gradient too large for Newton-Raphson -- use scaled steepest descent instead.
 Gradient too large for Newton-Raphson -- use scaled steepest descent instead.
 Gradient too large for Newton-Raphson -- use scaled steepest descent instead.
 Gradient too large for Newton-Raphson -- use scaled steepest descent instead.
 Gradient too large for Newton-Raphson -- use scaled steepest descent instead.
 Gradient too large for Newton-Raphson -- use scaled steepest descent instead.
 Gradient too large for Newton-Raphson -- use scaled steepest descent instead.
 Gradient too large for Newton-Raphson -- use scaled steepest descent instead.
 Gradient too large for Newton-Raphson -- use scaled steepest descent instead.
 Gradient too large for Newton-Raphson -- use scaled steepest descent instead.
 Gradient too large for Newton-Raphson -- use scaled steepest descent instead.
 Gradient too large for Newton-Raphson -- use scaled steepest descent instead.
 Gradient too large for Newton-Raphson -- use scaled steepest descent instead.
 Gradient too large for Newton-Raphson -- use scaled steepest descent instead.
 Gradient too large for Newton-Raphson -- use scaled steepest descent instead.
 Gradient too large for Newton-Raphson -- use scaled steepest descent instead.
 Gradient too large for Newton-Raphson -- use scaled steepest descent instead.
 Gradient too large for Newton-Raphson -- use scaled steepest descent instead.
 Gradient too large for Newton-Raphson -- use scaled steepest descent instead.
 Gradient too large for Newton-Raphson -- use scaled steepest descent instead.
 Gradient too large for Newton-Raphson -- use scaled steepest descent instead.
 Gradient too large for Newton-Raphson -- use scaled steepest descent instead.
 Gradient too large for Newton-Raphson -- use scaled steepest descent instead.
 Gradient too large for Newton-Raphson -- use scaled steepest descent instead.
 Gradient too large for Newton-Raphson -- use scaled steepest descent instead.
 Gradient too large for Newton-Raphson -- use scaled steepest descent instead.
 Gradient too large for Newton-Raphson -- use scaled steepest descent instead.
 Gradient too large for Newton-Raphson -- use scaled steepest descent instead.
 Gradient too large for Newton-Raphson -- use scaled steepest descent instead.
 Gradient too large for Newton-Raphson -- use scaled steepest descent instead.
 Gradient too large for Newton-Raphson -- use scaled steepest descent instead.
 Gradient too large for Newton-Raphson -- use scaled steepest descent instead.
 Gradient too large for Newton-Raphson -- use scaled steepest descent instead.
 Gradient too large for Newton-Raphson -- use scaled steepest descent instead.
 Gradient too large for Newton-Raphson -- use scaled steepest descent instead.
 Gradient too large for Newton-Raphson -- use scaled steepest descent instead.
 Gradient too large for Newton-Raphson -- use scaled steepest descent instead.
 Gradient too large for Newton-Raphson -- use scaled steepest descent instead.
 Gradient too large for Newton-Raphson -- use scaled steepest descent instead.
 LinEq1:  Iter=  0 NonCon=   1 RMS=1.13D-03 Max=6.26D-02
 AX will form   1 AO Fock derivatives at one time.
 LinEq1:  Iter=  1 NonCon=   1 RMS=1.83D-02 Max=1.02D+00
 LinEq1:  Iter=  2 NonCon=   1 RMS=1.88D-03 Max=4.21D-02
 LinEq1:  Iter=  3 NonCon=   1 RMS=1.11D-03 Max=3.11D-02
 LinEq1:  Iter=  4 NonCon=   1 RMS=1.35D-03 Max=4.07D-02
 LinEq1:  Iter=  5 NonCon=   1 RMS=4.97D-04 Max=1.62D-02
 LinEq1:  Iter=  6 NonCon=   1 RMS=6.47D-04 Max=1.33D-02
 LinEq1:  Iter=  7 NonCon=   1 RMS=3.98D-04 Max=1.06D-02
 LinEq1:  Iter=  8 NonCon=   1 RMS=2.35D-04 Max=3.73D-03
 LinEq1:  Iter=  9 NonCon=   1 RMS=7.40D-05 Max=1.54D-03
 LinEq1:  Iter= 10 NonCon=   1 RMS=2.60D-05 Max=5.36D-04
 LinEq1:  Iter= 11 NonCon=   1 RMS=7.65D-06 Max=1.96D-04
 LinEq1:  Iter= 12 NonCon=   1 RMS=1.62D-06 Max=2.37D-05
 LinEq1:  Iter= 13 NonCon=   1 RMS=7.90D-07 Max=4.48D-05
 LinEq1:  Iter= 14 NonCon=   1 RMS=7.22D-07 Max=1.54D-05
 LinEq1:  Iter= 15 NonCon=   1 RMS=1.88D-07 Max=3.44D-06
 LinEq1:  Iter= 16 NonCon=   1 RMS=3.15D-08 Max=8.01D-07
 LinEq1:  Iter= 17 NonCon=   1 RMS=6.16D-09 Max=1.52D-07
 LinEq1:  Iter= 18 NonCon=   0 RMS=1.32D-09 Max=2.63D-08
 Linear equations converged to 8.699D-09 8.699D-08 after  18 iterations.
 LinEq1:  Iter=  0 NonCon=   1 RMS=2.33D-03 Max=1.43D-01
 LinEq1:  Iter=  1 NonCon=   1 RMS=4.20D-03 Max=2.54D-01
 LinEq1:  Iter=  2 NonCon=   1 RMS=8.57D-04 Max=1.90D-02
 LinEq1:  Iter=  3 NonCon=   1 RMS=6.82D-04 Max=1.71D-02
 LinEq1:  Iter=  4 NonCon=   1 RMS=4.89D-04 Max=1.55D-02
 LinEq1:  Iter=  5 NonCon=   1 RMS=4.83D-04 Max=1.45D-02
 LinEq1:  Iter=  6 NonCon=   1 RMS=2.25D-04 Max=6.49D-03
 LinEq1:  Iter=  7 NonCon=   1 RMS=2.76D-04 Max=6.96D-03
 LinEq1:  Iter=  8 NonCon=   1 RMS=6.84D-05 Max=1.32D-03
 LinEq1:  Iter=  9 NonCon=   1 RMS=2.28D-05 Max=4.78D-04
 LinEq1:  Iter= 10 NonCon=   1 RMS=7.93D-06 Max=2.23D-04
 LinEq1:  Iter= 11 NonCon=   1 RMS=1.44D-06 Max=3.87D-05
 LinEq1:  Iter= 12 NonCon=   1 RMS=2.89D-07 Max=5.73D-06
 LinEq1:  Iter= 13 NonCon=   1 RMS=3.89D-08 Max=7.18D-07
 LinEq1:  Iter= 14 NonCon=   1 RMS=1.00D-08 Max=1.74D-07
 LinEq1:  Iter= 15 NonCon=   0 RMS=1.74D-09 Max=3.69D-08
 Linear equations converged to 8.699D-09 8.699D-08 after  15 iterations.
 LinEq1:  Iter=  0 NonCon=   1 RMS=8.77D-05 Max=5.38D-03
 LinEq1:  Iter=  1 NonCon=   1 RMS=2.14D-04 Max=1.30D-02
 LinEq1:  Iter=  2 NonCon=   1 RMS=1.95D-05 Max=2.52D-04
 LinEq1:  Iter=  3 NonCon=   1 RMS=1.47D-05 Max=3.47D-04
 LinEq1:  Iter=  4 NonCon=   1 RMS=1.42D-05 Max=3.05D-04
 LinEq1:  Iter=  5 NonCon=   1 RMS=1.29D-05 Max=2.87D-04
 LinEq1:  Iter=  6 NonCon=   1 RMS=5.85D-06 Max=1.41D-04
 LinEq1:  Iter=  7 NonCon=   1 RMS=6.01D-06 Max=2.24D-04
 LinEq1:  Iter=  8 NonCon=   1 RMS=3.59D-06 Max=6.06D-05
 LinEq1:  Iter=  9 NonCon=   1 RMS=9.52D-07 Max=2.41D-05
 LinEq1:  Iter= 10 NonCon=   1 RMS=1.99D-07 Max=3.63D-06
 LinEq1:  Iter= 11 NonCon=   1 RMS=6.90D-08 Max=1.04D-06
 LinEq1:  Iter= 12 NonCon=   1 RMS=1.89D-08 Max=5.06D-07
 LinEq1:  Iter= 13 NonCon=   1 RMS=3.63D-09 Max=5.28D-08
 LinEq1:  Iter= 14 NonCon=   0 RMS=8.13D-10 Max=1.53D-08
 Linear equations converged to 2.585D-09 2.585D-08 after  14 iterations.
 LinEq1:  Iter=  0 NonCon=   1 RMS=1.12D-07 Max=6.83D-06
 LinEq1:  Iter=  1 NonCon=   1 RMS=2.90D-07 Max=1.05D-05
 LinEq1:  Iter=  2 NonCon=   1 RMS=8.10D-08 Max=2.18D-06
 LinEq1:  Iter=  3 NonCon=   1 RMS=1.16D-07 Max=3.95D-06
 LinEq1:  Iter=  4 NonCon=   1 RMS=9.12D-08 Max=2.14D-06
 LinEq1:  Iter=  5 NonCon=   1 RMS=6.79D-08 Max=1.62D-06
 LinEq1:  Iter=  6 NonCon=   1 RMS=2.91D-08 Max=5.28D-07
 LinEq1:  Iter=  7 NonCon=   1 RMS=2.88D-08 Max=9.60D-07
 LinEq1:  Iter=  8 NonCon=   1 RMS=2.02D-08 Max=4.61D-07
 LinEq1:  Iter=  9 NonCon=   1 RMS=5.54D-09 Max=1.33D-07
 LinEq1:  Iter= 10 NonCon=   1 RMS=1.10D-09 Max=2.35D-08
 LinEq1:  Iter= 11 NonCon=   1 RMS=3.81D-10 Max=8.47D-09
 LinEq1:  Iter= 12 NonCon=   1 RMS=1.18D-10 Max=3.70D-09
 LinEq1:  Iter= 13 NonCon=   0 RMS=1.80D-11 Max=4.80D-10
 Linear equations converged to 1.833D-10 1.833D-09 after  13 iterations.
 LinEq1:  Iter=  0 NonCon=   1 RMS=1.21D-09 Max=7.02D-08
 LinEq1:  Iter=  1 NonCon=   1 RMS=1.03D-08 Max=2.04D-07
 LinEq1:  Iter=  2 NonCon=   1 RMS=8.81D-09 Max=2.88D-07
 LinEq1:  Iter=  3 NonCon=   1 RMS=6.23D-09 Max=1.04D-07
 LinEq1:  Iter=  4 NonCon=   1 RMS=3.87D-09 Max=9.63D-08
 LinEq1:  Iter=  5 NonCon=   1 RMS=2.85D-09 Max=6.35D-08
 LinEq1:  Iter=  6 NonCon=   1 RMS=3.31D-09 Max=1.15D-07
 LinEq1:  Iter=  7 NonCon=   1 RMS=2.46D-09 Max=5.61D-08
 LinEq1:  Iter=  8 NonCon=   1 RMS=7.61D-10 Max=2.03D-08
 LinEq1:  Iter=  9 NonCon=   1 RMS=2.38D-10 Max=8.68D-09
 LinEq1:  Iter= 10 NonCon=   1 RMS=5.01D-11 Max=1.03D-09
 LinEq1:  Iter= 11 NonCon=   1 RMS=1.88D-11 Max=3.01D-10
 LinEq1:  Iter= 12 NonCon=   0 RMS=4.62D-12 Max=1.01D-10
 Linear equations converged to 1.446D-11 1.446D-10 after  12 iterations.
 LinEq1:  Iter=  0 NonCon=   1 RMS=7.96D-10 Max=4.62D-08
 LinEq1:  Iter=  1 NonCon=   1 RMS=6.83D-09 Max=1.37D-07
 LinEq1:  Iter=  2 NonCon=   1 RMS=5.81D-09 Max=1.91D-07
 LinEq1:  Iter=  3 NonCon=   1 RMS=4.12D-09 Max=7.05D-08
 LinEq1:  Iter=  4 NonCon=   1 RMS=2.48D-09 Max=6.26D-08
 LinEq1:  Iter=  5 NonCon=   1 RMS=1.78D-09 Max=3.44D-08
 LinEq1:  Iter=  6 NonCon=   1 RMS=1.96D-09 Max=7.29D-08
 LinEq1:  Iter=  7 NonCon=   1 RMS=1.61D-09 Max=3.67D-08
 LinEq1:  Iter=  8 NonCon=   1 RMS=5.07D-10 Max=1.35D-08
 LinEq1:  Iter=  9 NonCon=   1 RMS=1.59D-10 Max=5.82D-09
 LinEq1:  Iter= 10 NonCon=   1 RMS=3.31D-11 Max=6.67D-10
 LinEq1:  Iter= 11 NonCon=   1 RMS=1.24D-11 Max=2.04D-10
 LinEq1:  Iter= 12 NonCon=   0 RMS=3.00D-12 Max=6.14D-11
 Linear equations converged to 9.613D-12 9.613D-11 after  12 iterations.
 SCF Done:  E(RB+HF-LYP) =  -1997.90423727     a.u. after   78 cycles
            Convg  =    0.3227D-07                   335 Fock formations.
              S**2 =  0.0000                  -V/T =  2.0029

 **********************************************************************

            Population analysis using the SCF density.

 **********************************************************************

 Orbital symmetries:
       Occupied  (A') (A') (A') (A') (A') (A') (A') (A') (A') (A")
                 (A') (A') (A") (A') (A') (A') (A") (A') (A') (A')
                 (A') (A") (A') (A') (A') (A") (A') (A') (A') (A')
                 (A') (A') (A') (A') (A") (A') (A') (A") (A") (A')
                 (A') (A') (A') (A")
       Virtual   (A') (A") (A") (A') (A') (A') (A") (A') (A') (A')
                 (A') (A") (A') (A') (A') (A") (A") (A') (A") (A')
                 (A') (A') (A') (A") (A') (A") (A') (A") (A') (A')
                 (A') (A') (A') (A') (A') (A') (A") (A") (A') (A')
                 (A') (A') (A") (A') (A") (A') (A") (A') (A') (A")
                 (A') (A') (A') (A') (A') (A') (A') (A') (A') (A")
                 (A") (A') (A") (A") (A') (A') (A') (A") (A") (A")
                 (A') (A") (A') (A') (A') (A') (A") (A') (A') (A')
                 (A') (A') (A') (A') (A') (A')
 The electronic state is 1-A'.
 Alpha  occ. eigenvalues -- -145.44792-145.36296 -77.16800 -19.15603 -19.14146
 Alpha  occ. eigenvalues --  -19.12232 -19.11679 -15.51887 -15.43465 -12.65097
 Alpha  occ. eigenvalues --  -12.65031 -12.64965 -12.56734 -12.56611 -12.56488
 Alpha  occ. eigenvalues --   -6.62808  -4.79271  -4.78956  -4.78670  -1.89033
 Alpha  occ. eigenvalues --   -1.80990  -1.16652  -1.16335  -1.15946  -1.09460
 Alpha  occ. eigenvalues --   -1.09107  -1.08495  -1.01336  -0.99517  -0.96140
 Alpha  occ. eigenvalues --   -0.70321  -0.53868  -0.42389  -0.40790  -0.40036
 Alpha  occ. eigenvalues --   -0.36192  -0.33955  -0.32653  -0.32060  -0.31765
 Alpha  occ. eigenvalues --   -0.30370  -0.27464  -0.15424  -0.15029
 Alpha virt. eigenvalues --   -0.13679  -0.08910  -0.04807  -0.04220  -0.02991
 Alpha virt. eigenvalues --   -0.01660   0.00053   0.01518   0.02710   0.05245
 Alpha virt. eigenvalues --    0.06743   0.08137   0.08960   0.10490   0.11550
 Alpha virt. eigenvalues --    0.12756   0.13908   0.14101   0.14736   0.16125
 Alpha virt. eigenvalues --    0.18048   0.19604   0.20210   0.21570   0.23150
 Alpha virt. eigenvalues --    0.23883   0.26325   0.32038   0.33480   0.36900
 Alpha virt. eigenvalues --    0.39343   0.40878   0.43218   0.43937   0.46649
 Alpha virt. eigenvalues --    0.49708   0.64887   0.67603   0.72248   0.84911
 Alpha virt. eigenvalues --    0.88601   0.94811   0.97866   0.98342   0.98966
 Alpha virt. eigenvalues --    1.02924   1.03319   1.04488   1.06003   1.06866
 Alpha virt. eigenvalues --    1.09002   1.15818   1.17349   1.26389   1.32166
 Alpha virt. eigenvalues --    1.37532   1.40389   1.48465   1.59563   1.59801
 Alpha virt. eigenvalues --    1.76613   1.77887   1.80024   1.80643   1.81856
 Alpha virt. eigenvalues --    1.89341   1.93200   1.97662   1.98768   2.06601
 Alpha virt. eigenvalues --    2.06602   2.06926   2.18068   2.19130   2.23243
 Alpha virt. eigenvalues --    2.27891   2.50546   2.51232   2.69014   2.80575
 Alpha virt. eigenvalues --    3.05455   3.44595   3.63004   3.72659   3.74894
 Alpha virt. eigenvalues --    3.77270
          Condensed to atoms (all electrons):
              1          2          3          4          5          6
     1  O    8.081464  -0.023250   0.000000   0.000000  -0.004652   0.421618
     2  O   -0.023250   8.337822  -0.000001  -0.000049   0.120997   0.220949
     3  O    0.000000  -0.000001   8.277672  -0.011291   0.116920   0.000023
     4  O    0.000000  -0.000049  -0.011291   8.301881   0.109005  -0.000038
     5  Ca  -0.004652   0.120997   0.116920   0.109005  18.391935   0.022127
     6  P    0.421618   0.220949   0.000023  -0.000038   0.022127  13.688014
     7  H    0.000015  -0.003125   0.000088  -0.001094   0.143110  -0.012817
     8  Ca   0.001280  -0.013490  -0.001874  -0.000957  -0.035523   0.095494
              7          8
     1  O    0.000015   0.001280
     2  O   -0.003125  -0.013490
     3  O    0.000088  -0.001874
     4  O   -0.001094  -0.000957
     5  Ca   0.143110  -0.035523
     6  P   -0.012817   0.095494
     7  H    1.119485   0.162554
     8  Ca   0.162554  19.189690
 Mulliken atomic charges:
              1
     1  O   -0.476475
     2  O   -0.639852
     3  O   -0.381537
     4  O   -0.397458
     5  Ca   1.136082
     6  P    0.564630
     7  H   -0.408215
     8  Ca   0.602826
 Sum of Mulliken charges=   0.00000
 Atomic charges with hydrogens summed into heavy atoms:
              1
     1  O   -0.476475
     2  O   -0.639852
     3  O   -0.381537
     4  O   -0.397458
     5  Ca   1.136082
     6  P    0.564630
     7  H    0.000000
     8  Ca   0.194611
 Sum of Mulliken charges=   0.00000
 Electronic spatial extent (au):  <R**2>=  2406.5817
 Charge=     0.0000 electrons
 Dipole moment (field-independent basis, Debye):
    X=    -8.2776    Y=    -4.9392    Z=     0.0000  Tot=     9.6392
 Quadrupole moment (field-independent basis, Debye-Ang):
   XX=  -100.4207   YY=   -84.3365   ZZ=   -62.5041
   XY=    19.0333   XZ=     0.0000   YZ=     0.0000
 Traceless Quadrupole moment (field-independent basis, Debye-Ang):
   XX=   -18.0002   YY=    -1.9161   ZZ=    19.9163
   XY=    19.0333   XZ=     0.0000   YZ=     0.0000
 Octapole moment (field-independent basis, Debye-Ang**2):
  XXX=   -99.2369  YYY=     0.4933  ZZZ=     0.0000  XYY=    24.3985
  XXY=     3.4845  XXZ=     0.0000  XZZ=    12.7665  YZZ=     7.4288
  YYZ=     0.0000  XYZ=     0.0000
 Hexadecapole moment (field-independent basis, Debye-Ang**3):
 XXXX= -2910.1551 YYYY= -1075.1346 ZZZZ=   -94.7611 XXXY=   189.3351
 XXXZ=     0.0000 YYYX=   132.0456 YYYZ=     0.0000 ZZZX=     0.0000
 ZZZY=     0.0000 XXYY=  -644.4468 XXZZ=  -386.9007 YYZZ=  -170.2350
 XXYZ=     0.0000 YYXZ=     0.0000 ZZXY=    14.9369
 N-N= 5.334647412341D+02 E-N=-5.798997521077D+03  KE= 1.992139345563D+03
 Symmetry A'   KE= 1.800729299529D+03
 Symmetry A"   KE= 1.914100460331D+02
 Merz-Kollman atomic radii used.
 Read replacement radii for each type of atom:
 Rad(20) =   1.188000000000D+00
 Atom Element Radius
    1     8    1.40
    2     8    1.40
    3     8    1.40
    4     8    1.40
    5    20    1.19
    6    15    1.80
    7     1    1.20
    8    20    1.19

 **********************************************************************

            Electrostatic Properties Using The SCF Density

 **********************************************************************

       Atomic Center    1 is at  -2.254759  2.664383  0.000000
       Atomic Center    2 is at   0.000000  1.302091  0.000000
       Atomic Center    3 is at   3.743089  0.033725  0.000000
       Atomic Center    4 is at   3.582538 -1.351432  0.000000
       Atomic Center    5 is at   1.530719 -0.402007  0.000000
       Atomic Center    6 is at  -1.534180  1.363023  0.000000
       Atomic Center    7 is at  -0.226365 -1.789018  0.000000
       Atomic Center    8 is at  -2.397112 -1.590317  0.000000
     849 points will be used for fitting atomic charges
 Fitting point charges to eletrostatic potential
 Charges from ESP fit, RMS=   0.01357 RRMS=   0.21268:
 Charge=   0.00000 Dipole=   -11.8711    -7.6021     0.0000 Tot=    14.0966
              1
     1  O   -0.435114
     2  O   -0.421012
     3  O   -0.486707
     4  O   -0.501727
     5  Ca   1.456508
     6  P    0.185379
     7  H   -0.595460
     8  Ca   0.798133
 -----------------------------------------------------------------

              Electrostatic Properties (Atomic Units)

 -----------------------------------------------------------------
    Center     Electric         -------- Electric Field --------
               Potential          X             Y             Z
 -----------------------------------------------------------------
    1 Atom    -22.328245
    2 Atom    -22.308599
    3 Atom    -22.348000
    4 Atom    -22.352997
    5 Atom    -80.179151
    6 Atom    -54.046152
    7 Atom     -1.163213
    8 Atom    -80.096339
 -----------------------------------------------------------------
 1\1\GINC-N023\SP\RB3LYP\6-31G(d,p)\Ca2H1O4P1\TIMN\04-May-2015\0\\# b3l
 yp/6-31G(d,p) pop=(ReadRadii,MK) scf=qc\\Ca2HPO4_25\\0,1\O,0,-2.25476,
 2.66438,0.\O,0,0.,1.30209,0.\O,0,3.74309,0.033727,0.\O,0,3.58254,-1.35
 143,0.\Ca,0,1.53072,-0.402007,0.\P,0,-1.53418,1.36302,0.\H,0,-0.226362
 ,-1.78902,0.\Ca,0,-2.39711,-1.59032,0.\\Version=EM64T-G03RevE.01\State
 =1-A'\HF=-1997.9042373\RMSD=0.000e+00\Thermal=0.\Dipole=-3.2566655,-1.
 9432203,0.\PG=CS [SG(Ca2H1O4P1)]\\@


 The juvenile sea squirt wanders through the sea searching
 for a suitable rock or hunk of coral to cling to and make
 its home for life.  For this task it has a rudimentary
 nervous system.  When it finds its spot and takes root, it
 doesn't need its brain any more so it eats it.
 It's rather like getting tenure.

                               -- source unknown
 Job cpu time:  0 days  0 hours  6 minutes 28.7 seconds.
 File lengths (MBytes):  RWF=     17 Int=      0 D2E=      0 Chk=     10 Scr=      1
 Normal termination of Gaussian 03 at Mon May  4 21:05:35 2015.
