 Entering Gaussian System, Link 0=/home/timn/tmp/g03.e01/g03
 Input=Ca2HPO4_73.xyz.gjf
 Output=Ca2HPO4_73.xyz.out
 Initial command:
 /home/timn/tmp/g03.e01/l1.exe /home/timn/tmp/g03.e01/Gau-26984.inp -scrdir=/home/timn/tmp/g03.e01/
 Default is to use a total of   2 processors:
                                2 via shared-memory
                                1 via Linda
 Entering Link 1 = /home/timn/tmp/g03.e01/l1.exe PID=     26985.
  
 Copyright (c) 1988,1990,1992,1993,1995,1998,2003,2004,2007, Gaussian, Inc.
                  All Rights Reserved.
  
 This is the Gaussian(R) 03 program.  It is based on the
 the Gaussian(R) 98 system (copyright 1998, Gaussian, Inc.),
 the Gaussian(R) 94 system (copyright 1995, Gaussian, Inc.),
 the Gaussian 92(TM) system (copyright 1992, Gaussian, Inc.),
 the Gaussian 90(TM) system (copyright 1990, Gaussian, Inc.),
 the Gaussian 88(TM) system (copyright 1988, Gaussian, Inc.),
 the Gaussian 86(TM) system (copyright 1986, Carnegie Mellon
 University), and the Gaussian 82(TM) system (copyright 1983,
 Carnegie Mellon University). Gaussian is a federally registered
 trademark of Gaussian, Inc.
  
 This software contains proprietary and confidential information,
 including trade secrets, belonging to Gaussian, Inc.
  
 This software is provided under written license and may be
 used, copied, transmitted, or stored only in accord with that
 written license.
  
 The following legend is applicable only to US Government
 contracts under FAR:
  
                    RESTRICTED RIGHTS LEGEND
  
 Use, reproduction and disclosure by the US Government is
 subject to restrictions as set forth in subparagraphs (a)
 and (c) of the Commercial Computer Software - Restricted
 Rights clause in FAR 52.227-19.
  
 Gaussian, Inc.
 340 Quinnipiac St., Bldg. 40, Wallingford CT 06492
  
  
 ---------------------------------------------------------------
 Warning -- This program may not be used in any manner that
 competes with the business of Gaussian, Inc. or will provide
 assistance to any competitor of Gaussian, Inc.  The licensee
 of this program is prohibited from giving any competitor of
 Gaussian, Inc. access to this program.  By using this program,
 the user acknowledges that Gaussian, Inc. is engaged in the
 business of creating and licensing software in the field of
 computational chemistry and represents and warrants to the
 licensee that it is not a competitor of Gaussian, Inc. and that
 it will not use this program in any manner prohibited above.
 ---------------------------------------------------------------
  

 Cite this work as:
 Gaussian 03, Revision E.01,
 M. J. Frisch, G. W. Trucks, H. B. Schlegel, G. E. Scuseria, 
 M. A. Robb, J. R. Cheeseman, J. A. Montgomery, Jr., T. Vreven, 
 K. N. Kudin, J. C. Burant, J. M. Millam, S. S. Iyengar, J. Tomasi, 
 V. Barone, B. Mennucci, M. Cossi, G. Scalmani, N. Rega, 
 G. A. Petersson, H. Nakatsuji, M. Hada, M. Ehara, K. Toyota, 
 R. Fukuda, J. Hasegawa, M. Ishida, T. Nakajima, Y. Honda, O. Kitao, 
 H. Nakai, M. Klene, X. Li, J. E. Knox, H. P. Hratchian, J. B. Cross, 
 V. Bakken, C. Adamo, J. Jaramillo, R. Gomperts, R. E. Stratmann, 
 O. Yazyev, A. J. Austin, R. Cammi, C. Pomelli, J. W. Ochterski, 
 P. Y. Ayala, K. Morokuma, G. A. Voth, P. Salvador, J. J. Dannenberg, 
 V. G. Zakrzewski, S. Dapprich, A. D. Daniels, M. C. Strain, 
 O. Farkas, D. K. Malick, A. D. Rabuck, K. Raghavachari, 
 J. B. Foresman, J. V. Ortiz, Q. Cui, A. G. Baboul, S. Clifford, 
 J. Cioslowski, B. B. Stefanov, G. Liu, A. Liashenko, P. Piskorz, 
 I. Komaromi, R. L. Martin, D. J. Fox, T. Keith, M. A. Al-Laham, 
 C. Y. Peng, A. Nanayakkara, M. Challacombe, P. M. W. Gill, 
 B. Johnson, W. Chen, M. W. Wong, C. Gonzalez, and J. A. Pople, 
 Gaussian, Inc., Wallingford CT, 2004.
 
 ******************************************
 Gaussian 03:  EM64T-G03RevE.01 11-Sep-2007
                 4-May-2015 
 ******************************************
 %nproc=2
 Will use up to    2 processors via shared memory.
 Default route:  MP2=Direct MaxDisk=2000MB
 -------------------------------------
 # b3lyp/6-31G(d,p) pop=(ReadRadii,MK)
 -------------------------------------
 1/38=1/1;
 2/17=6,18=5,40=1/2;
 3/5=1,6=6,7=101,11=2,16=1,25=1,30=1,74=-5/1,2,3;
 4//1;
 5/5=2,32=1,38=5/2;
 6/7=2,8=2,9=2,10=2,15=8,20=101,28=1/1,2;
 99/5=1,9=1/99;
 ----------
 Ca2HPO4_73
 ----------
 Symbolic Z-matrix:
 Charge =  0 Multiplicity = 1
 O                    -1.3067    0.7123    1.26574 
 O                     0.78507   0.70623  -0.11648 
 P                    -0.64848   1.43994   0.03886 
 Ca                    2.87831  -0.10339  -0.13516 
 Ca                   -0.43681  -1.34262   0.35126 
 O                    -1.44573   0.09339  -1.2298 
 O                    -2.58077  -0.59848  -0.55866 
 H                    -2.71785   0.01358   0.20869 
 
                          Input orientation:                          
 ---------------------------------------------------------------------
 Center     Atomic     Atomic              Coordinates (Angstroms)
 Number     Number      Type              X           Y           Z
 ---------------------------------------------------------------------
    1          8             0       -1.306700    0.712297    1.265740
    2          8             0        0.785073    0.706225   -0.116484
    3         15             0       -0.648481    1.439940    0.038863
    4         20             0        2.878310   -0.103386   -0.135163
    5         20             0       -0.436810   -1.342620    0.351264
    6          8             0       -1.445730    0.093385   -1.229800
    7          8             0       -2.580770   -0.598479   -0.558658
    8          1             0       -2.717850    0.013584    0.208685
 ---------------------------------------------------------------------
                    Distance matrix (angstroms):
                    1          2          3          4          5
     1  O    0.000000
     2  O    2.507208   0.000000
     3  P    1.570969   1.617884   0.000000
     4  Ca   4.488004   2.244429   3.853621   0.000000
     5  Ca   2.411568   2.430957   2.808031   3.572441   0.000000
     6  O    2.574898   2.567397   2.014528   4.464781   2.362159
     7  O    2.582599   3.636849   2.871572   5.497820   2.445050
     8  H    1.896552   3.585520   2.519051   5.607934   2.657586
                    6          7          8
     6  O    0.000000
     7  O    1.489101   0.000000
     8  H    1.921951   0.991074   0.000000
 Stoichiometry    Ca2HO4P
 Framework group  C1[X(Ca2HO4P)]
 Deg. of freedom    18
 Full point group                 C1
 Largest Abelian subgroup         C1      NOp   1
 Largest concise Abelian subgroup C1      NOp   1
                         Standard orientation:                         
 ---------------------------------------------------------------------
 Center     Atomic     Atomic              Coordinates (Angstroms)
 Number     Number      Type              X           Y           Z
 ---------------------------------------------------------------------
    1          8             0       -1.306699    0.712297    1.265740
    2          8             0        0.785074    0.706225   -0.116484
    3         15             0       -0.648480    1.439940    0.038863
    4         20             0        2.878311   -0.103386   -0.135163
    5         20             0       -0.436809   -1.342620    0.351264
    6          8             0       -1.445729    0.093385   -1.229800
    7          8             0       -2.580769   -0.598479   -0.558658
    8          1             0       -2.717849    0.013584    0.208685
 ---------------------------------------------------------------------
 Rotational constants (GHZ):      2.3033511      0.8464453      0.7272490
 Standard basis: 6-31G(d,p) (6D, 7F)
 There are   130 symmetry adapted basis functions of A   symmetry.
 Integral buffers will be    131072 words long.
 Raffenetti 2 integral format.
 Two-electron integral symmetry is turned on.
   130 basis functions,   323 primitive gaussians,   130 cartesian basis functions
    44 alpha electrons       44 beta electrons
       nuclear repulsion energy       625.5822250188 Hartrees.
 NAtoms=    8 NActive=    8 NUniq=    8 SFac= 7.50D-01 NAtFMM=   80 NAOKFM=F Big=F
 One-electron integrals computed using PRISM.
 NBasis=   130 RedAO= T  NBF=   130
 NBsUse=   130 1.00D-06 NBFU=   130
 Harris functional with IExCor=  402 diagonalized for initial guess.
 ExpMin= 2.60D-02 ExpMax= 3.53D+04 ExpMxC= 5.30D+03 IAcc=3 IRadAn=         5 AccDes= 0.00D+00
 HarFok:  IExCor= 402 AccDes= 0.00D+00 IRadAn=         5 IDoV=1
 ScaDFX=  1.000000  1.000000  1.000000  1.000000
 Initial guess orbital symmetries:
       Occupied  (A) (A) (A) (A) (A) (A) (A) (A) (A) (A) (A) (A)
                 (A) (A) (A) (A) (A) (A) (A) (A) (A) (A) (A) (A)
                 (A) (A) (A) (A) (A) (A) (A) (A) (A) (A) (A) (A)
                 (A) (A) (A) (A) (A) (A) (A) (A)
       Virtual   (A) (A) (A) (A) (A) (A) (A) (A) (A) (A) (A) (A)
                 (A) (A) (A) (A) (A) (A) (A) (A) (A) (A) (A) (A)
                 (A) (A) (A) (A) (A) (A) (A) (A) (A) (A) (A) (A)
                 (A) (A) (A) (A) (A) (A) (A) (A) (A) (A) (A) (A)
                 (A) (A) (A) (A) (A) (A) (A) (A) (A) (A) (A) (A)
                 (A) (A) (A) (A) (A) (A) (A) (A) (A) (A) (A) (A)
                 (A) (A) (A) (A) (A) (A) (A) (A) (A) (A) (A) (A)
                 (A) (A)
 The electronic state of the initial guess is 1-A.
 Requested convergence on RMS density matrix=1.00D-04 within 128 cycles.
 Requested convergence on MAX density matrix=1.00D-02.
 Requested convergence on             energy=1.00D-02.
 No special actions if energy rises.
 Keep R1 integrals in memory in canonical form, NReq=    38354263.
 SCF Done:  E(RB+HF-LYP) =  -1998.01604376     A.U. after    8 cycles
             Convg  =    0.5864D-04             -V/T =  2.0029
             S**2   =   0.0000

 **********************************************************************

            Population analysis using the SCF density.

 **********************************************************************

 Orbital symmetries:
       Occupied  (A) (A) (A) (A) (A) (A) (A) (A) (A) (A) (A) (A)
                 (A) (A) (A) (A) (A) (A) (A) (A) (A) (A) (A) (A)
                 (A) (A) (A) (A) (A) (A) (A) (A) (A) (A) (A) (A)
                 (A) (A) (A) (A) (A) (A) (A) (A)
       Virtual   (A) (A) (A) (A) (A) (A) (A) (A) (A) (A) (A) (A)
                 (A) (A) (A) (A) (A) (A) (A) (A) (A) (A) (A) (A)
                 (A) (A) (A) (A) (A) (A) (A) (A) (A) (A) (A) (A)
                 (A) (A) (A) (A) (A) (A) (A) (A) (A) (A) (A) (A)
                 (A) (A) (A) (A) (A) (A) (A) (A) (A) (A) (A) (A)
                 (A) (A) (A) (A) (A) (A) (A) (A) (A) (A) (A) (A)
                 (A) (A) (A) (A) (A) (A) (A) (A) (A) (A) (A) (A)
                 (A) (A)
 The electronic state is 1-A.
 Alpha  occ. eigenvalues -- -145.39028-145.38773 -77.14469 -19.20543 -19.17544
 Alpha  occ. eigenvalues --  -19.11836 -19.10158 -15.46089 -15.45914 -12.59274
 Alpha  occ. eigenvalues --  -12.59254 -12.59198 -12.59087 -12.59083 -12.58968
 Alpha  occ. eigenvalues --   -6.59945  -4.76386  -4.76187  -4.75693  -1.83452
 Alpha  occ. eigenvalues --   -1.83200  -1.12288  -1.11244  -1.10935  -1.10683
 Alpha  occ. eigenvalues --   -1.10592  -1.10389  -1.06736  -0.96880  -0.91442
 Alpha  occ. eigenvalues --   -0.84878  -0.54239  -0.49817  -0.42569  -0.41172
 Alpha  occ. eigenvalues --   -0.39636  -0.36950  -0.35170  -0.30737  -0.28798
 Alpha  occ. eigenvalues --   -0.27615  -0.25358  -0.23323  -0.15148
 Alpha virt. eigenvalues --   -0.09089  -0.04020  -0.03782  -0.01793  -0.00771
 Alpha virt. eigenvalues --   -0.00026   0.01558   0.03203   0.04550   0.04761
 Alpha virt. eigenvalues --    0.07613   0.08671   0.10538   0.11302   0.12725
 Alpha virt. eigenvalues --    0.13213   0.14569   0.15629   0.17048   0.17831
 Alpha virt. eigenvalues --    0.18656   0.19581   0.20098   0.21168   0.24093
 Alpha virt. eigenvalues --    0.29187   0.30358   0.31504   0.33626   0.37035
 Alpha virt. eigenvalues --    0.37858   0.40663   0.43214   0.45025   0.45579
 Alpha virt. eigenvalues --    0.50427   0.64894   0.69623   0.77822   0.80098
 Alpha virt. eigenvalues --    0.83380   0.90707   0.94025   0.97637   1.01883
 Alpha virt. eigenvalues --    1.04122   1.06280   1.10026   1.13558   1.15108
 Alpha virt. eigenvalues --    1.16285   1.17662   1.24821   1.29591   1.35742
 Alpha virt. eigenvalues --    1.43766   1.48637   1.57459   1.58513   1.63588
 Alpha virt. eigenvalues --    1.69505   1.81712   1.83473   1.85642   1.85854
 Alpha virt. eigenvalues --    1.86816   1.89043   1.92327   1.96819   2.00198
 Alpha virt. eigenvalues --    2.11138   2.14634   2.16673   2.33019   2.36007
 Alpha virt. eigenvalues --    2.59963   2.67408   2.75807   2.82323   3.02790
 Alpha virt. eigenvalues --    3.42663   3.55411   3.67277   3.79742   3.89139
 Alpha virt. eigenvalues --    4.03589
          Condensed to atoms (all electrons):
              1          2          3          4          5          6
     1  O    8.380684  -0.042197   0.261010  -0.010777   0.152275  -0.031679
     2  O   -0.042197   8.501269   0.211351   0.078029   0.074408  -0.026420
     3  P    0.261010   0.211351  13.528038  -0.003985   0.005639   0.076367
     4  Ca  -0.010777   0.078029  -0.003985  19.432657   0.148163  -0.002659
     5  Ca   0.152275   0.074408   0.005639   0.148163  18.749868   0.067390
     6  O   -0.031679  -0.026420   0.076367  -0.002659   0.067390   8.375283
     7  O   -0.028464   0.000793   0.000681   0.000407   0.073130   0.013877
     8  H    0.055719   0.000356  -0.006182  -0.000011  -0.004124  -0.020013
              7          8
     1  O   -0.028464   0.055719
     2  O    0.000793   0.000356
     3  P    0.000681  -0.006182
     4  Ca   0.000407  -0.000011
     5  Ca   0.073130  -0.004124
     6  O    0.013877  -0.020013
     7  O    8.091921   0.223293
     8  H    0.223293   0.407522
 Mulliken atomic charges:
              1
     1  O   -0.736571
     2  O   -0.797589
     3  P    0.927081
     4  Ca   0.358174
     5  Ca   0.733251
     6  O   -0.452146
     7  O   -0.375638
     8  H    0.343439
 Sum of Mulliken charges=   0.00000
 Atomic charges with hydrogens summed into heavy atoms:
              1
     1  O   -0.736571
     2  O   -0.797589
     3  P    0.927081
     4  Ca   0.358174
     5  Ca   0.733251
     6  O   -0.452146
     7  O   -0.032199
     8  H    0.000000
 Sum of Mulliken charges=   0.00000
 Electronic spatial extent (au):  <R**2>=  1523.9561
 Charge=     0.0000 electrons
 Dipole moment (field-independent basis, Debye):
    X=     2.2769    Y=    -2.6989    Z=     1.0792  Tot=     3.6923
 Quadrupole moment (field-independent basis, Debye-Ang):
   XX=   -72.9700   YY=   -70.6495   ZZ=   -78.1917
   XY=    11.9086   XZ=    -5.1400   YZ=    -3.5930
 Traceless Quadrupole moment (field-independent basis, Debye-Ang):
   XX=     0.9671   YY=     3.2875   ZZ=    -4.2546
   XY=    11.9086   XZ=    -5.1400   YZ=    -3.5930
 Octapole moment (field-independent basis, Debye-Ang**2):
  XXX=   -52.1531  YYY=    13.4145  ZZZ=    -4.5805  XYY=   -37.2144
  XXY=    32.4018  XXZ=     3.0587  XZZ=   -12.2717  YZZ=     2.7331
  YYZ=     1.7650  XYZ=     7.5466
 Hexadecapole moment (field-independent basis, Debye-Ang**3):
 XXXX= -1693.9087 YYYY=  -594.4315 ZZZZ=  -297.1380 XXXY=   116.0125
 XXXZ=   -39.8133 YYYX=    98.7252 YYYZ=     8.0578 ZZZX=    -0.6917
 ZZZY=    -1.9883 XXYY=  -400.3862 XXZZ=  -347.4885 YYZZ=  -142.6467
 XXYZ=    -8.3703 YYXZ=    -4.4969 ZZXY=    31.8828
 N-N= 6.255822250188D+02 E-N=-5.983576101629D+03  KE= 1.992147472783D+03
 Merz-Kollman atomic radii used.
 Read replacement radii for each type of atom:
 Rad(20) =   1.188000000000D+00
 Atom Element Radius
    1     8    1.40
    2     8    1.40
    3    15    1.80
    4    20    1.19
    5    20    1.19
    6     8    1.40
    7     8    1.40
    8     1    1.20

 **********************************************************************

            Electrostatic Properties Using The SCF Density

 **********************************************************************

       Atomic Center    1 is at  -1.306699  0.712297  1.265740
       Atomic Center    2 is at   0.785074  0.706225 -0.116484
       Atomic Center    3 is at  -0.648480  1.439940  0.038863
       Atomic Center    4 is at   2.878311 -0.103386 -0.135163
       Atomic Center    5 is at  -0.436809 -1.342620  0.351264
       Atomic Center    6 is at  -1.445729  0.093385 -1.229800
       Atomic Center    7 is at  -2.580769 -0.598479 -0.558658
       Atomic Center    8 is at  -2.717849  0.013584  0.208685
     681 points will be used for fitting atomic charges
 Fitting point charges to eletrostatic potential
 Charges from ESP fit, RMS=   0.03001 RRMS=   0.51582:
 Charge=   0.00000 Dipole=     7.0015    -6.9091     1.6032 Tot=     9.9663
              1
     1  O   -0.606380
     2  O   -0.148663
     3  P   -0.007169
     4  Ca   0.265830
     5  Ca   0.832877
     6  O   -0.372455
     7  O   -0.471871
     8  H    0.507831
 -----------------------------------------------------------------

              Electrostatic Properties (Atomic Units)

 -----------------------------------------------------------------
    Center     Electric         -------- Electric Field --------
               Potential          X             Y             Z
 -----------------------------------------------------------------
    1 Atom    -22.365757
    2 Atom    -22.343942
    3 Atom    -54.071388
    4 Atom    -80.157249
    5 Atom    -80.152963
    6 Atom    -22.298156
    7 Atom    -22.261149
    8 Atom     -0.984534
 -----------------------------------------------------------------
 1\1\GINC-N034\SP\RB3LYP\6-31G(d,p)\Ca2H1O4P1\TIMN\04-May-2015\0\\# b3l
 yp/6-31G(d,p) pop=(ReadRadii,MK)\\Ca2HPO4_73\\0,1\O,0,-1.3067,0.712297
 ,1.26574\O,0,0.785073,0.706225,-0.116484\P,0,-0.648481,1.43994,0.03886
 3\Ca,0,2.87831,-0.103386,-0.135163\Ca,0,-0.43681,-1.34262,0.351264\O,0
 ,-1.44573,0.093385,-1.2298\O,0,-2.58077,-0.598479,-0.558658\H,0,-2.717
 85,0.013584,0.208685\\Version=EM64T-G03RevE.01\State=1-A\HF=-1998.0160
 438\RMSD=5.864e-05\Thermal=0.\Dipole=0.8957927,-1.0618446,0.4245838\PG
 =C01 [X(Ca2H1O4P1)]\\@


 "WOULD YOU TELL ME PLEASE, WHICH WAY I OUGHT TO WALK FROM HERE?"
 "THAT DEPENDS A GREAT DEAL ON WHERE YOU WANT TO GO," SAID THE CAT.
 "I DON'T MUCH CARE WHERE -- ", SAID ALICE.
 "THEN IT DOESN'T MATTER WHICH WAY YOU WALK," SAID THE CAT.

                                      -- LEWIS CARROLL
 Job cpu time:  0 days  0 hours  0 minutes 19.0 seconds.
 File lengths (MBytes):  RWF=     21 Int=      0 D2E=      0 Chk=     10 Scr=      1
 Normal termination of Gaussian 03 at Mon May  4 20:08:48 2015.
