 Entering Gaussian System, Link 0=/home/timn/tmp/g03.e01/g03
 Input=Ca2HPO4_8.xyz.gjf
 Output=Ca2HPO4_8.xyz.out
 Initial command:
 /home/timn/tmp/g03.e01/l1.exe /home/timn/tmp/g03.e01/Gau-20358.inp -scrdir=/home/timn/tmp/g03.e01/
 Default is to use a total of   2 processors:
                                2 via shared-memory
                                1 via Linda
 Entering Link 1 = /home/timn/tmp/g03.e01/l1.exe PID=     20359.
  
 Copyright (c) 1988,1990,1992,1993,1995,1998,2003,2004,2007, Gaussian, Inc.
                  All Rights Reserved.
  
 This is the Gaussian(R) 03 program.  It is based on the
 the Gaussian(R) 98 system (copyright 1998, Gaussian, Inc.),
 the Gaussian(R) 94 system (copyright 1995, Gaussian, Inc.),
 the Gaussian 92(TM) system (copyright 1992, Gaussian, Inc.),
 the Gaussian 90(TM) system (copyright 1990, Gaussian, Inc.),
 the Gaussian 88(TM) system (copyright 1988, Gaussian, Inc.),
 the Gaussian 86(TM) system (copyright 1986, Carnegie Mellon
 University), and the Gaussian 82(TM) system (copyright 1983,
 Carnegie Mellon University). Gaussian is a federally registered
 trademark of Gaussian, Inc.
  
 This software contains proprietary and confidential information,
 including trade secrets, belonging to Gaussian, Inc.
  
 This software is provided under written license and may be
 used, copied, transmitted, or stored only in accord with that
 written license.
  
 The following legend is applicable only to US Government
 contracts under FAR:
  
                    RESTRICTED RIGHTS LEGEND
  
 Use, reproduction and disclosure by the US Government is
 subject to restrictions as set forth in subparagraphs (a)
 and (c) of the Commercial Computer Software - Restricted
 Rights clause in FAR 52.227-19.
  
 Gaussian, Inc.
 340 Quinnipiac St., Bldg. 40, Wallingford CT 06492
  
  
 ---------------------------------------------------------------
 Warning -- This program may not be used in any manner that
 competes with the business of Gaussian, Inc. or will provide
 assistance to any competitor of Gaussian, Inc.  The licensee
 of this program is prohibited from giving any competitor of
 Gaussian, Inc. access to this program.  By using this program,
 the user acknowledges that Gaussian, Inc. is engaged in the
 business of creating and licensing software in the field of
 computational chemistry and represents and warrants to the
 licensee that it is not a competitor of Gaussian, Inc. and that
 it will not use this program in any manner prohibited above.
 ---------------------------------------------------------------
  

 Cite this work as:
 Gaussian 03, Revision E.01,
 M. J. Frisch, G. W. Trucks, H. B. Schlegel, G. E. Scuseria, 
 M. A. Robb, J. R. Cheeseman, J. A. Montgomery, Jr., T. Vreven, 
 K. N. Kudin, J. C. Burant, J. M. Millam, S. S. Iyengar, J. Tomasi, 
 V. Barone, B. Mennucci, M. Cossi, G. Scalmani, N. Rega, 
 G. A. Petersson, H. Nakatsuji, M. Hada, M. Ehara, K. Toyota, 
 R. Fukuda, J. Hasegawa, M. Ishida, T. Nakajima, Y. Honda, O. Kitao, 
 H. Nakai, M. Klene, X. Li, J. E. Knox, H. P. Hratchian, J. B. Cross, 
 V. Bakken, C. Adamo, J. Jaramillo, R. Gomperts, R. E. Stratmann, 
 O. Yazyev, A. J. Austin, R. Cammi, C. Pomelli, J. W. Ochterski, 
 P. Y. Ayala, K. Morokuma, G. A. Voth, P. Salvador, J. J. Dannenberg, 
 V. G. Zakrzewski, S. Dapprich, A. D. Daniels, M. C. Strain, 
 O. Farkas, D. K. Malick, A. D. Rabuck, K. Raghavachari, 
 J. B. Foresman, J. V. Ortiz, Q. Cui, A. G. Baboul, S. Clifford, 
 J. Cioslowski, B. B. Stefanov, G. Liu, A. Liashenko, P. Piskorz, 
 I. Komaromi, R. L. Martin, D. J. Fox, T. Keith, M. A. Al-Laham, 
 C. Y. Peng, A. Nanayakkara, M. Challacombe, P. M. W. Gill, 
 B. Johnson, W. Chen, M. W. Wong, C. Gonzalez, and J. A. Pople, 
 Gaussian, Inc., Wallingford CT, 2004.
 
 ******************************************
 Gaussian 03:  EM64T-G03RevE.01 11-Sep-2007
                 4-May-2015 
 ******************************************
 %nproc=2
 Will use up to    2 processors via shared memory.
 Default route:  MP2=Direct MaxDisk=2000MB
 -------------------------------------
 # b3lyp/6-31G(d,p) pop=(ReadRadii,MK)
 -------------------------------------
 1/38=1/1;
 2/17=6,18=5,40=1/2;
 3/5=1,6=6,7=101,11=2,16=1,25=1,30=1,74=-5/1,2,3;
 4//1;
 5/5=2,32=1,38=5/2;
 6/7=2,8=2,9=2,10=2,15=8,20=101,28=1/1,2;
 99/5=1,9=1/99;
 ---------
 Ca2HPO4_8
 ---------
 Symbolic Z-matrix:
 Charge =  0 Multiplicity = 1
 Ca                    2.09993  -0.59998   0.00017 
 H                     3.61452  -2.07265  -0.00298 
 O                    -0.06585  -0.26295  -1.20518 
 P                    -0.13997   0.85067  -0.00006 
 O                     1.14387   1.66796   0.00015 
 O                    -1.60119   1.36766  -0.00402 
 Ca                   -1.93818  -0.94025   0.00004 
 O                    -0.07058  -0.25804   1.20903 
 
                          Input orientation:                          
 ---------------------------------------------------------------------
 Center     Atomic     Atomic              Coordinates (Angstroms)
 Number     Number      Type              X           Y           Z
 ---------------------------------------------------------------------
    1         20             0        2.099930   -0.599978    0.000169
    2          1             0        3.614520   -2.072650   -0.002975
    3          8             0       -0.065846   -0.262950   -1.205180
    4         15             0       -0.139967    0.850672   -0.000062
    5          8             0        1.143870    1.667960    0.000145
    6          8             0       -1.601190    1.367660   -0.004022
    7         20             0       -1.938180   -0.940245    0.000039
    8          8             0       -0.070581   -0.258035    1.209030
 ---------------------------------------------------------------------
                    Distance matrix (angstroms):
                    1          2          3          4          5
     1  Ca   0.000000
     2  H    2.112524   0.000000
     3  O    2.501408   4.273804   0.000000
     4  P    2.668618   4.758360   1.642546   0.000000
     5  O    2.461218   4.482888   2.577719   1.521906   0.000000
     6  O    4.191647   6.248149   2.541447   1.549989   2.761440
     7  Ca   4.052421   5.666995   2.327427   2.537903   4.037544
     8  O    2.507865   4.282727   2.414220   1.641935   2.577935
                    6          7          8
     6  O    0.000000
     7  Ca   2.332382   0.000000
     8  O    2.541091   2.327014   0.000000
 Stoichiometry    Ca2HO4P
 Framework group  C1[X(Ca2HO4P)]
 Deg. of freedom    18
 Full point group                 C1
 Largest Abelian subgroup         C1      NOp   1
 Largest concise Abelian subgroup C1      NOp   1
                         Standard orientation:                         
 ---------------------------------------------------------------------
 Center     Atomic     Atomic              Coordinates (Angstroms)
 Number     Number      Type              X           Y           Z
 ---------------------------------------------------------------------
    1         20             0        2.099930   -0.599979    0.000169
    2          1             0        3.614520   -2.072651   -0.002975
    3          8             0       -0.065846   -0.262951   -1.205180
    4         15             0       -0.139967    0.850671   -0.000062
    5          8             0        1.143870    1.667959    0.000145
    6          8             0       -1.601190    1.367659   -0.004022
    7         20             0       -1.938180   -0.940246    0.000039
    8          8             0       -0.070581   -0.258036    1.209030
 ---------------------------------------------------------------------
 Rotational constants (GHZ):      2.5345786      1.1256794      0.9103916
 Standard basis: 6-31G(d,p) (6D, 7F)
 There are   130 symmetry adapted basis functions of A   symmetry.
 Integral buffers will be    131072 words long.
 Raffenetti 2 integral format.
 Two-electron integral symmetry is turned on.
   130 basis functions,   323 primitive gaussians,   130 cartesian basis functions
    44 alpha electrons       44 beta electrons
       nuclear repulsion energy       677.9172850082 Hartrees.
 NAtoms=    8 NActive=    8 NUniq=    8 SFac= 7.50D-01 NAtFMM=   80 NAOKFM=F Big=F
 One-electron integrals computed using PRISM.
 NBasis=   130 RedAO= T  NBF=   130
 NBsUse=   130 1.00D-06 NBFU=   130
 Harris functional with IExCor=  402 diagonalized for initial guess.
 ExpMin= 2.60D-02 ExpMax= 3.53D+04 ExpMxC= 5.30D+03 IAcc=3 IRadAn=         5 AccDes= 0.00D+00
 HarFok:  IExCor= 402 AccDes= 0.00D+00 IRadAn=         5 IDoV=1
 ScaDFX=  1.000000  1.000000  1.000000  1.000000
 Initial guess orbital symmetries:
       Occupied  (A) (A) (A) (A) (A) (A) (A) (A) (A) (A) (A) (A)
                 (A) (A) (A) (A) (A) (A) (A) (A) (A) (A) (A) (A)
                 (A) (A) (A) (A) (A) (A) (A) (A) (A) (A) (A) (A)
                 (A) (A) (A) (A) (A) (A) (A) (A)
       Virtual   (A) (A) (A) (A) (A) (A) (A) (A) (A) (A) (A) (A)
                 (A) (A) (A) (A) (A) (A) (A) (A) (A) (A) (A) (A)
                 (A) (A) (A) (A) (A) (A) (A) (A) (A) (A) (A) (A)
                 (A) (A) (A) (A) (A) (A) (A) (A) (A) (A) (A) (A)
                 (A) (A) (A) (A) (A) (A) (A) (A) (A) (A) (A) (A)
                 (A) (A) (A) (A) (A) (A) (A) (A) (A) (A) (A) (A)
                 (A) (A) (A) (A) (A) (A) (A) (A) (A) (A) (A) (A)
                 (A) (A)
 The electronic state of the initial guess is 1-A.
 Requested convergence on RMS density matrix=1.00D-04 within 128 cycles.
 Requested convergence on MAX density matrix=1.00D-02.
 Requested convergence on             energy=1.00D-02.
 No special actions if energy rises.
 Keep R1 integrals in memory in canonical form, NReq=    38354117.
 SCF Done:  E(RB+HF-LYP) =  -1998.15353922     A.U. after    8 cycles
             Convg  =    0.6468D-04             -V/T =  2.0030
             S**2   =   0.0000

 **********************************************************************

            Population analysis using the SCF density.

 **********************************************************************

 Orbital symmetries:
       Occupied  (A) (A) (A) (A) (A) (A) (A) (A) (A) (A) (A) (A)
                 (A) (A) (A) (A) (A) (A) (A) (A) (A) (A) (A) (A)
                 (A) (A) (A) (A) (A) (A) (A) (A) (A) (A) (A) (A)
                 (A) (A) (A) (A) (A) (A) (A) (A)
       Virtual   (A) (A) (A) (A) (A) (A) (A) (A) (A) (A) (A) (A)
                 (A) (A) (A) (A) (A) (A) (A) (A) (A) (A) (A) (A)
                 (A) (A) (A) (A) (A) (A) (A) (A) (A) (A) (A) (A)
                 (A) (A) (A) (A) (A) (A) (A) (A) (A) (A) (A) (A)
                 (A) (A) (A) (A) (A) (A) (A) (A) (A) (A) (A) (A)
                 (A) (A) (A) (A) (A) (A) (A) (A) (A) (A) (A) (A)
                 (A) (A) (A) (A) (A) (A) (A) (A) (A) (A) (A) (A)
                 (A) (A)
 The electronic state is 1-A.
 Alpha  occ. eigenvalues -- -145.43745-145.34084 -77.16987 -19.08422 -19.08079
 Alpha  occ. eigenvalues --  -19.07945 -19.07941 -15.50670 -15.41269 -12.63837
 Alpha  occ. eigenvalues --  -12.63832 -12.63828 -12.54475 -12.54471 -12.54281
 Alpha  occ. eigenvalues --   -6.61721  -4.78069  -4.78065  -4.77978  -1.87835
 Alpha  occ. eigenvalues --   -1.78791  -1.15875  -1.15066  -1.15027  -1.06586
 Alpha  occ. eigenvalues --   -1.06503  -1.06266  -0.98235  -0.90865  -0.89135
 Alpha  occ. eigenvalues --   -0.87534  -0.48242  -0.39012  -0.38625  -0.38304
 Alpha  occ. eigenvalues --   -0.31215  -0.31199  -0.30914  -0.28294  -0.26386
 Alpha  occ. eigenvalues --   -0.24808  -0.23579  -0.21956  -0.19689
 Alpha virt. eigenvalues --   -0.12757  -0.03522  -0.02764  -0.00204   0.01261
 Alpha virt. eigenvalues --    0.01842   0.01927   0.05042   0.06618   0.09832
 Alpha virt. eigenvalues --    0.10198   0.11126   0.13087   0.15403   0.15661
 Alpha virt. eigenvalues --    0.16780   0.16857   0.18581   0.19442   0.23921
 Alpha virt. eigenvalues --    0.24009   0.24421   0.27144   0.27282   0.29316
 Alpha virt. eigenvalues --    0.30415   0.33499   0.34818   0.36085   0.40685
 Alpha virt. eigenvalues --    0.42223   0.45266   0.48172   0.50676   0.54592
 Alpha virt. eigenvalues --    0.59505   0.70665   0.75178   0.91860   0.92040
 Alpha virt. eigenvalues --    0.93935   1.01462   1.02924   1.05516   1.06133
 Alpha virt. eigenvalues --    1.10470   1.12294   1.13594   1.21010   1.23491
 Alpha virt. eigenvalues --    1.24096   1.25572   1.28401   1.32792   1.44602
 Alpha virt. eigenvalues --    1.47717   1.61880   1.81743   1.83083   1.84335
 Alpha virt. eigenvalues --    1.84881   1.86247   1.87353   1.87442   1.89867
 Alpha virt. eigenvalues --    1.91746   1.93967   1.94575   2.02041   2.08330
 Alpha virt. eigenvalues --    2.09965   2.16139   2.16554   2.26921   2.27759
 Alpha virt. eigenvalues --    2.28068   2.38687   2.58451   2.70227   2.81970
 Alpha virt. eigenvalues --    2.86509   3.56070   3.82832   3.89183   4.10906
 Alpha virt. eigenvalues --    4.24152
          Condensed to atoms (all electrons):
              1          2          3          4          5          6
     1  Ca  18.598346   0.333874   0.111981  -0.033605   0.134561  -0.000993
     2  H    0.333874   0.976070  -0.000123  -0.000215  -0.000083   0.000000
     3  O    0.111981  -0.000123   8.524557   0.165146  -0.035757  -0.043252
     4  P   -0.033605  -0.000215   0.165146  12.599589   0.384387   0.338839
     5  O    0.134561  -0.000083  -0.035757   0.384387   8.245901  -0.012777
     6  O   -0.000993   0.000000  -0.043252   0.338839  -0.012777   8.294994
     7  Ca  -0.033434  -0.000706   0.163876  -0.035245  -0.001585   0.174335
     8  O    0.111461  -0.000118  -0.060526   0.165763  -0.035724  -0.043281
              7          8
     1  Ca  -0.033434   0.111461
     2  H   -0.000706  -0.000118
     3  O    0.163876  -0.060526
     4  P   -0.035245   0.165763
     5  O   -0.001585  -0.035724
     6  O    0.174335  -0.043281
     7  Ca  18.415216   0.164093
     8  O    0.164093   8.523546
 Mulliken atomic charges:
              1
     1  Ca   0.777809
     2  H   -0.308698
     3  O   -0.825902
     4  P    1.415341
     5  O   -0.678922
     6  O   -0.707866
     7  Ca   1.153451
     8  O   -0.825214
 Sum of Mulliken charges=   0.00000
 Atomic charges with hydrogens summed into heavy atoms:
              1
     1  Ca   0.469111
     2  H    0.000000
     3  O   -0.825902
     4  P    1.415341
     5  O   -0.678922
     6  O   -0.707866
     7  Ca   1.153451
     8  O   -0.825214
 Sum of Mulliken charges=   0.00000
 Electronic spatial extent (au):  <R**2>=  1256.0852
 Charge=     0.0000 electrons
 Dipole moment (field-independent basis, Debye):
    X=   -10.4248    Y=    -7.0907    Z=     0.0098  Tot=    12.6078
 Quadrupole moment (field-independent basis, Debye-Ang):
   XX=   -57.0282   YY=   -75.0186   ZZ=   -71.3788
   XY=    30.8648   XZ=     0.0327   YZ=    -0.0204
 Traceless Quadrupole moment (field-independent basis, Debye-Ang):
   XX=    10.7803   YY=    -7.2101   ZZ=    -3.5703
   XY=    30.8648   XZ=     0.0327   YZ=    -0.0204
 Octapole moment (field-independent basis, Debye-Ang**2):
  XXX=  -168.4469  YYY=    -3.8824  ZZZ=    -0.0390  XYY=   -67.2055
  XXY=    16.6399  XXZ=     0.1420  XZZ=    -9.9667  YZZ=     2.9572
  YYZ=     0.0749  XYZ=    -0.0904
 Hexadecapole moment (field-independent basis, Debye-Ang**3):
 XXXX= -1273.7016 YYYY=  -521.6397 ZZZZ=  -209.3371 XXXY=   395.5531
 XXXZ=     0.3650 YYYX=   170.1868 YYYZ=    -0.0732 ZZZX=     0.1237
 ZZZY=    -0.0708 XXYY=  -382.6966 XXZZ=  -196.7818 YYZZ=  -108.1113
 XXYZ=    -0.1559 YYXZ=     0.0841 ZZXY=    26.8348
 N-N= 6.779172850082D+02 E-N=-6.089874924239D+03  KE= 1.992160558313D+03
 Merz-Kollman atomic radii used.
 Read replacement radii for each type of atom:
 Rad(20) =   1.188000000000D+00
 Atom Element Radius
    1    20    1.19
    2     1    1.20
    3     8    1.40
    4    15    1.80
    5     8    1.40
    6     8    1.40
    7    20    1.19
    8     8    1.40

 **********************************************************************

            Electrostatic Properties Using The SCF Density

 **********************************************************************

       Atomic Center    1 is at   2.099930 -0.599979  0.000169
       Atomic Center    2 is at   3.614520 -2.072651 -0.002975
       Atomic Center    3 is at  -0.065846 -0.262951 -1.205180
       Atomic Center    4 is at  -0.139967  0.850671 -0.000062
       Atomic Center    5 is at   1.143870  1.667959  0.000145
       Atomic Center    6 is at  -1.601190  1.367659 -0.004022
       Atomic Center    7 is at  -1.938180 -0.940246  0.000039
       Atomic Center    8 is at  -0.070581 -0.258036  1.209030
     697 points will be used for fitting atomic charges
 Fitting point charges to eletrostatic potential
 Charges from ESP fit, RMS=   0.00577 RRMS=   0.07578:
 Charge=   0.00000 Dipole=   -10.2786    -7.3182     0.0112 Tot=    12.6176
              1
     1  Ca   1.488621
     2  H   -0.727599
     3  O   -1.116325
     4  P    1.577211
     5  O   -0.801763
     6  O   -0.897067
     7  Ca   1.592615
     8  O   -1.115693
 -----------------------------------------------------------------

              Electrostatic Properties (Atomic Units)

 -----------------------------------------------------------------
    Center     Electric         -------- Electric Field --------
               Potential          X             Y             Z
 -----------------------------------------------------------------
    1 Atom    -80.201534
    2 Atom     -1.231427
    3 Atom    -22.381278
    4 Atom    -54.033619
    5 Atom    -22.383077
    6 Atom    -22.377265
    7 Atom    -80.104505
    8 Atom    -22.381361
 -----------------------------------------------------------------
 1\1\GINC-N036\SP\RB3LYP\6-31G(d,p)\Ca2H1O4P1\TIMN\04-May-2015\0\\# b3l
 yp/6-31G(d,p) pop=(ReadRadii,MK)\\Ca2HPO4_8\\0,1\Ca,0,2.09993,-0.59997
 8,0.000169\H,0,3.61452,-2.07265,-0.002975\O,0,-0.065846,-0.26295,-1.20
 518\P,0,-0.139967,0.850672,-0.000062\O,0,1.14387,1.66796,0.000145\O,0,
 -1.60119,1.36766,-0.004022\Ca,0,-1.93818,-0.940245,0.000039\O,0,-0.070
 581,-0.258035,1.20903\\Version=EM64T-G03RevE.01\State=1-A\HF=-1998.153
 5392\RMSD=6.468e-05\Thermal=0.\Dipole=-4.1014448,-2.7897108,0.0038461\
 PG=C01 [X(Ca2H1O4P1)]\\@


 REFRAIN FROM ILLUSIONS, INSIST ON WORK AND NOT WORDS,
 PATIENTLY SEEK DIVINE AND SCIENTIFIC TRUTH.
 LAST WORDS OF MARIA MENDELEEVA TO HER SON DMITRI, C. 1850
 Job cpu time:  0 days  0 hours  0 minutes 19.4 seconds.
 File lengths (MBytes):  RWF=     21 Int=      0 D2E=      0 Chk=     10 Scr=      1
 Normal termination of Gaussian 03 at Mon May  4 20:08:51 2015.
