 Entering Gaussian System, Link 0=/home/timn/tmp/g03.e01/g03
 Input=Ca2HPO4_68.xyz.gjf
 Output=Ca2HPO4_68.xyz.out
 Initial command:
 /home/timn/tmp/g03.e01/l1.exe /home/timn/tmp/g03.e01/Gau-15017.inp -scrdir=/home/timn/tmp/g03.e01/
 Default is to use a total of   2 processors:
                                2 via shared-memory
                                1 via Linda
 Entering Link 1 = /home/timn/tmp/g03.e01/l1.exe PID=     15018.
  
 Copyright (c) 1988,1990,1992,1993,1995,1998,2003,2004,2007, Gaussian, Inc.
                  All Rights Reserved.
  
 This is the Gaussian(R) 03 program.  It is based on the
 the Gaussian(R) 98 system (copyright 1998, Gaussian, Inc.),
 the Gaussian(R) 94 system (copyright 1995, Gaussian, Inc.),
 the Gaussian 92(TM) system (copyright 1992, Gaussian, Inc.),
 the Gaussian 90(TM) system (copyright 1990, Gaussian, Inc.),
 the Gaussian 88(TM) system (copyright 1988, Gaussian, Inc.),
 the Gaussian 86(TM) system (copyright 1986, Carnegie Mellon
 University), and the Gaussian 82(TM) system (copyright 1983,
 Carnegie Mellon University). Gaussian is a federally registered
 trademark of Gaussian, Inc.
  
 This software contains proprietary and confidential information,
 including trade secrets, belonging to Gaussian, Inc.
  
 This software is provided under written license and may be
 used, copied, transmitted, or stored only in accord with that
 written license.
  
 The following legend is applicable only to US Government
 contracts under FAR:
  
                    RESTRICTED RIGHTS LEGEND
  
 Use, reproduction and disclosure by the US Government is
 subject to restrictions as set forth in subparagraphs (a)
 and (c) of the Commercial Computer Software - Restricted
 Rights clause in FAR 52.227-19.
  
 Gaussian, Inc.
 340 Quinnipiac St., Bldg. 40, Wallingford CT 06492
  
  
 ---------------------------------------------------------------
 Warning -- This program may not be used in any manner that
 competes with the business of Gaussian, Inc. or will provide
 assistance to any competitor of Gaussian, Inc.  The licensee
 of this program is prohibited from giving any competitor of
 Gaussian, Inc. access to this program.  By using this program,
 the user acknowledges that Gaussian, Inc. is engaged in the
 business of creating and licensing software in the field of
 computational chemistry and represents and warrants to the
 licensee that it is not a competitor of Gaussian, Inc. and that
 it will not use this program in any manner prohibited above.
 ---------------------------------------------------------------
  

 Cite this work as:
 Gaussian 03, Revision E.01,
 M. J. Frisch, G. W. Trucks, H. B. Schlegel, G. E. Scuseria, 
 M. A. Robb, J. R. Cheeseman, J. A. Montgomery, Jr., T. Vreven, 
 K. N. Kudin, J. C. Burant, J. M. Millam, S. S. Iyengar, J. Tomasi, 
 V. Barone, B. Mennucci, M. Cossi, G. Scalmani, N. Rega, 
 G. A. Petersson, H. Nakatsuji, M. Hada, M. Ehara, K. Toyota, 
 R. Fukuda, J. Hasegawa, M. Ishida, T. Nakajima, Y. Honda, O. Kitao, 
 H. Nakai, M. Klene, X. Li, J. E. Knox, H. P. Hratchian, J. B. Cross, 
 V. Bakken, C. Adamo, J. Jaramillo, R. Gomperts, R. E. Stratmann, 
 O. Yazyev, A. J. Austin, R. Cammi, C. Pomelli, J. W. Ochterski, 
 P. Y. Ayala, K. Morokuma, G. A. Voth, P. Salvador, J. J. Dannenberg, 
 V. G. Zakrzewski, S. Dapprich, A. D. Daniels, M. C. Strain, 
 O. Farkas, D. K. Malick, A. D. Rabuck, K. Raghavachari, 
 J. B. Foresman, J. V. Ortiz, Q. Cui, A. G. Baboul, S. Clifford, 
 J. Cioslowski, B. B. Stefanov, G. Liu, A. Liashenko, P. Piskorz, 
 I. Komaromi, R. L. Martin, D. J. Fox, T. Keith, M. A. Al-Laham, 
 C. Y. Peng, A. Nanayakkara, M. Challacombe, P. M. W. Gill, 
 B. Johnson, W. Chen, M. W. Wong, C. Gonzalez, and J. A. Pople, 
 Gaussian, Inc., Wallingford CT, 2004.
 
 ******************************************
 Gaussian 03:  EM64T-G03RevE.01 11-Sep-2007
                 4-May-2015 
 ******************************************
 %nproc=2
 Will use up to    2 processors via shared memory.
 Default route:  MP2=Direct MaxDisk=2000MB
 -------------------------------------
 # b3lyp/6-31G(d,p) pop=(ReadRadii,MK)
 -------------------------------------
 1/38=1/1;
 2/17=6,18=5,40=1/2;
 3/5=1,6=6,7=101,11=2,16=1,25=1,30=1,74=-5/1,2,3;
 4//1;
 5/5=2,32=1,38=5/2;
 6/7=2,8=2,9=2,10=2,15=8,20=101,28=1/1,2;
 99/5=1,9=1/99;
 ----------
 Ca2HPO4_68
 ----------
 Symbolic Z-matrix:
 Charge =  0 Multiplicity = 1
 O                    -2.1956    0.81814  -0.39648 
 O                     0.3186    1.66172  -0.57558 
 P                    -0.84828   1.20254   0.36547 
 Ca                   -2.03355  -1.3739   -0.16044 
 O                    -0.31121  -0.35015   0.83784 
 Ca                    1.84984   0.06158   0.01833 
 O                     3.67333  -0.93218  -0.16442 
 H                     4.51742  -1.37188  -0.25064 
 
                          Input orientation:                          
 ---------------------------------------------------------------------
 Center     Atomic     Atomic              Coordinates (Angstroms)
 Number     Number      Type              X           Y           Z
 ---------------------------------------------------------------------
    1          8             0       -2.195600    0.818144   -0.396476
    2          8             0        0.318595    1.661720   -0.575582
    3         15             0       -0.848283    1.202540    0.365471
    4         20             0       -2.033550   -1.373900   -0.160443
    5          8             0       -0.311209   -0.350148    0.837844
    6         20             0        1.849840    0.061575    0.018325
    7          8             0        3.673330   -0.932180   -0.164421
    8          1             0        4.517420   -1.371880   -0.250643
 ---------------------------------------------------------------------
                    Distance matrix (angstroms):
                    1          2          3          4          5
     1  O    0.000000
     2  O    2.657983   0.000000
     3  P    1.594863   1.567811   0.000000
     4  Ca   2.210662   3.862631   2.884352   0.000000
     5  O    2.537594   2.538117   1.709510   2.238549   0.000000
     6  Ca   4.136429   2.293011   2.949946   4.144064   2.347607
     7  O    6.128770   4.260472   5.028200   5.723951   4.149680
     8  H    7.062727   5.190226   5.983143   6.551591   5.054147
                    6          7          8
     6  Ca   0.000000
     7  O    2.084721   0.000000
     8  H    3.040250   0.955645   0.000000
 Stoichiometry    Ca2HO4P
 Framework group  C1[X(Ca2HO4P)]
 Deg. of freedom    18
 Full point group                 C1
 Largest Abelian subgroup         C1      NOp   1
 Largest concise Abelian subgroup C1      NOp   1
                         Standard orientation:                         
 ---------------------------------------------------------------------
 Center     Atomic     Atomic              Coordinates (Angstroms)
 Number     Number      Type              X           Y           Z
 ---------------------------------------------------------------------
    1          8             0       -2.195599    0.818145   -0.396476
    2          8             0        0.318597    1.661720   -0.575582
    3         15             0       -0.848281    1.202540    0.365471
    4         20             0       -2.033549   -1.373899   -0.160443
    5          8             0       -0.311208   -0.350148    0.837844
    6         20             0        1.849841    0.061574    0.018325
    7          8             0        3.673331   -0.932182   -0.164421
    8          1             0        4.517421   -1.371882   -0.250643
 ---------------------------------------------------------------------
 Rotational constants (GHZ):      2.3222724      0.7593078      0.6061337
 Standard basis: 6-31G(d,p) (6D, 7F)
 There are   130 symmetry adapted basis functions of A   symmetry.
 Integral buffers will be    131072 words long.
 Raffenetti 2 integral format.
 Two-electron integral symmetry is turned on.
   130 basis functions,   323 primitive gaussians,   130 cartesian basis functions
    44 alpha electrons       44 beta electrons
       nuclear repulsion energy       611.1089392543 Hartrees.
 NAtoms=    8 NActive=    8 NUniq=    8 SFac= 7.50D-01 NAtFMM=   80 NAOKFM=F Big=F
 One-electron integrals computed using PRISM.
 NBasis=   130 RedAO= T  NBF=   130
 NBsUse=   130 1.00D-06 NBFU=   130
 Harris functional with IExCor=  402 diagonalized for initial guess.
 ExpMin= 2.60D-02 ExpMax= 3.53D+04 ExpMxC= 5.30D+03 IAcc=3 IRadAn=         5 AccDes= 0.00D+00
 HarFok:  IExCor= 402 AccDes= 0.00D+00 IRadAn=         5 IDoV=1
 ScaDFX=  1.000000  1.000000  1.000000  1.000000
 Initial guess orbital symmetries:
       Occupied  (A) (A) (A) (A) (A) (A) (A) (A) (A) (A) (A) (A)
                 (A) (A) (A) (A) (A) (A) (A) (A) (A) (A) (A) (A)
                 (A) (A) (A) (A) (A) (A) (A) (A) (A) (A) (A) (A)
                 (A) (A) (A) (A) (A) (A) (A) (A)
       Virtual   (A) (A) (A) (A) (A) (A) (A) (A) (A) (A) (A) (A)
                 (A) (A) (A) (A) (A) (A) (A) (A) (A) (A) (A) (A)
                 (A) (A) (A) (A) (A) (A) (A) (A) (A) (A) (A) (A)
                 (A) (A) (A) (A) (A) (A) (A) (A) (A) (A) (A) (A)
                 (A) (A) (A) (A) (A) (A) (A) (A) (A) (A) (A) (A)
                 (A) (A) (A) (A) (A) (A) (A) (A) (A) (A) (A) (A)
                 (A) (A) (A) (A) (A) (A) (A) (A) (A) (A) (A) (A)
                 (A) (A)
 The electronic state of the initial guess is 1-A.
 Requested convergence on RMS density matrix=1.00D-04 within 128 cycles.
 Requested convergence on MAX density matrix=1.00D-02.
 Requested convergence on             energy=1.00D-02.
 No special actions if energy rises.
 Keep R1 integrals in memory in canonical form, NReq=    38354263.
 SCF Done:  E(RB+HF-LYP) =  -1998.16433344     A.U. after    9 cycles
             Convg  =    0.9992D-04             -V/T =  2.0029
             S**2   =   0.0000

 **********************************************************************

            Population analysis using the SCF density.

 **********************************************************************

 Orbital symmetries:
       Occupied  (A) (A) (A) (A) (A) (A) (A) (A) (A) (A) (A) (A)
                 (A) (A) (A) (A) (A) (A) (A) (A) (A) (A) (A) (A)
                 (A) (A) (A) (A) (A) (A) (A) (A) (A) (A) (A) (A)
                 (A) (A) (A) (A) (A) (A) (A) (A)
       Virtual   (A) (A) (A) (A) (A) (A) (A) (A) (A) (A) (A) (A)
                 (A) (A) (A) (A) (A) (A) (A) (A) (A) (A) (A) (A)
                 (A) (A) (A) (A) (A) (A) (A) (A) (A) (A) (A) (A)
                 (A) (A) (A) (A) (A) (A) (A) (A) (A) (A) (A) (A)
                 (A) (A) (A) (A) (A) (A) (A) (A) (A) (A) (A) (A)
                 (A) (A) (A) (A) (A) (A) (A) (A) (A) (A) (A) (A)
                 (A) (A) (A) (A) (A) (A) (A) (A) (A) (A) (A) (A)
                 (A) (A)
 The electronic state is 1-A.
 Alpha  occ. eigenvalues -- -145.40401-145.31636 -77.12911 -19.10145 -19.09296
 Alpha  occ. eigenvalues --  -19.07959 -19.03131 -15.47500 -15.38932 -12.60708
 Alpha  occ. eigenvalues --  -12.60619 -12.60597 -12.52184 -12.52108 -12.51901
 Alpha  occ. eigenvalues --   -6.58127  -4.74510  -4.74392  -4.74108  -1.84880
 Alpha  occ. eigenvalues --   -1.76766  -1.12598  -1.12528  -1.12130  -1.04957
 Alpha  occ. eigenvalues --   -1.04668  -1.04552  -0.95399  -0.89286  -0.88361
 Alpha  occ. eigenvalues --   -0.84267  -0.49254  -0.38682  -0.37675  -0.36773
 Alpha  occ. eigenvalues --   -0.35953  -0.31787  -0.28808  -0.26509  -0.25670
 Alpha  occ. eigenvalues --   -0.25117  -0.20961  -0.20847  -0.17031
 Alpha virt. eigenvalues --   -0.11244  -0.04234  -0.02805  -0.01525   0.00695
 Alpha virt. eigenvalues --    0.02208   0.03038   0.04931   0.05794   0.10476
 Alpha virt. eigenvalues --    0.10905   0.11146   0.11475   0.13683   0.14763
 Alpha virt. eigenvalues --    0.16780   0.18372   0.18530   0.19167   0.20086
 Alpha virt. eigenvalues --    0.20858   0.22634   0.24683   0.25016   0.28988
 Alpha virt. eigenvalues --    0.32897   0.34672   0.36156   0.38765   0.39650
 Alpha virt. eigenvalues --    0.41210   0.42324   0.45792   0.48495   0.49982
 Alpha virt. eigenvalues --    0.53761   0.72760   0.77532   0.82841   0.92696
 Alpha virt. eigenvalues --    0.93621   0.95336   1.01975   1.03200   1.04254
 Alpha virt. eigenvalues --    1.07818   1.10475   1.13117   1.15824   1.16571
 Alpha virt. eigenvalues --    1.21020   1.21657   1.28945   1.31372   1.38950
 Alpha virt. eigenvalues --    1.43459   1.47461   1.67676   1.71753   1.72425
 Alpha virt. eigenvalues --    1.83496   1.85873   1.87176   1.88060   1.90273
 Alpha virt. eigenvalues --    1.90403   1.90894   1.92824   1.93833   1.95711
 Alpha virt. eigenvalues --    2.05184   2.09770   2.20556   2.22695   2.45878
 Alpha virt. eigenvalues --    2.50926   2.70859   2.73839   2.74415   2.80397
 Alpha virt. eigenvalues --    3.50387   3.59822   3.75601   3.77596   3.91212
 Alpha virt. eigenvalues --    3.97475
          Condensed to atoms (all electrons):
              1          2          3          4          5          6
     1  O    8.393368  -0.022461   0.198949   0.173237  -0.035182  -0.011028
     2  O   -0.022461   8.361825   0.244397  -0.007002  -0.039473   0.148429
     3  P    0.198949   0.244397  13.494695   0.051305   0.064085   0.023982
     4  Ca   0.173237  -0.007002   0.051305  18.902154   0.133873  -0.094518
     5  O   -0.035182  -0.039473   0.064085   0.133873   8.592676   0.106032
     6  Ca  -0.011028   0.148429   0.023982  -0.094518   0.106032  18.610986
     7  O    0.000000  -0.000122  -0.000020  -0.010061  -0.000078   0.247901
     8  H    0.000000   0.000003   0.000000   0.000236   0.000004  -0.027026
              7          8
     1  O    0.000000   0.000000
     2  O   -0.000122   0.000003
     3  P   -0.000020   0.000000
     4  Ca  -0.010061   0.000236
     5  O   -0.000078   0.000004
     6  Ca   0.247901  -0.027026
     7  O    8.313387   0.277089
     8  H    0.277089   0.485805
 Mulliken atomic charges:
              1
     1  O   -0.696884
     2  O   -0.685597
     3  P    0.922607
     4  Ca   0.850774
     5  O   -0.821936
     6  Ca   0.995242
     7  O   -0.828095
     8  H    0.263889
 Sum of Mulliken charges=   0.00000
 Atomic charges with hydrogens summed into heavy atoms:
              1
     1  O   -0.696884
     2  O   -0.685597
     3  P    0.922607
     4  Ca   0.850774
     5  O   -0.821936
     6  Ca   0.995242
     7  O   -0.564206
     8  H    0.000000
 Sum of Mulliken charges=   0.00000
 Electronic spatial extent (au):  <R**2>=  1718.0887
 Charge=     0.0000 electrons
 Dipole moment (field-independent basis, Debye):
    X=    -3.6936    Y=    -6.9390    Z=     0.5495  Tot=     7.8800
 Quadrupole moment (field-independent basis, Debye-Ang):
   XX=   -65.1213   YY=   -65.9218   ZZ=   -68.5881
   XY=    20.7989   XZ=     0.3831   YZ=     4.4975
 Traceless Quadrupole moment (field-independent basis, Debye-Ang):
   XX=     1.4225   YY=     0.6219   ZZ=    -2.0444
   XY=    20.7989   XZ=     0.3831   YZ=     4.4975
 Octapole moment (field-independent basis, Debye-Ang**2):
  XXX=   -37.4606  YYY=   -21.8907  ZZZ=    -0.7807  XYY=   -12.5007
  XXY=   -28.0232  XXZ=     9.2982  XZZ=     6.9622  YZZ=    -2.9279
  YYZ=     4.3103  XYZ=     0.3550
 Hexadecapole moment (field-independent basis, Debye-Ang**3):
 XXXX= -1546.3879 YYYY=  -574.9459 ZZZZ=  -172.4929 XXXY=    82.4374
 XXXZ=   -21.4403 YYYX=    11.3293 YYYZ=    -3.6233 ZZZX=    -1.3612
 ZZZY=    -7.0265 XXYY=  -305.1442 XXZZ=  -282.0037 YYZZ=  -127.9658
 XXYZ=     4.4032 YYXZ=    -1.3859 ZZXY=     5.4676
 N-N= 6.111089392543D+02 E-N=-5.958010160342D+03  KE= 1.992329367257D+03
 Merz-Kollman atomic radii used.
 Read replacement radii for each type of atom:
 Rad(20) =   1.188000000000D+00
 Atom Element Radius
    1     8    1.40
    2     8    1.40
    3    15    1.80
    4    20    1.19
    5     8    1.40
    6    20    1.19
    7     8    1.40
    8     1    1.20

 **********************************************************************

            Electrostatic Properties Using The SCF Density

 **********************************************************************

       Atomic Center    1 is at  -2.195599  0.818145 -0.396476
       Atomic Center    2 is at   0.318597  1.661720 -0.575582
       Atomic Center    3 is at  -0.848281  1.202540  0.365471
       Atomic Center    4 is at  -2.033549 -1.373899 -0.160443
       Atomic Center    5 is at  -0.311208 -0.350148  0.837844
       Atomic Center    6 is at   1.849841  0.061574  0.018325
       Atomic Center    7 is at   3.673331 -0.932182 -0.164421
       Atomic Center    8 is at   4.517421 -1.371882 -0.250643
     760 points will be used for fitting atomic charges
 Fitting point charges to eletrostatic potential
 Charges from ESP fit, RMS=   0.01068 RRMS=   0.18031:
 Charge=   0.00000 Dipole=    -4.9262    -8.3148    -0.1141 Tot=     9.6652
              1
     1  O   -0.652889
     2  O   -0.720022
     3  P    0.436236
     4  Ca   1.148743
     5  O   -0.962697
     6  Ca   1.632334
     7  O   -1.350885
     8  H    0.469180
 -----------------------------------------------------------------

              Electrostatic Properties (Atomic Units)

 -----------------------------------------------------------------
    Center     Electric         -------- Electric Field --------
               Potential          X             Y             Z
 -----------------------------------------------------------------
    1 Atom    -22.373959
    2 Atom    -22.381622
    3 Atom    -54.073510
    4 Atom    -80.143011
    5 Atom    -22.352774
    6 Atom    -80.224548
    7 Atom    -22.421393
    8 Atom     -1.100444
 -----------------------------------------------------------------
 1\1\GINC-N023\SP\RB3LYP\6-31G(d,p)\Ca2H1O4P1\TIMN\04-May-2015\0\\# b3l
 yp/6-31G(d,p) pop=(ReadRadii,MK)\\Ca2HPO4_68\\0,1\O,0,-2.1956,0.818144
 ,-0.396476\O,0,0.318595,1.66172,-0.575582\P,0,-0.848283,1.20254,0.3654
 71\Ca,0,-2.03355,-1.3739,-0.160443\O,0,-0.311209,-0.350148,0.837844\Ca
 ,0,1.84984,0.061575,0.018325\O,0,3.67333,-0.93218,-0.164421\H,0,4.5174
 2,-1.37188,-0.250643\\Version=EM64T-G03RevE.01\State=1-A\HF=-1998.1643
 334\RMSD=9.992e-05\Thermal=0.\Dipole=-1.4531715,-2.729994,0.2161915\PG
 =C01 [X(Ca2H1O4P1)]\\@


 NATURE GIVES TO EVERY TIME AND SEASON SOME BEAUTY OF ITS OWN.

                                                    --DICKENS
 Job cpu time:  0 days  0 hours  0 minutes 18.8 seconds.
 File lengths (MBytes):  RWF=     21 Int=      0 D2E=      0 Chk=     10 Scr=      1
 Normal termination of Gaussian 03 at Mon May  4 20:08:46 2015.
