 Entering Gaussian System, Link 0=/home/timn/tmp/g03.e01/g03
 Input=Ca2HPO4_43.xyz.gjf
 Output=Ca2HPO4_43.xyz.out
 Initial command:
 /home/timn/tmp/g03.e01/l1.exe /home/timn/tmp/g03.e01/Gau-11508.inp -scrdir=/home/timn/tmp/g03.e01/
 Default is to use a total of   2 processors:
                                2 via shared-memory
                                1 via Linda
 Entering Link 1 = /home/timn/tmp/g03.e01/l1.exe PID=     11509.
  
 Copyright (c) 1988,1990,1992,1993,1995,1998,2003,2004,2007, Gaussian, Inc.
                  All Rights Reserved.
  
 This is the Gaussian(R) 03 program.  It is based on the
 the Gaussian(R) 98 system (copyright 1998, Gaussian, Inc.),
 the Gaussian(R) 94 system (copyright 1995, Gaussian, Inc.),
 the Gaussian 92(TM) system (copyright 1992, Gaussian, Inc.),
 the Gaussian 90(TM) system (copyright 1990, Gaussian, Inc.),
 the Gaussian 88(TM) system (copyright 1988, Gaussian, Inc.),
 the Gaussian 86(TM) system (copyright 1986, Carnegie Mellon
 University), and the Gaussian 82(TM) system (copyright 1983,
 Carnegie Mellon University). Gaussian is a federally registered
 trademark of Gaussian, Inc.
  
 This software contains proprietary and confidential information,
 including trade secrets, belonging to Gaussian, Inc.
  
 This software is provided under written license and may be
 used, copied, transmitted, or stored only in accord with that
 written license.
  
 The following legend is applicable only to US Government
 contracts under FAR:
  
                    RESTRICTED RIGHTS LEGEND
  
 Use, reproduction and disclosure by the US Government is
 subject to restrictions as set forth in subparagraphs (a)
 and (c) of the Commercial Computer Software - Restricted
 Rights clause in FAR 52.227-19.
  
 Gaussian, Inc.
 340 Quinnipiac St., Bldg. 40, Wallingford CT 06492
  
  
 ---------------------------------------------------------------
 Warning -- This program may not be used in any manner that
 competes with the business of Gaussian, Inc. or will provide
 assistance to any competitor of Gaussian, Inc.  The licensee
 of this program is prohibited from giving any competitor of
 Gaussian, Inc. access to this program.  By using this program,
 the user acknowledges that Gaussian, Inc. is engaged in the
 business of creating and licensing software in the field of
 computational chemistry and represents and warrants to the
 licensee that it is not a competitor of Gaussian, Inc. and that
 it will not use this program in any manner prohibited above.
 ---------------------------------------------------------------
  

 Cite this work as:
 Gaussian 03, Revision E.01,
 M. J. Frisch, G. W. Trucks, H. B. Schlegel, G. E. Scuseria, 
 M. A. Robb, J. R. Cheeseman, J. A. Montgomery, Jr., T. Vreven, 
 K. N. Kudin, J. C. Burant, J. M. Millam, S. S. Iyengar, J. Tomasi, 
 V. Barone, B. Mennucci, M. Cossi, G. Scalmani, N. Rega, 
 G. A. Petersson, H. Nakatsuji, M. Hada, M. Ehara, K. Toyota, 
 R. Fukuda, J. Hasegawa, M. Ishida, T. Nakajima, Y. Honda, O. Kitao, 
 H. Nakai, M. Klene, X. Li, J. E. Knox, H. P. Hratchian, J. B. Cross, 
 V. Bakken, C. Adamo, J. Jaramillo, R. Gomperts, R. E. Stratmann, 
 O. Yazyev, A. J. Austin, R. Cammi, C. Pomelli, J. W. Ochterski, 
 P. Y. Ayala, K. Morokuma, G. A. Voth, P. Salvador, J. J. Dannenberg, 
 V. G. Zakrzewski, S. Dapprich, A. D. Daniels, M. C. Strain, 
 O. Farkas, D. K. Malick, A. D. Rabuck, K. Raghavachari, 
 J. B. Foresman, J. V. Ortiz, Q. Cui, A. G. Baboul, S. Clifford, 
 J. Cioslowski, B. B. Stefanov, G. Liu, A. Liashenko, P. Piskorz, 
 I. Komaromi, R. L. Martin, D. J. Fox, T. Keith, M. A. Al-Laham, 
 C. Y. Peng, A. Nanayakkara, M. Challacombe, P. M. W. Gill, 
 B. Johnson, W. Chen, M. W. Wong, C. Gonzalez, and J. A. Pople, 
 Gaussian, Inc., Wallingford CT, 2004.
 
 ******************************************
 Gaussian 03:  EM64T-G03RevE.01 11-Sep-2007
                 4-May-2015 
 ******************************************
 %nproc=2
 Will use up to    2 processors via shared memory.
 Default route:  MP2=Direct MaxDisk=2000MB
 -------------------------------------
 # b3lyp/6-31G(d,p) pop=(ReadRadii,MK)
 -------------------------------------
 1/38=1/1;
 2/17=6,18=5,40=1/2;
 3/5=1,6=6,7=101,11=2,16=1,25=1,30=1,74=-5/1,2,3;
 4//1;
 5/5=2,32=1,38=5/2;
 6/7=2,8=2,9=2,10=2,15=8,20=101,28=1/1,2;
 99/5=1,9=1/99;
 ----------
 Ca2HPO4_43
 ----------
 Symbolic Z-matrix:
 Charge =  0 Multiplicity = 1
 O                     0.95429   1.44489   0.02446 
 O                     2.11879  -0.81326  -0.01176 
 P                     2.30295   0.72178   0.02604 
 Ca                   -1.39699   1.73478  -0.00938 
 H                    -2.28767   3.65175  -0.00189 
 O                    -1.62818  -0.41232  -0.07379 
 O                    -2.11303  -1.84181   0.12297 
 Ca                    0.05141  -1.8097   -0.0348 
 
                          Input orientation:                          
 ---------------------------------------------------------------------
 Center     Atomic     Atomic              Coordinates (Angstroms)
 Number     Number      Type              X           Y           Z
 ---------------------------------------------------------------------
    1          8             0        0.954289    1.444890    0.024463
    2          8             0        2.118790   -0.813258   -0.011761
    3         15             0        2.302950    0.721783    0.026038
    4         20             0       -1.396990    1.734780   -0.009381
    5          1             0       -2.287670    3.651750   -0.001891
    6          8             0       -1.628180   -0.412316   -0.073793
    7          8             0       -2.113030   -1.841810    0.122969
    8         20             0        0.051412   -1.809700   -0.034804
 ---------------------------------------------------------------------
                    Distance matrix (angstroms):
                    1          2          3          4          5
     1  O    0.000000
     2  O    2.540985   0.000000
     3  P    1.530285   1.546510   0.000000
     4  Ca   2.369324   4.342029   3.836271   0.000000
     5  H    3.921890   6.273220   5.446033   2.113798   0.000000
     6  O    3.182454   3.768871   4.092668   2.160467   4.117855
     7  O    4.496726   4.357106   5.107082   3.649962   5.497753
     8  Ca   3.378025   2.295099   3.388441   3.829080   5.941365
                    6          7          8
     6  O    0.000000
     7  O    1.522251   0.000000
     8  Ca   2.185230   2.170422   0.000000
 Stoichiometry    Ca2HO4P
 Framework group  C1[X(Ca2HO4P)]
 Deg. of freedom    18
 Full point group                 C1
 Largest Abelian subgroup         C1      NOp   1
 Largest concise Abelian subgroup C1      NOp   1
                         Standard orientation:                         
 ---------------------------------------------------------------------
 Center     Atomic     Atomic              Coordinates (Angstroms)
 Number     Number      Type              X           Y           Z
 ---------------------------------------------------------------------
    1          8             0        0.954289    1.444889    0.024463
    2          8             0        2.118790   -0.813259   -0.011761
    3         15             0        2.302950    0.721782    0.026038
    4         20             0       -1.396990    1.734778   -0.009381
    5          1             0       -2.287670    3.651748   -0.001891
    6          8             0       -1.628180   -0.412318   -0.073793
    7          8             0       -2.113029   -1.841812    0.122969
    8         20             0        0.051413   -1.809702   -0.034804
 ---------------------------------------------------------------------
 Rotational constants (GHZ):      1.3280601      1.1240076      0.6093791
 Standard basis: 6-31G(d,p) (6D, 7F)
 There are   130 symmetry adapted basis functions of A   symmetry.
 Integral buffers will be    131072 words long.
 Raffenetti 2 integral format.
 Two-electron integral symmetry is turned on.
   130 basis functions,   323 primitive gaussians,   130 cartesian basis functions
    44 alpha electrons       44 beta electrons
       nuclear repulsion energy       593.6607527463 Hartrees.
 NAtoms=    8 NActive=    8 NUniq=    8 SFac= 7.50D-01 NAtFMM=   80 NAOKFM=F Big=F
 One-electron integrals computed using PRISM.
 NBasis=   130 RedAO= T  NBF=   130
 NBsUse=   130 1.00D-06 NBFU=   130
 Harris functional with IExCor=  402 diagonalized for initial guess.
 ExpMin= 2.60D-02 ExpMax= 3.53D+04 ExpMxC= 5.30D+03 IAcc=3 IRadAn=         5 AccDes= 0.00D+00
 HarFok:  IExCor= 402 AccDes= 0.00D+00 IRadAn=         5 IDoV=1
 ScaDFX=  1.000000  1.000000  1.000000  1.000000
 Initial guess orbital symmetries:
       Occupied  (A) (A) (A) (A) (A) (A) (A) (A) (A) (A) (A) (A)
                 (A) (A) (A) (A) (A) (A) (A) (A) (A) (A) (A) (A)
                 (A) (A) (A) (A) (A) (A) (A) (A) (A) (A) (A) (A)
                 (A) (A) (A) (A) (A) (A) (A) (A)
       Virtual   (A) (A) (A) (A) (A) (A) (A) (A) (A) (A) (A) (A)
                 (A) (A) (A) (A) (A) (A) (A) (A) (A) (A) (A) (A)
                 (A) (A) (A) (A) (A) (A) (A) (A) (A) (A) (A) (A)
                 (A) (A) (A) (A) (A) (A) (A) (A) (A) (A) (A) (A)
                 (A) (A) (A) (A) (A) (A) (A) (A) (A) (A) (A) (A)
                 (A) (A) (A) (A) (A) (A) (A) (A) (A) (A) (A) (A)
                 (A) (A) (A) (A) (A) (A) (A) (A) (A) (A) (A) (A)
                 (A) (A)
 The electronic state of the initial guess is 1-A.
 Requested convergence on RMS density matrix=1.00D-04 within 128 cycles.
 Requested convergence on MAX density matrix=1.00D-02.
 Requested convergence on             energy=1.00D-02.
 No special actions if energy rises.
 Keep R1 integrals in memory in canonical form, NReq=    38354263.
 EnCoef did     1 forward-backward iterations
 SCF Done:  E(RB+HF-LYP) =  -1998.03155302     A.U. after    8 cycles
             Convg  =    0.7690D-04             -V/T =  2.0029
             S**2   =   0.0000

 **********************************************************************

            Population analysis using the SCF density.

 **********************************************************************

 Orbital symmetries:
       Occupied  (A) (A) (A) (A) (A) (A) (A) (A) (A) (A) (A) (A)
                 (A) (A) (A) (A) (A) (A) (A) (A) (A) (A) (A) (A)
                 (A) (A) (A) (A) (A) (A) (A) (A) (A) (A) (A) (A)
                 (A) (A) (A) (A) (A) (A) (A) (A)
       Virtual   (A) (A) (A) (A) (A) (A) (A) (A) (A) (A) (A) (A)
                 (A) (A) (A) (A) (A) (A) (A) (A) (A) (A) (A) (A)
                 (A) (A) (A) (A) (A) (A) (A) (A) (A) (A) (A) (A)
                 (A) (A) (A) (A) (A) (A) (A) (A) (A) (A) (A) (A)
                 (A) (A) (A) (A) (A) (A) (A) (A) (A) (A) (A) (A)
                 (A) (A) (A) (A) (A) (A) (A) (A) (A) (A) (A) (A)
                 (A) (A) (A) (A) (A) (A) (A) (A) (A) (A) (A) (A)
                 (A) (A)
 The electronic state is 1-A.
 Alpha  occ. eigenvalues -- -145.37547-145.33547 -77.18040 -19.16510 -19.15834
 Alpha  occ. eigenvalues --  -19.09299 -19.07065 -15.44720 -15.40802 -12.57977
 Alpha  occ. eigenvalues --  -12.57896 -12.57712 -12.54051 -12.53954 -12.53803
 Alpha  occ. eigenvalues --   -6.63806  -4.80244  -4.79997  -4.79585  -1.82361
 Alpha  occ. eigenvalues --   -1.78442  -1.10423  -1.10385  -1.09893  -1.06557
 Alpha  occ. eigenvalues --   -1.06299  -1.05600  -1.02244  -0.96879  -0.91873
 Alpha  occ. eigenvalues --   -0.71442  -0.55769  -0.45148  -0.41496  -0.41298
 Alpha  occ. eigenvalues --   -0.33890  -0.33844  -0.32307  -0.30579  -0.29480
 Alpha  occ. eigenvalues --   -0.28616  -0.19309  -0.17858  -0.15692
 Alpha virt. eigenvalues --   -0.08247  -0.08194  -0.02230  -0.01951   0.00525
 Alpha virt. eigenvalues --    0.00975   0.02250   0.02298   0.05928   0.06600
 Alpha virt. eigenvalues --    0.08369   0.09425   0.10331   0.11781   0.13613
 Alpha virt. eigenvalues --    0.15195   0.15592   0.17152   0.18198   0.18798
 Alpha virt. eigenvalues --    0.21298   0.23317   0.24179   0.25966   0.26242
 Alpha virt. eigenvalues --    0.29850   0.30663   0.33115   0.35888   0.38467
 Alpha virt. eigenvalues --    0.39779   0.42709   0.43425   0.44829   0.46008
 Alpha virt. eigenvalues --    0.50912   0.64415   0.65440   0.69605   0.86924
 Alpha virt. eigenvalues --    0.97866   0.98485   0.98780   1.01313   1.02125
 Alpha virt. eigenvalues --    1.03227   1.03613   1.06971   1.11708   1.12311
 Alpha virt. eigenvalues --    1.20048   1.21772   1.24394   1.32597   1.34142
 Alpha virt. eigenvalues --    1.42457   1.44796   1.48796   1.64470   1.67522
 Alpha virt. eigenvalues --    1.76623   1.77715   1.79415   1.81412   1.83851
 Alpha virt. eigenvalues --    1.85907   1.93543   1.96672   1.97112   1.97632
 Alpha virt. eigenvalues --    1.98823   2.07538   2.16317   2.17097   2.19660
 Alpha virt. eigenvalues --    2.37157   2.39094   2.40768   2.63528   2.76749
 Alpha virt. eigenvalues --    3.12092   3.46662   3.63696   3.67612   3.73347
 Alpha virt. eigenvalues --    3.90983
          Condensed to atoms (all electrons):
              1          2          3          4          5          6
     1  O    8.281556  -0.035541   0.296259   0.101851  -0.000319  -0.002555
     2  O   -0.035541   8.359627   0.243815  -0.000826   0.000000  -0.000038
     3  P    0.296259   0.243815  13.707391  -0.003161   0.000070  -0.001117
     4  Ca   0.101851  -0.000826  -0.003161  18.554602   0.327087   0.154668
     5  H   -0.000319   0.000000   0.000070   0.327087   0.954902  -0.000323
     6  O   -0.002555  -0.000038  -0.001117   0.154668  -0.000323   8.388920
     7  O    0.000017  -0.000097   0.000178  -0.019411   0.000001   0.017536
     8  Ca   0.001415   0.112245   0.027788  -0.032345   0.012048   0.091888
              7          8
     1  O    0.000017   0.001415
     2  O   -0.000097   0.112245
     3  P    0.000178   0.027788
     4  Ca  -0.019411  -0.032345
     5  H    0.000001   0.012048
     6  O    0.017536   0.091888
     7  O    8.330193   0.183088
     8  Ca   0.183088  18.474367
 Mulliken atomic charges:
              1
     1  O   -0.642682
     2  O   -0.679186
     3  P    0.728776
     4  Ca   0.917535
     5  H   -0.293465
     6  O   -0.648979
     7  O   -0.511505
     8  Ca   1.129506
 Sum of Mulliken charges=   0.00000
 Atomic charges with hydrogens summed into heavy atoms:
              1
     1  O   -0.642682
     2  O   -0.679186
     3  P    0.728776
     4  Ca   0.624070
     5  H    0.000000
     6  O   -0.648979
     7  O   -0.511505
     8  Ca   1.129506
 Sum of Mulliken charges=   0.00000
 Electronic spatial extent (au):  <R**2>=  1676.3349
 Charge=     0.0000 electrons
 Dipole moment (field-independent basis, Debye):
    X=     6.6860    Y=    -6.8695    Z=    -0.3629  Tot=     9.5930
 Quadrupole moment (field-independent basis, Debye-Ang):
   XX=   -92.4517   YY=   -78.7528   ZZ=   -58.8051
   XY=     1.0873   XZ=     0.3002   YZ=     0.9415
 Traceless Quadrupole moment (field-independent basis, Debye-Ang):
   XX=   -15.7818   YY=    -2.0830   ZZ=    17.8648
   XY=     1.0873   XZ=     0.3002   YZ=     0.9415
 Octapole moment (field-independent basis, Debye-Ang**2):
  XXX=    45.9625  YYY=  -184.3664  ZZZ=    -0.7770  XYY=    83.2803
  XXY=   -12.3707  XXZ=    -0.6860  XZZ=     4.2993  YZZ=   -11.2447
  YYZ=    -2.4023  XYZ=    -1.3524
 Hexadecapole moment (field-independent basis, Debye-Ang**3):
 XXXX= -1329.1759 YYYY= -1430.8187 ZZZZ=   -73.2550 XXXY=   104.0469
 XXXZ=     0.7701 YYYX=   259.0009 YYYZ=     4.4419 ZZZX=    -0.2833
 ZZZY=     2.0252 XXYY=  -589.4604 XXZZ=  -201.3042 YYZZ=  -181.5930
 XXYZ=     2.3245 YYXZ=     1.2001 ZZXY=    10.6961
 N-N= 5.936607527463D+02 E-N=-5.921526984989D+03  KE= 1.992215993044D+03
 Merz-Kollman atomic radii used.
 Read replacement radii for each type of atom:
 Rad(20) =   1.188000000000D+00
 Atom Element Radius
    1     8    1.40
    2     8    1.40
    3    15    1.80
    4    20    1.19
    5     1    1.20
    6     8    1.40
    7     8    1.40
    8    20    1.19

 **********************************************************************

            Electrostatic Properties Using The SCF Density

 **********************************************************************

       Atomic Center    1 is at   0.954289  1.444889  0.024463
       Atomic Center    2 is at   2.118790 -0.813259 -0.011761
       Atomic Center    3 is at   2.302950  0.721782  0.026038
       Atomic Center    4 is at  -1.396990  1.734778 -0.009381
       Atomic Center    5 is at  -2.287670  3.651748 -0.001891
       Atomic Center    6 is at  -1.628180 -0.412318 -0.073793
       Atomic Center    7 is at  -2.113029 -1.841812  0.122969
       Atomic Center    8 is at   0.051413 -1.809702 -0.034804
     835 points will be used for fitting atomic charges
 Fitting point charges to eletrostatic potential
 Charges from ESP fit, RMS=   0.00645 RRMS=   0.11509:
 Charge=   0.00000 Dipole=     6.6740    -6.7742    -0.4276 Tot=     9.5192
              1
     1  O   -0.587373
     2  O   -0.604823
     3  P    0.383059
     4  Ca   1.428599
     5  H   -0.715108
     6  O   -0.748058
     7  O   -0.668905
     8  Ca   1.512609
 -----------------------------------------------------------------

              Electrostatic Properties (Atomic Units)

 -----------------------------------------------------------------
    Center     Electric         -------- Electric Field --------
               Potential          X             Y             Z
 -----------------------------------------------------------------
    1 Atom    -22.297452
    2 Atom    -22.306035
    3 Atom    -54.034631
    4 Atom    -80.207578
    5 Atom     -1.233566
    6 Atom    -22.371280
    7 Atom    -22.394001
    8 Atom    -80.167536
 -----------------------------------------------------------------
 1\1\GINC-N038\SP\RB3LYP\6-31G(d,p)\Ca2H1O4P1\TIMN\04-May-2015\0\\# b3l
 yp/6-31G(d,p) pop=(ReadRadii,MK)\\Ca2HPO4_43\\0,1\O,0,0.954289,1.44489
 ,0.024463\O,0,2.11879,-0.813258,-0.011761\P,0,2.30295,0.721783,0.02603
 8\Ca,0,-1.39699,1.73478,-0.009381\H,0,-2.28767,3.65175,-0.001891\O,0,-
 1.62818,-0.412316,-0.073793\O,0,-2.11303,-1.84181,0.122969\Ca,0,0.0514
 12,-1.8097,-0.034804\\Version=EM64T-G03RevE.01\State=1-A\HF=-1998.0315
 53\RMSD=7.690e-05\Thermal=0.\Dipole=2.6304818,-2.7026761,-0.142778\PG=
 C01 [X(Ca2H1O4P1)]\\@


 ALTHOUGH J.J. COULD DIAGNOSE THE FAULTS OF AN
 APPARATUS WITH UNCANNY ACCURACY, IT WAS JUST AS
 WELL NOT TO LET HIM HANDLE IT.
   -- GEORGE THOMPSON, ABOUT HIS FATHER
 Job cpu time:  0 days  0 hours  0 minutes 18.4 seconds.
 File lengths (MBytes):  RWF=     21 Int=      0 D2E=      0 Chk=     10 Scr=      1
 Normal termination of Gaussian 03 at Mon May  4 20:08:36 2015.
