 Entering Gaussian System, Link 0=/home/timn/tmp/g03.e01/g03
 Input=Ca2HPO4_56.xyz.gjf
 Output=Ca2HPO4_56.xyz.out
 Initial command:
 /home/timn/tmp/g03.e01/l1.exe /home/timn/tmp/g03.e01/Gau-6266.inp -scrdir=/home/timn/tmp/g03.e01/
 Default is to use a total of   2 processors:
                                2 via shared-memory
                                1 via Linda
 Entering Link 1 = /home/timn/tmp/g03.e01/l1.exe PID=      6267.
  
 Copyright (c) 1988,1990,1992,1993,1995,1998,2003,2004,2007, Gaussian, Inc.
                  All Rights Reserved.
  
 This is the Gaussian(R) 03 program.  It is based on the
 the Gaussian(R) 98 system (copyright 1998, Gaussian, Inc.),
 the Gaussian(R) 94 system (copyright 1995, Gaussian, Inc.),
 the Gaussian 92(TM) system (copyright 1992, Gaussian, Inc.),
 the Gaussian 90(TM) system (copyright 1990, Gaussian, Inc.),
 the Gaussian 88(TM) system (copyright 1988, Gaussian, Inc.),
 the Gaussian 86(TM) system (copyright 1986, Carnegie Mellon
 University), and the Gaussian 82(TM) system (copyright 1983,
 Carnegie Mellon University). Gaussian is a federally registered
 trademark of Gaussian, Inc.
  
 This software contains proprietary and confidential information,
 including trade secrets, belonging to Gaussian, Inc.
  
 This software is provided under written license and may be
 used, copied, transmitted, or stored only in accord with that
 written license.
  
 The following legend is applicable only to US Government
 contracts under FAR:
  
                    RESTRICTED RIGHTS LEGEND
  
 Use, reproduction and disclosure by the US Government is
 subject to restrictions as set forth in subparagraphs (a)
 and (c) of the Commercial Computer Software - Restricted
 Rights clause in FAR 52.227-19.
  
 Gaussian, Inc.
 340 Quinnipiac St., Bldg. 40, Wallingford CT 06492
  
  
 ---------------------------------------------------------------
 Warning -- This program may not be used in any manner that
 competes with the business of Gaussian, Inc. or will provide
 assistance to any competitor of Gaussian, Inc.  The licensee
 of this program is prohibited from giving any competitor of
 Gaussian, Inc. access to this program.  By using this program,
 the user acknowledges that Gaussian, Inc. is engaged in the
 business of creating and licensing software in the field of
 computational chemistry and represents and warrants to the
 licensee that it is not a competitor of Gaussian, Inc. and that
 it will not use this program in any manner prohibited above.
 ---------------------------------------------------------------
  

 Cite this work as:
 Gaussian 03, Revision E.01,
 M. J. Frisch, G. W. Trucks, H. B. Schlegel, G. E. Scuseria, 
 M. A. Robb, J. R. Cheeseman, J. A. Montgomery, Jr., T. Vreven, 
 K. N. Kudin, J. C. Burant, J. M. Millam, S. S. Iyengar, J. Tomasi, 
 V. Barone, B. Mennucci, M. Cossi, G. Scalmani, N. Rega, 
 G. A. Petersson, H. Nakatsuji, M. Hada, M. Ehara, K. Toyota, 
 R. Fukuda, J. Hasegawa, M. Ishida, T. Nakajima, Y. Honda, O. Kitao, 
 H. Nakai, M. Klene, X. Li, J. E. Knox, H. P. Hratchian, J. B. Cross, 
 V. Bakken, C. Adamo, J. Jaramillo, R. Gomperts, R. E. Stratmann, 
 O. Yazyev, A. J. Austin, R. Cammi, C. Pomelli, J. W. Ochterski, 
 P. Y. Ayala, K. Morokuma, G. A. Voth, P. Salvador, J. J. Dannenberg, 
 V. G. Zakrzewski, S. Dapprich, A. D. Daniels, M. C. Strain, 
 O. Farkas, D. K. Malick, A. D. Rabuck, K. Raghavachari, 
 J. B. Foresman, J. V. Ortiz, Q. Cui, A. G. Baboul, S. Clifford, 
 J. Cioslowski, B. B. Stefanov, G. Liu, A. Liashenko, P. Piskorz, 
 I. Komaromi, R. L. Martin, D. J. Fox, T. Keith, M. A. Al-Laham, 
 C. Y. Peng, A. Nanayakkara, M. Challacombe, P. M. W. Gill, 
 B. Johnson, W. Chen, M. W. Wong, C. Gonzalez, and J. A. Pople, 
 Gaussian, Inc., Wallingford CT, 2004.
 
 ******************************************
 Gaussian 03:  EM64T-G03RevE.01 11-Sep-2007
                 4-May-2015 
 ******************************************
 %nproc=2
 Will use up to    2 processors via shared memory.
 Default route:  MP2=Direct MaxDisk=2000MB
 -------------------------------------
 # b3lyp/6-31G(d,p) pop=(ReadRadii,MK)
 -------------------------------------
 1/38=1/1;
 2/17=6,18=5,40=1/2;
 3/5=1,6=6,7=101,11=2,16=1,25=1,30=1,74=-5/1,2,3;
 4//1;
 5/5=2,32=1,38=5/2;
 6/7=2,8=2,9=2,10=2,15=8,20=101,28=1/1,2;
 99/5=1,9=1/99;
 ----------
 Ca2HPO4_56
 ----------
 Symbolic Z-matrix:
 Charge =  0 Multiplicity = 1
 O                     3.52169   0.72697   0. 
 P                     1.77207   0.65818   0. 
 H                     3.89756  -0.17168   0. 
 O                     0.        0.79723   0. 
 Ca                   -2.18415   1.15685   0. 
 O                    -2.53194  -0.93526   0. 
 Ca                   -0.43801  -1.5076    0. 
 O                     1.75583  -0.9247    0. 
 
                          Input orientation:                          
 ---------------------------------------------------------------------
 Center     Atomic     Atomic              Coordinates (Angstroms)
 Number     Number      Type              X           Y           Z
 ---------------------------------------------------------------------
    1          8             0        3.521690    0.726970    0.000000
    2         15             0        1.772070    0.658179    0.000000
    3          1             0        3.897560   -0.171681    0.000000
    4          8             0        0.000000    0.797233    0.000000
    5         20             0       -2.184150    1.156850    0.000000
    6          8             0       -2.531940   -0.935256    0.000000
    7         20             0       -0.438012   -1.507600    0.000000
    8          8             0        1.755830   -0.924702    0.000000
 ---------------------------------------------------------------------
                    Distance matrix (angstroms):
                    1          2          3          4          5
     1  O    0.000000
     2  P    1.750972   0.000000
     3  H    0.974090   2.281748   0.000000
     4  O    3.522391   1.777517   4.016188   0.000000
     5  Ca   5.722011   3.987524   6.225126   2.213557   0.000000
     6  O    6.277693   4.589503   6.474683   3.067937   2.120817
     7  Ca   4.546707   3.094360   4.536724   2.346084   3.185638
     8  O    2.417909   1.582964   2.270253   2.459268   4.456041
                    6          7          8
     6  O    0.000000
     7  Ca   2.170740   0.000000
     8  O    4.287783   2.269959   0.000000
 Stoichiometry    Ca2HO4P
 Framework group  CS[SG(Ca2HO4P)]
 Deg. of freedom    13
 Full point group                 CS
 Largest Abelian subgroup         CS      NOp   2
 Largest concise Abelian subgroup C1      NOp   1
                         Standard orientation:                         
 ---------------------------------------------------------------------
 Center     Atomic     Atomic              Coordinates (Angstroms)
 Number     Number      Type              X           Y           Z
 ---------------------------------------------------------------------
    1          8             0        3.521690    0.726970    0.000000
    2         15             0        1.772070    0.658179    0.000000
    3          1             0        3.897560   -0.171681    0.000000
    4          8             0        0.000000    0.797233    0.000000
    5         20             0       -2.184150    1.156851    0.000000
    6          8             0       -2.531940   -0.935255    0.000000
    7         20             0       -0.438012   -1.507600    0.000000
    8          8             0        1.755830   -0.924702    0.000000
 ---------------------------------------------------------------------
 Rotational constants (GHZ):      2.4818551      0.7639943      0.5841686
 Standard basis: 6-31G(d,p) (6D, 7F)
 There are    96 symmetry adapted basis functions of A'  symmetry.
 There are    34 symmetry adapted basis functions of A"  symmetry.
 Integral buffers will be    131072 words long.
 Raffenetti 2 integral format.
 Two-electron integral symmetry is turned on.
   130 basis functions,   323 primitive gaussians,   130 cartesian basis functions
    44 alpha electrons       44 beta electrons
       nuclear repulsion energy       603.6457261744 Hartrees.
 NAtoms=    8 NActive=    8 NUniq=    8 SFac= 7.50D-01 NAtFMM=   80 NAOKFM=F Big=F
 One-electron integrals computed using PRISM.
 NBasis=   130 RedAO= T  NBF=    96    34
 NBsUse=   130 1.00D-06 NBFU=    96    34
 Harris functional with IExCor=  402 diagonalized for initial guess.
 ExpMin= 2.60D-02 ExpMax= 3.53D+04 ExpMxC= 5.30D+03 IAcc=3 IRadAn=         5 AccDes= 0.00D+00
 HarFok:  IExCor= 402 AccDes= 0.00D+00 IRadAn=         5 IDoV=1
 ScaDFX=  1.000000  1.000000  1.000000  1.000000
 Initial guess orbital symmetries:
       Occupied  (A') (A') (A') (A') (A') (A') (A') (A') (A') (A')
                 (A') (A') (A") (A') (A") (A') (A') (A') (A") (A')
                 (A') (A') (A') (A') (A') (A") (A") (A') (A') (A')
                 (A') (A') (A') (A') (A') (A") (A') (A') (A') (A")
                 (A") (A') (A") (A')
       Virtual   (A") (A') (A') (A") (A') (A') (A") (A') (A') (A')
                 (A') (A') (A") (A') (A') (A') (A") (A') (A") (A')
                 (A") (A') (A") (A') (A") (A') (A') (A') (A") (A')
                 (A') (A') (A') (A') (A') (A') (A") (A') (A") (A')
                 (A') (A") (A') (A') (A") (A') (A") (A") (A') (A')
                 (A') (A') (A') (A') (A') (A') (A') (A') (A") (A')
                 (A") (A") (A") (A') (A") (A') (A") (A') (A') (A')
                 (A") (A") (A') (A') (A') (A') (A') (A') (A") (A')
                 (A') (A') (A') (A') (A') (A')
 The electronic state of the initial guess is 1-A'.
 Requested convergence on RMS density matrix=1.00D-04 within 128 cycles.
 Requested convergence on MAX density matrix=1.00D-02.
 Requested convergence on             energy=1.00D-02.
 No special actions if energy rises.
 Keep R1 integrals in memory in canonical form, NReq=    38354153.
 EnCoef did     2 forward-backward iterations
 EnCoef did     4 forward-backward iterations
 EnCoef did     4 forward-backward iterations
 EnCoef did     2 forward-backward iterations
 SCF Done:  E(RB+HF-LYP) =  -1998.04955988     A.U. after   11 cycles
             Convg  =    0.7066D-04             -V/T =  2.0029
             S**2   =   0.0000

 **********************************************************************

            Population analysis using the SCF density.

 **********************************************************************

 Orbital symmetries:
       Occupied  (A') (A') (A') (A') (A') (A') (A') (A') (A') (A")
                 (A') (A') (A") (A') (A') (A') (A") (A') (A') (A')
                 (A') (A") (A') (A') (A") (A') (A') (A') (A') (A')
                 (A') (A') (A') (A') (A") (A') (A') (A") (A") (A')
                 (A') (A') (A") (A')
       Virtual   (A') (A') (A") (A") (A") (A') (A') (A') (A') (A')
                 (A') (A") (A') (A') (A") (A') (A') (A") (A') (A')
                 (A") (A') (A') (A") (A") (A') (A') (A") (A') (A')
                 (A') (A') (A') (A') (A') (A') (A") (A') (A") (A')
                 (A') (A') (A") (A') (A") (A') (A") (A') (A") (A')
                 (A') (A') (A') (A') (A') (A') (A') (A') (A") (A')
                 (A") (A") (A") (A') (A') (A') (A") (A") (A') (A")
                 (A") (A') (A') (A') (A') (A') (A') (A") (A') (A')
                 (A') (A') (A') (A') (A') (A')
 The electronic state is 1-A'.
 Alpha  occ. eigenvalues -- -145.35747-145.31912 -77.12853 -19.08122 -19.07901
 Alpha  occ. eigenvalues --  -19.05997 -18.99737 -15.42842 -15.39163 -12.56062
 Alpha  occ. eigenvalues --  -12.55988 -12.55896 -12.52410 -12.52335 -12.52134
 Alpha  occ. eigenvalues --   -6.57573  -4.73989  -4.73859  -4.73476  -1.80354
 Alpha  occ. eigenvalues --   -1.76984  -1.08255  -1.08037  -1.07342  -1.05152
 Alpha  occ. eigenvalues --   -1.04830  -1.04037  -0.94584  -0.89408  -0.84140
 Alpha  occ. eigenvalues --   -0.73621  -0.51518  -0.41227  -0.36859  -0.33103
 Alpha  occ. eigenvalues --   -0.31961  -0.26394  -0.25081  -0.23951  -0.22641
 Alpha  occ. eigenvalues --   -0.19308  -0.18198  -0.17662  -0.15205
 Alpha virt. eigenvalues --   -0.08818  -0.04764  -0.01641  -0.01579   0.00444
 Alpha virt. eigenvalues --    0.00500   0.01162   0.03546   0.04065   0.06590
 Alpha virt. eigenvalues --    0.09394   0.12616   0.13465   0.14877   0.15135
 Alpha virt. eigenvalues --    0.17002   0.17144   0.20438   0.20594   0.22041
 Alpha virt. eigenvalues --    0.23448   0.26073   0.26550   0.27008   0.30875
 Alpha virt. eigenvalues --    0.33852   0.34988   0.36860   0.39762   0.41141
 Alpha virt. eigenvalues --    0.43911   0.44693   0.46188   0.49563   0.51665
 Alpha virt. eigenvalues --    0.64608   0.67659   0.71075   0.71689   0.85698
 Alpha virt. eigenvalues --    0.91646   0.97732   1.03074   1.03773   1.04899
 Alpha virt. eigenvalues --    1.08479   1.11144   1.13610   1.14692   1.17415
 Alpha virt. eigenvalues --    1.24187   1.27241   1.28378   1.31251   1.39981
 Alpha virt. eigenvalues --    1.45295   1.52895   1.60896   1.64647   1.78840
 Alpha virt. eigenvalues --    1.85626   1.86858   1.88574   1.90156   1.93204
 Alpha virt. eigenvalues --    1.96107   1.97220   1.97467   1.99759   2.02378
 Alpha virt. eigenvalues --    2.03081   2.03425   2.08864   2.18396   2.32185
 Alpha virt. eigenvalues --    2.39965   2.50912   2.69322   2.69399   2.82082
 Alpha virt. eigenvalues --    3.43683   3.64752   3.74310   3.81021   3.82825
 Alpha virt. eigenvalues --    4.07473
          Condensed to atoms (all electrons):
              1          2          3          4          5          6
     1  O    8.446756  -0.014092   0.238467   0.004322  -0.001234   0.000000
     2  P   -0.014092  13.822350   0.013207  -0.042553   0.016621  -0.000990
     3  H    0.238467   0.013207   0.451900  -0.000491   0.000296   0.000000
     4  O    0.004322  -0.042553  -0.000491   8.730966   0.138782  -0.007355
     5  Ca  -0.001234   0.016621   0.000296   0.138782  18.759220   0.252767
     6  O    0.000000  -0.000990   0.000000  -0.007355   0.252767   8.431413
     7  Ca  -0.022743   0.091357   0.009870   0.072357  -0.181653   0.211411
     8  O   -0.040116   0.268463   0.004378  -0.046576   0.001912  -0.000094
              7          8
     1  O   -0.022743  -0.040116
     2  P    0.091357   0.268463
     3  H    0.009870   0.004378
     4  O    0.072357  -0.046576
     5  Ca  -0.181653   0.001912
     6  O    0.211411  -0.000094
     7  Ca  18.748720   0.126724
     8  O    0.126724   8.422605
 Mulliken atomic charges:
              1
     1  O   -0.611360
     2  P    0.845637
     3  H    0.282374
     4  O   -0.849450
     5  Ca   1.013289
     6  O   -0.887152
     7  Ca   0.943957
     8  O   -0.737295
 Sum of Mulliken charges=   0.00000
 Atomic charges with hydrogens summed into heavy atoms:
              1
     1  O   -0.328986
     2  P    0.845637
     3  H    0.000000
     4  O   -0.849450
     5  Ca   1.013289
     6  O   -0.887152
     7  Ca   0.943957
     8  O   -0.737295
 Sum of Mulliken charges=   0.00000
 Electronic spatial extent (au):  <R**2>=  1711.3699
 Charge=     0.0000 electrons
 Dipole moment (field-independent basis, Debye):
    X=    -5.9893    Y=     0.5253    Z=     0.0000  Tot=     6.0123
 Quadrupole moment (field-independent basis, Debye-Ang):
   XX=   -83.1181   YY=   -50.3793   ZZ=   -61.6161
   XY=   -27.3859   XZ=     0.0000   YZ=     0.0000
 Traceless Quadrupole moment (field-independent basis, Debye-Ang):
   XX=   -18.0803   YY=    14.6585   ZZ=     3.4218
   XY=   -27.3859   XZ=     0.0000   YZ=     0.0000
 Octapole moment (field-independent basis, Debye-Ang**2):
  XXX=   -17.0466  YYY=   -20.2283  ZZZ=     0.0000  XYY=   -31.0829
  XXY=    45.7130  XXZ=     0.0000  XZZ=    -3.2270  YZZ=    -1.8306
  YYZ=     0.0000  XYZ=     0.0000
 Hexadecapole moment (field-independent basis, Debye-Ang**3):
 XXXX= -1750.2262 YYYY=  -436.3656 ZZZZ=   -96.3748 XXXY=  -309.1989
 XXXZ=     0.0000 YYYX=   -74.6764 YYYZ=     0.0000 ZZZX=     0.0000
 ZZZY=     0.0000 XXYY=  -356.8725 XXZZ=  -277.8427 YYZZ=   -94.9564
 XXYZ=     0.0000 YYXZ=     0.0000 ZZXY=   -17.8367
 N-N= 6.036457261744D+02 E-N=-5.945056057248D+03  KE= 1.992287582469D+03
 Symmetry A'   KE= 1.802595102135D+03
 Symmetry A"   KE= 1.896924803337D+02
 Merz-Kollman atomic radii used.
 Read replacement radii for each type of atom:
 Rad(20) =   1.188000000000D+00
 Atom Element Radius
    1     8    1.40
    2    15    1.80
    3     1    1.20
    4     8    1.40
    5    20    1.19
    6     8    1.40
    7    20    1.19
    8     8    1.40

 **********************************************************************

            Electrostatic Properties Using The SCF Density

 **********************************************************************

       Atomic Center    1 is at   3.521690  0.726970  0.000000
       Atomic Center    2 is at   1.772070  0.658179  0.000000
       Atomic Center    3 is at   3.897560 -0.171681  0.000000
       Atomic Center    4 is at   0.000000  0.797233  0.000000
       Atomic Center    5 is at  -2.184150  1.156851  0.000000
       Atomic Center    6 is at  -2.531940 -0.935255  0.000000
       Atomic Center    7 is at  -0.438012 -1.507600  0.000000
       Atomic Center    8 is at   1.755830 -0.924702  0.000000
     715 points will be used for fitting atomic charges
 Fitting point charges to eletrostatic potential
 Charges from ESP fit, RMS=   0.00683 RRMS=   0.11132:
 Charge=   0.00000 Dipole=    -6.8059     0.7699     0.0000 Tot=     6.8493
              1
     1  O   -0.737698
     2  P    0.597126
     3  H    0.425820
     4  O   -1.131218
     5  Ca   1.417511
     6  O   -1.391669
     7  Ca   1.551795
     8  O   -0.731667
 -----------------------------------------------------------------

              Electrostatic Properties (Atomic Units)

 -----------------------------------------------------------------
    Center     Electric         -------- Electric Field --------
               Potential          X             Y             Z
 -----------------------------------------------------------------
    1 Atom    -22.386510
    2 Atom    -54.090979
    3 Atom     -1.066496
    4 Atom    -22.407053
    5 Atom    -80.186517
    6 Atom    -22.464308
    7 Atom    -80.222846
    8 Atom    -22.385397
 -----------------------------------------------------------------
 1\1\GINC-N027\SP\RB3LYP\6-31G(d,p)\Ca2H1O4P1\TIMN\04-May-2015\0\\# b3l
 yp/6-31G(d,p) pop=(ReadRadii,MK)\\Ca2HPO4_56\\0,1\O,0,3.52169,0.72697,
 0.\P,0,1.77207,0.658179,0.\H,0,3.89756,-0.171681,0.\O,0,0.,0.797233,0.
 \Ca,0,-2.18415,1.15685,0.\O,0,-2.53194,-0.935256,0.\Ca,0,-0.438012,-1.
 5076,0.\O,0,1.75583,-0.924702,0.\\Version=EM64T-G03RevE.01\State=1-A'\
 HF=-1998.0495599\RMSD=7.066e-05\Thermal=0.\Dipole=-2.356371,0.2066582,
 0.\PG=CS [SG(Ca2H1O4P1)]\\@


 "WHERE SHALL I START, PLEASE YOUR MAJESTY?" HE ASKED.
 "BEGIN AT THE BEGINNING," THE KING SAID GRAVELY,
 "AND GO ON TILL YOU COME TO THE END: THEN STOP." 

                                      -- LEWIS CARROLL
 Job cpu time:  0 days  0 hours  0 minutes 17.5 seconds.
 File lengths (MBytes):  RWF=     21 Int=      0 D2E=      0 Chk=     10 Scr=      1
 Normal termination of Gaussian 03 at Mon May  4 20:41:34 2015.
