 Entering Gaussian System, Link 0=/home/timn/tmp/g03.e01/g03
 Input=Ca2HPO4_53.xyz.gjf
 Output=Ca2HPO4_53.xyz.out
 Initial command:
 /home/timn/tmp/g03.e01/l1.exe /home/timn/tmp/g03.e01/Gau-3553.inp -scrdir=/home/timn/tmp/g03.e01/
 Default is to use a total of   2 processors:
                                2 via shared-memory
                                1 via Linda
 Entering Link 1 = /home/timn/tmp/g03.e01/l1.exe PID=      3554.
  
 Copyright (c) 1988,1990,1992,1993,1995,1998,2003,2004,2007, Gaussian, Inc.
                  All Rights Reserved.
  
 This is the Gaussian(R) 03 program.  It is based on the
 the Gaussian(R) 98 system (copyright 1998, Gaussian, Inc.),
 the Gaussian(R) 94 system (copyright 1995, Gaussian, Inc.),
 the Gaussian 92(TM) system (copyright 1992, Gaussian, Inc.),
 the Gaussian 90(TM) system (copyright 1990, Gaussian, Inc.),
 the Gaussian 88(TM) system (copyright 1988, Gaussian, Inc.),
 the Gaussian 86(TM) system (copyright 1986, Carnegie Mellon
 University), and the Gaussian 82(TM) system (copyright 1983,
 Carnegie Mellon University). Gaussian is a federally registered
 trademark of Gaussian, Inc.
  
 This software contains proprietary and confidential information,
 including trade secrets, belonging to Gaussian, Inc.
  
 This software is provided under written license and may be
 used, copied, transmitted, or stored only in accord with that
 written license.
  
 The following legend is applicable only to US Government
 contracts under FAR:
  
                    RESTRICTED RIGHTS LEGEND
  
 Use, reproduction and disclosure by the US Government is
 subject to restrictions as set forth in subparagraphs (a)
 and (c) of the Commercial Computer Software - Restricted
 Rights clause in FAR 52.227-19.
  
 Gaussian, Inc.
 340 Quinnipiac St., Bldg. 40, Wallingford CT 06492
  
  
 ---------------------------------------------------------------
 Warning -- This program may not be used in any manner that
 competes with the business of Gaussian, Inc. or will provide
 assistance to any competitor of Gaussian, Inc.  The licensee
 of this program is prohibited from giving any competitor of
 Gaussian, Inc. access to this program.  By using this program,
 the user acknowledges that Gaussian, Inc. is engaged in the
 business of creating and licensing software in the field of
 computational chemistry and represents and warrants to the
 licensee that it is not a competitor of Gaussian, Inc. and that
 it will not use this program in any manner prohibited above.
 ---------------------------------------------------------------
  

 Cite this work as:
 Gaussian 03, Revision E.01,
 M. J. Frisch, G. W. Trucks, H. B. Schlegel, G. E. Scuseria, 
 M. A. Robb, J. R. Cheeseman, J. A. Montgomery, Jr., T. Vreven, 
 K. N. Kudin, J. C. Burant, J. M. Millam, S. S. Iyengar, J. Tomasi, 
 V. Barone, B. Mennucci, M. Cossi, G. Scalmani, N. Rega, 
 G. A. Petersson, H. Nakatsuji, M. Hada, M. Ehara, K. Toyota, 
 R. Fukuda, J. Hasegawa, M. Ishida, T. Nakajima, Y. Honda, O. Kitao, 
 H. Nakai, M. Klene, X. Li, J. E. Knox, H. P. Hratchian, J. B. Cross, 
 V. Bakken, C. Adamo, J. Jaramillo, R. Gomperts, R. E. Stratmann, 
 O. Yazyev, A. J. Austin, R. Cammi, C. Pomelli, J. W. Ochterski, 
 P. Y. Ayala, K. Morokuma, G. A. Voth, P. Salvador, J. J. Dannenberg, 
 V. G. Zakrzewski, S. Dapprich, A. D. Daniels, M. C. Strain, 
 O. Farkas, D. K. Malick, A. D. Rabuck, K. Raghavachari, 
 J. B. Foresman, J. V. Ortiz, Q. Cui, A. G. Baboul, S. Clifford, 
 J. Cioslowski, B. B. Stefanov, G. Liu, A. Liashenko, P. Piskorz, 
 I. Komaromi, R. L. Martin, D. J. Fox, T. Keith, M. A. Al-Laham, 
 C. Y. Peng, A. Nanayakkara, M. Challacombe, P. M. W. Gill, 
 B. Johnson, W. Chen, M. W. Wong, C. Gonzalez, and J. A. Pople, 
 Gaussian, Inc., Wallingford CT, 2004.
 
 ******************************************
 Gaussian 03:  EM64T-G03RevE.01 11-Sep-2007
                 4-May-2015 
 ******************************************
 %nproc=2
 Will use up to    2 processors via shared memory.
 Default route:  MP2=Direct MaxDisk=2000MB
 -------------------------------------
 # b3lyp/6-31G(d,p) pop=(ReadRadii,MK)
 -------------------------------------
 1/38=1/1;
 2/17=6,18=5,40=1/2;
 3/5=1,6=6,7=101,11=2,16=1,25=1,30=1,74=-5/1,2,3;
 4//1;
 5/5=2,32=1,38=5/2;
 6/7=2,8=2,9=2,10=2,15=8,20=101,28=1/1,2;
 99/5=1,9=1/99;
 ----------
 Ca2HPO4_53
 ----------
 Symbolic Z-matrix:
 Charge =  0 Multiplicity = 1
 O                    -1.3344   -1.33335  -0.67819 
 P                    -1.54723  -0.01407   0.10458 
 H                    -2.82939  -0.02601   0.68817 
 O                    -1.35874   1.30993  -0.67646 
 O                     2.14762   0.01968  -0.42065 
 Ca                    0.83525   1.64289   0.04641 
 Ca                    0.86618  -1.62758   0.04653 
 O                    -0.45335  -0.00489   1.26082 
 
                          Input orientation:                          
 ---------------------------------------------------------------------
 Center     Atomic     Atomic              Coordinates (Angstroms)
 Number     Number      Type              X           Y           Z
 ---------------------------------------------------------------------
    1          8             0       -1.334400   -1.333350   -0.678190
    2         15             0       -1.547230   -0.014073    0.104583
    3          1             0       -2.829390   -0.026007    0.688166
    4          8             0       -1.358740    1.309930   -0.676456
    5          8             0        2.147620    0.019684   -0.420653
    6         20             0        0.835254    1.642890    0.046413
    7         20             0        0.866182   -1.627580    0.046532
    8          8             0       -0.453346   -0.004892    1.260820
 ---------------------------------------------------------------------
                    Distance matrix (angstroms):
                    1          2          3          4          5
     1  O    0.000000
     2  P    1.548716   0.000000
     3  H    2.410616   1.408775   0.000000
     4  O    2.643393   1.548720   2.410339   0.000000
     5  O    3.744528   3.732148   5.099235   3.744961   0.000000
     6  Ca   3.753725   2.902609   4.077583   2.333883   2.138984
     7  Ca   2.335456   2.903676   4.078478   3.755257   2.138650
     8  O    2.510143   1.591713   2.444169   2.510286   3.097254
                    6          7          8
     6  Ca   0.000000
     7  Ca   3.270616   0.000000
     8  O    2.418772   2.418422   0.000000
 Stoichiometry    Ca2HO4P
 Framework group  C1[X(Ca2HO4P)]
 Deg. of freedom    18
 Full point group                 C1
 Largest Abelian subgroup         C1      NOp   1
 Largest concise Abelian subgroup C1      NOp   1
                         Standard orientation:                         
 ---------------------------------------------------------------------
 Center     Atomic     Atomic              Coordinates (Angstroms)
 Number     Number      Type              X           Y           Z
 ---------------------------------------------------------------------
    1          8             0       -1.334417   -1.333334   -0.678190
    2         15             0       -1.547230   -0.014054    0.104583
    3          1             0       -2.829390   -0.025971    0.688166
    4          8             0       -1.358723    1.309947   -0.676456
    5          8             0        2.147621    0.019655   -0.420653
    6         20             0        0.835276    1.642878    0.046413
    7         20             0        0.866162   -1.627592    0.046532
    8          8             0       -0.453346   -0.004887    1.260820
 ---------------------------------------------------------------------
 Rotational constants (GHZ):      1.6119258      1.5839563      0.9276850
 Standard basis: 6-31G(d,p) (6D, 7F)
 There are   130 symmetry adapted basis functions of A   symmetry.
 Integral buffers will be    131072 words long.
 Raffenetti 2 integral format.
 Two-electron integral symmetry is turned on.
   130 basis functions,   323 primitive gaussians,   130 cartesian basis functions
    44 alpha electrons       44 beta electrons
       nuclear repulsion energy       665.5391938778 Hartrees.
 NAtoms=    8 NActive=    8 NUniq=    8 SFac= 7.50D-01 NAtFMM=   80 NAOKFM=F Big=F
 One-electron integrals computed using PRISM.
 NBasis=   130 RedAO= T  NBF=   130
 NBsUse=   130 1.00D-06 NBFU=   130
 Harris functional with IExCor=  402 diagonalized for initial guess.
 ExpMin= 2.60D-02 ExpMax= 3.53D+04 ExpMxC= 5.30D+03 IAcc=3 IRadAn=         5 AccDes= 0.00D+00
 HarFok:  IExCor= 402 AccDes= 0.00D+00 IRadAn=         5 IDoV=1
 ScaDFX=  1.000000  1.000000  1.000000  1.000000
 Initial guess orbital symmetries:
       Occupied  (A) (A) (A) (A) (A) (A) (A) (A) (A) (A) (A) (A)
                 (A) (A) (A) (A) (A) (A) (A) (A) (A) (A) (A) (A)
                 (A) (A) (A) (A) (A) (A) (A) (A) (A) (A) (A) (A)
                 (A) (A) (A) (A) (A) (A) (A) (A)
       Virtual   (A) (A) (A) (A) (A) (A) (A) (A) (A) (A) (A) (A)
                 (A) (A) (A) (A) (A) (A) (A) (A) (A) (A) (A) (A)
                 (A) (A) (A) (A) (A) (A) (A) (A) (A) (A) (A) (A)
                 (A) (A) (A) (A) (A) (A) (A) (A) (A) (A) (A) (A)
                 (A) (A) (A) (A) (A) (A) (A) (A) (A) (A) (A) (A)
                 (A) (A) (A) (A) (A) (A) (A) (A) (A) (A) (A) (A)
                 (A) (A) (A) (A) (A) (A) (A) (A) (A) (A) (A) (A)
                 (A) (A)
 The electronic state of the initial guess is 1-A.
 Requested convergence on RMS density matrix=1.00D-04 within 128 cycles.
 Requested convergence on MAX density matrix=1.00D-02.
 Requested convergence on             energy=1.00D-02.
 No special actions if energy rises.
 Keep R1 integrals in memory in canonical form, NReq=    38353971.
 EnCoef did     3 forward-backward iterations
 SCF Done:  E(RB+HF-LYP) =  -1998.18466319     A.U. after    8 cycles
             Convg  =    0.4931D-04             -V/T =  2.0030
             S**2   =   0.0000

 **********************************************************************

            Population analysis using the SCF density.

 **********************************************************************

 Orbital symmetries:
       Occupied  (A) (A) (A) (A) (A) (A) (A) (A) (A) (A) (A) (A)
                 (A) (A) (A) (A) (A) (A) (A) (A) (A) (A) (A) (A)
                 (A) (A) (A) (A) (A) (A) (A) (A) (A) (A) (A) (A)
                 (A) (A) (A) (A) (A) (A) (A) (A)
       Virtual   (A) (A) (A) (A) (A) (A) (A) (A) (A) (A) (A) (A)
                 (A) (A) (A) (A) (A) (A) (A) (A) (A) (A) (A) (A)
                 (A) (A) (A) (A) (A) (A) (A) (A) (A) (A) (A) (A)
                 (A) (A) (A) (A) (A) (A) (A) (A) (A) (A) (A) (A)
                 (A) (A) (A) (A) (A) (A) (A) (A) (A) (A) (A) (A)
                 (A) (A) (A) (A) (A) (A) (A) (A) (A) (A) (A) (A)
                 (A) (A) (A) (A) (A) (A) (A) (A) (A) (A) (A) (A)
                 (A) (A)
 The electronic state is 1-A.
 Alpha  occ. eigenvalues -- -145.33871-145.33864 -77.15635 -19.08572 -19.07756
 Alpha  occ. eigenvalues --  -19.07751 -18.98689 -15.40979 -15.40973 -12.54182
 Alpha  occ. eigenvalues --  -12.54176 -12.54166 -12.54160 -12.54022 -12.54015
 Alpha  occ. eigenvalues --   -6.60628  -4.76996  -4.76897  -4.76865  -1.78577
 Alpha  occ. eigenvalues --   -1.78499  -1.07219  -1.06328  -1.06305  -1.06079
 Alpha  occ. eigenvalues --   -1.05937  -1.05146  -0.97025  -0.89657  -0.89145
 Alpha  occ. eigenvalues --   -0.72738  -0.52417  -0.41394  -0.38166  -0.37702
 Alpha  occ. eigenvalues --   -0.31285  -0.29084  -0.27399  -0.26166  -0.26020
 Alpha  occ. eigenvalues --   -0.23314  -0.18583  -0.16894  -0.16618
 Alpha virt. eigenvalues --   -0.07032  -0.05779   0.00799   0.00823   0.02429
 Alpha virt. eigenvalues --    0.02682   0.04315   0.05250   0.07232   0.09392
 Alpha virt. eigenvalues --    0.12717   0.13874   0.14653   0.15289   0.17021
 Alpha virt. eigenvalues --    0.17101   0.17702   0.18257   0.21183   0.22122
 Alpha virt. eigenvalues --    0.24900   0.27938   0.27954   0.31693   0.32419
 Alpha virt. eigenvalues --    0.34569   0.37661   0.37873   0.41632   0.42577
 Alpha virt. eigenvalues --    0.43077   0.46119   0.46784   0.51746   0.55072
 Alpha virt. eigenvalues --    0.63108   0.72834   0.75805   0.80154   0.92394
 Alpha virt. eigenvalues --    0.92996   0.98733   1.08782   1.09974   1.10647
 Alpha virt. eigenvalues --    1.13806   1.16190   1.17423   1.20375   1.21622
 Alpha virt. eigenvalues --    1.23182   1.23975   1.28469   1.29521   1.40912
 Alpha virt. eigenvalues --    1.47758   1.53924   1.68917   1.82982   1.84389
 Alpha virt. eigenvalues --    1.86686   1.87353   1.88115   1.88272   1.91624
 Alpha virt. eigenvalues --    1.94140   1.96635   1.98427   2.00405   2.01218
 Alpha virt. eigenvalues --    2.04507   2.08840   2.15196   2.21454   2.22053
 Alpha virt. eigenvalues --    2.30156   2.34401   2.59634   2.79961   2.85067
 Alpha virt. eigenvalues --    2.86801   3.56296   3.79998   3.82022   3.84618
 Alpha virt. eigenvalues --    4.04025
          Condensed to atoms (all electrons):
              1          2          3          4          5          6
     1  O    8.311607   0.371568  -0.046807  -0.027420  -0.000366  -0.011613
     2  P    0.371568  12.657911   0.254510   0.371240   0.001564  -0.024759
     3  H   -0.046807   0.254510   0.969438  -0.046829  -0.000004   0.008089
     4  O   -0.027420   0.371240  -0.046829   8.311925  -0.000364   0.157216
     5  O   -0.000366   0.001564  -0.000004  -0.000364   8.433939   0.238746
     6  Ca  -0.011613  -0.024759   0.008089   0.157216   0.238746  18.699281
     7  Ca   0.157112  -0.024757   0.008088  -0.011583   0.238828  -0.217587
     8  O   -0.045169   0.247414  -0.036626  -0.045130  -0.006584   0.111746
              7          8
     1  O    0.157112  -0.045169
     2  P   -0.024757   0.247414
     3  H    0.008088  -0.036626
     4  O   -0.011583  -0.045130
     5  O    0.238828  -0.006584
     6  Ca  -0.217587   0.111746
     7  Ca  18.699249   0.111781
     8  O    0.111781   8.452043
 Mulliken atomic charges:
              1
     1  O   -0.708911
     2  P    1.145309
     3  H   -0.109859
     4  O   -0.709055
     5  O   -0.905759
     6  Ca   1.038881
     7  Ca   1.038870
     8  O   -0.789475
 Sum of Mulliken charges=   0.00000
 Atomic charges with hydrogens summed into heavy atoms:
              1
     1  O   -0.708911
     2  P    1.035450
     3  H    0.000000
     4  O   -0.709055
     5  O   -0.905759
     6  Ca   1.038881
     7  Ca   1.038870
     8  O   -0.789475
 Sum of Mulliken charges=   0.00000
 Electronic spatial extent (au):  <R**2>=  1200.2379
 Charge=     0.0000 electrons
 Dipole moment (field-independent basis, Debye):
    X=     3.1626    Y=     0.0265    Z=     3.1943  Tot=     4.4951
 Quadrupole moment (field-independent basis, Debye-Ang):
   XX=   -81.5752   YY=   -33.6975   ZZ=   -69.9162
   XY=    -0.4452   XZ=     1.2200   YZ=     0.0087
 Traceless Quadrupole moment (field-independent basis, Debye-Ang):
   XX=   -19.8456   YY=    28.0322   ZZ=    -8.1866
   XY=    -0.4452   XZ=     1.2200   YZ=     0.0087
 Octapole moment (field-independent basis, Debye-Ang**2):
  XXX=   -40.9216  YYY=     1.4569  ZZZ=    -1.7216  XYY=    54.1894
  XXY=    -1.3934  XXZ=    18.8597  XZZ=     7.1583  YZZ=     0.0793
  YYZ=    10.9357  XYZ=     0.0751
 Hexadecapole moment (field-independent basis, Debye-Ang**3):
 XXXX=  -854.6461 YYYY=  -436.8019 ZZZZ=  -202.1122 XXXY=    -1.9691
 XXXZ=    18.5003 YYYX=    -1.6976 YYYZ=    -0.1997 ZZZX=     8.2294
 ZZZY=     0.0715 XXYY=  -210.3336 XXZZ=  -164.9518 YYZZ=  -124.2405
 XXYZ=     0.2908 YYXZ=    -7.2757 ZZXY=    -0.3550
 N-N= 6.655391938778D+02 E-N=-6.068080526446D+03  KE= 1.992267702652D+03
 Merz-Kollman atomic radii used.
 Read replacement radii for each type of atom:
 Rad(20) =   1.188000000000D+00
 Atom Element Radius
    1     8    1.40
    2    15    1.80
    3     1    1.20
    4     8    1.40
    5     8    1.40
    6    20    1.19
    7    20    1.19
    8     8    1.40

 **********************************************************************

            Electrostatic Properties Using The SCF Density

 **********************************************************************

       Atomic Center    1 is at  -1.334417 -1.333334 -0.678190
       Atomic Center    2 is at  -1.547230 -0.014054  0.104583
       Atomic Center    3 is at  -2.829390 -0.025971  0.688166
       Atomic Center    4 is at  -1.358723  1.309947 -0.676456
       Atomic Center    5 is at   2.147621  0.019655 -0.420653
       Atomic Center    6 is at   0.835276  1.642878  0.046413
       Atomic Center    7 is at   0.866162 -1.627592  0.046532
       Atomic Center    8 is at  -0.453346 -0.004887  1.260820
     668 points will be used for fitting atomic charges
 Fitting point charges to eletrostatic potential
 Charges from ESP fit, RMS=   0.00511 RRMS=   0.08180:
 Charge=   0.00000 Dipole=     3.6588     0.0426     3.3907 Tot=     4.9886
              1
     1  O   -0.889295
     2  P    1.241107
     3  H   -0.082517
     4  O   -0.889484
     5  O   -1.407540
     6  Ca   1.532779
     7  Ca   1.531067
     8  O   -1.036117
 -----------------------------------------------------------------

              Electrostatic Properties (Atomic Units)

 -----------------------------------------------------------------
    Center     Electric         -------- Electric Field --------
               Potential          X             Y             Z
 -----------------------------------------------------------------
    1 Atom    -22.385971
    2 Atom    -54.049349
    3 Atom     -1.129337
    4 Atom    -22.385942
    5 Atom    -22.473788
    6 Atom    -80.203724
    7 Atom    -80.203662
    8 Atom    -22.377403
 -----------------------------------------------------------------
 1\1\GINC-N030\SP\RB3LYP\6-31G(d,p)\Ca2H1O4P1\TIMN\04-May-2015\0\\# b3l
 yp/6-31G(d,p) pop=(ReadRadii,MK)\\Ca2HPO4_53\\0,1\O,0,-1.3344,-1.33335
 ,-0.67819\P,0,-1.54723,-0.014073,0.104583\H,0,-2.82939,-0.026007,0.688
 166\O,0,-1.35874,1.30993,-0.676456\O,0,2.14762,0.019684,-0.420653\Ca,0
 ,0.835254,1.64289,0.046413\Ca,0,0.866182,-1.62758,0.046532\O,0,-0.4533
 46,-0.004892,1.26082\\Version=EM64T-G03RevE.01\State=1-A\HF=-1998.1846
 632\RMSD=4.931e-05\Thermal=0.\Dipole=1.2442595,0.0104409,1.256733\PG=C
 01 [X(Ca2H1O4P1)]\\@


 GARBAGE IN, GARBAGE OUT
 Job cpu time:  0 days  0 hours  0 minutes 19.6 seconds.
 File lengths (MBytes):  RWF=     21 Int=      0 D2E=      0 Chk=     10 Scr=      1
 Normal termination of Gaussian 03 at Mon May  4 20:08:39 2015.
