 Entering Gaussian System, Link 0=/home/timn/tmp/g03.e01/g03
 Input=Ca2HPO4_34.xyz.gjf
 Output=Ca2HPO4_34.xyz.out
 Initial command:
 /home/timn/tmp/g03.e01/l1.exe /home/timn/tmp/g03.e01/Gau-12956.inp -scrdir=/home/timn/tmp/g03.e01/
 Default is to use a total of   2 processors:
                                2 via shared-memory
                                1 via Linda
 Entering Link 1 = /home/timn/tmp/g03.e01/l1.exe PID=     12957.
  
 Copyright (c) 1988,1990,1992,1993,1995,1998,2003,2004,2007, Gaussian, Inc.
                  All Rights Reserved.
  
 This is the Gaussian(R) 03 program.  It is based on the
 the Gaussian(R) 98 system (copyright 1998, Gaussian, Inc.),
 the Gaussian(R) 94 system (copyright 1995, Gaussian, Inc.),
 the Gaussian 92(TM) system (copyright 1992, Gaussian, Inc.),
 the Gaussian 90(TM) system (copyright 1990, Gaussian, Inc.),
 the Gaussian 88(TM) system (copyright 1988, Gaussian, Inc.),
 the Gaussian 86(TM) system (copyright 1986, Carnegie Mellon
 University), and the Gaussian 82(TM) system (copyright 1983,
 Carnegie Mellon University). Gaussian is a federally registered
 trademark of Gaussian, Inc.
  
 This software contains proprietary and confidential information,
 including trade secrets, belonging to Gaussian, Inc.
  
 This software is provided under written license and may be
 used, copied, transmitted, or stored only in accord with that
 written license.
  
 The following legend is applicable only to US Government
 contracts under FAR:
  
                    RESTRICTED RIGHTS LEGEND
  
 Use, reproduction and disclosure by the US Government is
 subject to restrictions as set forth in subparagraphs (a)
 and (c) of the Commercial Computer Software - Restricted
 Rights clause in FAR 52.227-19.
  
 Gaussian, Inc.
 340 Quinnipiac St., Bldg. 40, Wallingford CT 06492
  
  
 ---------------------------------------------------------------
 Warning -- This program may not be used in any manner that
 competes with the business of Gaussian, Inc. or will provide
 assistance to any competitor of Gaussian, Inc.  The licensee
 of this program is prohibited from giving any competitor of
 Gaussian, Inc. access to this program.  By using this program,
 the user acknowledges that Gaussian, Inc. is engaged in the
 business of creating and licensing software in the field of
 computational chemistry and represents and warrants to the
 licensee that it is not a competitor of Gaussian, Inc. and that
 it will not use this program in any manner prohibited above.
 ---------------------------------------------------------------
  

 Cite this work as:
 Gaussian 03, Revision E.01,
 M. J. Frisch, G. W. Trucks, H. B. Schlegel, G. E. Scuseria, 
 M. A. Robb, J. R. Cheeseman, J. A. Montgomery, Jr., T. Vreven, 
 K. N. Kudin, J. C. Burant, J. M. Millam, S. S. Iyengar, J. Tomasi, 
 V. Barone, B. Mennucci, M. Cossi, G. Scalmani, N. Rega, 
 G. A. Petersson, H. Nakatsuji, M. Hada, M. Ehara, K. Toyota, 
 R. Fukuda, J. Hasegawa, M. Ishida, T. Nakajima, Y. Honda, O. Kitao, 
 H. Nakai, M. Klene, X. Li, J. E. Knox, H. P. Hratchian, J. B. Cross, 
 V. Bakken, C. Adamo, J. Jaramillo, R. Gomperts, R. E. Stratmann, 
 O. Yazyev, A. J. Austin, R. Cammi, C. Pomelli, J. W. Ochterski, 
 P. Y. Ayala, K. Morokuma, G. A. Voth, P. Salvador, J. J. Dannenberg, 
 V. G. Zakrzewski, S. Dapprich, A. D. Daniels, M. C. Strain, 
 O. Farkas, D. K. Malick, A. D. Rabuck, K. Raghavachari, 
 J. B. Foresman, J. V. Ortiz, Q. Cui, A. G. Baboul, S. Clifford, 
 J. Cioslowski, B. B. Stefanov, G. Liu, A. Liashenko, P. Piskorz, 
 I. Komaromi, R. L. Martin, D. J. Fox, T. Keith, M. A. Al-Laham, 
 C. Y. Peng, A. Nanayakkara, M. Challacombe, P. M. W. Gill, 
 B. Johnson, W. Chen, M. W. Wong, C. Gonzalez, and J. A. Pople, 
 Gaussian, Inc., Wallingford CT, 2004.
 
 ******************************************
 Gaussian 03:  EM64T-G03RevE.01 11-Sep-2007
                 4-May-2015 
 ******************************************
 %nproc=2
 Will use up to    2 processors via shared memory.
 Default route:  MP2=Direct MaxDisk=2000MB
 -------------------------------------
 # b3lyp/6-31G(d,p) pop=(ReadRadii,MK)
 -------------------------------------
 1/38=1/1;
 2/17=6,18=5,40=1/2;
 3/5=1,6=6,7=101,11=2,16=1,25=1,30=1,74=-5/1,2,3;
 4//1;
 5/5=2,32=1,38=5/2;
 6/7=2,8=2,9=2,10=2,15=8,20=101,28=1/1,2;
 99/5=1,9=1/99;
 ----------
 Ca2HPO4_34
 ----------
 Symbolic Z-matrix:
 Charge =  0 Multiplicity = 1
 O                    -1.44903  -0.08248   0.75671 
 O                    -1.44903  -0.08248  -0.75671 
 P                    -0.38892   1.21109   0. 
 H                    -1.30876   2.26218   0. 
 O                     0.54155   1.23826  -1.25116 
 Ca                    0.54155  -0.97302  -1.85069 
 Ca                    0.54155  -0.97302   1.85069 
 O                     0.54155   1.23826   1.25116 
 
                          Input orientation:                          
 ---------------------------------------------------------------------
 Center     Atomic     Atomic              Coordinates (Angstroms)
 Number     Number      Type              X           Y           Z
 ---------------------------------------------------------------------
    1          8             0       -1.449030   -0.082484    0.756711
    2          8             0       -1.449030   -0.082484   -0.756711
    3         15             0       -0.388918    1.211090    0.000000
    4          1             0       -1.308760    2.262180    0.000000
    5          8             0        0.541553    1.238260   -1.251160
    6         20             0        0.541553   -0.973021   -1.850690
    7         20             0        0.541553   -0.973021    1.850690
    8          8             0        0.541553    1.238260    1.251160
 ---------------------------------------------------------------------
                    Distance matrix (angstroms):
                    1          2          3          4          5
     1  O    0.000000
     2  O    1.513422   0.000000
     3  P    1.835697   1.835697   0.000000
     4  H    2.467739   2.467739   1.396746   0.000000
     5  O    3.120630   2.439522   1.559460   2.457127   0.000000
     6  Ca   3.399120   2.439727   3.010178   4.161158   2.291113
     7  Ca   2.439727   3.399120   3.010178   4.161158   3.809362
     8  O    2.439522   3.120630   1.559460   2.457127   2.502320
                    6          7          8
     6  Ca   0.000000
     7  Ca   3.701380   0.000000
     8  O    3.809362   2.291113   0.000000
 Stoichiometry    Ca2HO4P
 Framework group  CS[SG(HP),X(Ca2O4)]
 Deg. of freedom    10
 Full point group                 CS
 Largest Abelian subgroup         CS      NOp   2
 Largest concise Abelian subgroup CS      NOp   2
                         Standard orientation:                         
 ---------------------------------------------------------------------
 Center     Atomic     Atomic              Coordinates (Angstroms)
 Number     Number      Type              X           Y           Z
 ---------------------------------------------------------------------
    1          8             0       -1.449030   -0.082485    0.756711
    2          8             0       -1.449030   -0.082485   -0.756711
    3         15             0       -0.388918    1.211089    0.000000
    4          1             0       -1.308760    2.262179    0.000000
    5          8             0        0.541553    1.238259   -1.251160
    6         20             0        0.541553   -0.973022   -1.850690
    7         20             0        0.541553   -0.973022    1.850690
    8          8             0        0.541553    1.238259    1.251160
 ---------------------------------------------------------------------
 Rotational constants (GHZ):      1.7926451      1.1635759      0.9501914
 Standard basis: 6-31G(d,p) (6D, 7F)
 There are    71 symmetry adapted basis functions of A'  symmetry.
 There are    59 symmetry adapted basis functions of A"  symmetry.
 Integral buffers will be    131072 words long.
 Raffenetti 2 integral format.
 Two-electron integral symmetry is turned on.
   130 basis functions,   323 primitive gaussians,   130 cartesian basis functions
    44 alpha electrons       44 beta electrons
       nuclear repulsion energy       653.9084757465 Hartrees.
 NAtoms=    8 NActive=    8 NUniq=    5 SFac= 1.92D+00 NAtFMM=   80 NAOKFM=F Big=F
 One-electron integrals computed using PRISM.
 NBasis=   130 RedAO= T  NBF=    71    59
 NBsUse=   130 1.00D-06 NBFU=    71    59
 Harris functional with IExCor=  402 diagonalized for initial guess.
 ExpMin= 2.60D-02 ExpMax= 3.53D+04 ExpMxC= 5.30D+03 IAcc=3 IRadAn=         5 AccDes= 0.00D+00
 HarFok:  IExCor= 402 AccDes= 0.00D+00 IRadAn=         5 IDoV=1
 ScaDFX=  1.000000  1.000000  1.000000  1.000000
 Initial guess orbital symmetries:
       Occupied  (A") (A') (A') (A') (A") (A') (A") (A") (A') (A")
                 (A') (A") (A') (A") (A') (A') (A") (A') (A') (A')
                 (A") (A') (A") (A') (A') (A") (A") (A') (A') (A")
                 (A") (A') (A') (A') (A") (A') (A') (A") (A') (A")
                 (A') (A") (A") (A")
       Virtual   (A') (A") (A') (A') (A') (A") (A") (A') (A') (A")
                 (A') (A') (A") (A') (A") (A') (A') (A") (A") (A')
                 (A') (A") (A") (A') (A") (A') (A") (A') (A') (A")
                 (A") (A') (A") (A') (A') (A") (A') (A") (A') (A')
                 (A") (A') (A") (A') (A') (A") (A') (A") (A') (A")
                 (A") (A') (A') (A") (A') (A") (A') (A") (A') (A')
                 (A') (A") (A") (A') (A") (A') (A') (A") (A") (A')
                 (A") (A') (A') (A") (A") (A') (A") (A') (A") (A')
                 (A") (A') (A') (A") (A') (A")
 The electronic state of the initial guess is 1-A'.
 Requested convergence on RMS density matrix=1.00D-04 within 128 cycles.
 Requested convergence on MAX density matrix=1.00D-02.
 Requested convergence on             energy=1.00D-02.
 No special actions if energy rises.
 Keep R1 integrals in memory in canonical form, NReq=    38354429.
 EnCoef did    10 forward-backward iterations
 EnCoef did    11 forward-backward iterations
 SCF Done:  E(RB+HF-LYP) =  -1997.97834305     A.U. after    8 cycles
             Convg  =    0.6494D-04             -V/T =  2.0030
             S**2   =   0.0000

 **********************************************************************

            Population analysis using the SCF density.

 **********************************************************************

 Orbital symmetries:
       Occupied  (A") (A') (A') (A') (A") (A") (A') (A") (A') (A")
                 (A') (A") (A') (A") (A') (A') (A') (A") (A') (A')
                 (A") (A') (A') (A") (A") (A') (A") (A') (A') (A")
                 (A") (A') (A') (A') (A') (A") (A') (A") (A') (A')
                 (A") (A") (A") (A')
       Virtual   (A") (A') (A') (A") (A') (A") (A") (A") (A') (A')
                 (A") (A') (A') (A') (A") (A') (A') (A") (A') (A")
                 (A") (A') (A") (A") (A') (A') (A") (A') (A") (A')
                 (A") (A') (A') (A") (A") (A') (A') (A") (A') (A')
                 (A") (A') (A") (A') (A') (A") (A') (A") (A') (A")
                 (A") (A') (A") (A') (A') (A") (A') (A") (A') (A')
                 (A') (A") (A') (A") (A') (A") (A') (A") (A") (A')
                 (A") (A') (A') (A") (A') (A") (A") (A') (A") (A')
                 (A") (A') (A') (A") (A') (A")
 The electronic state is 1-A'.
 Alpha  occ. eigenvalues -- -145.39226-145.39225 -77.20312 -19.17159 -19.17153
 Alpha  occ. eigenvalues --  -19.09170 -19.09169 -15.46312 -15.46311 -12.59521
 Alpha  occ. eigenvalues --  -12.59517 -12.59472 -12.59471 -12.59380 -12.59378
 Alpha  occ. eigenvalues --   -6.64737  -4.81337  -4.80937  -4.80901  -1.83580
 Alpha  occ. eigenvalues --   -1.83564  -1.11758  -1.11168  -1.11142  -1.10989
 Alpha  occ. eigenvalues --   -1.10891  -1.10778  -1.06908  -0.95841  -0.90984
 Alpha  occ. eigenvalues --   -0.81009  -0.57218  -0.46130  -0.43137  -0.42288
 Alpha  occ. eigenvalues --   -0.38932  -0.36283  -0.31024  -0.30051  -0.28937
 Alpha  occ. eigenvalues --   -0.27601  -0.24696  -0.22752  -0.14976
 Alpha virt. eigenvalues --   -0.09642  -0.04144  -0.02388  -0.02080  -0.00350
 Alpha virt. eigenvalues --   -0.00018   0.00877   0.04468   0.05368   0.06749
 Alpha virt. eigenvalues --    0.08353   0.08925   0.11381   0.11783   0.13556
 Alpha virt. eigenvalues --    0.13642   0.14159   0.14217   0.16523   0.16956
 Alpha virt. eigenvalues --    0.18257   0.19977   0.21864   0.22515   0.23658
 Alpha virt. eigenvalues --    0.27994   0.31250   0.33543   0.34085   0.37751
 Alpha virt. eigenvalues --    0.39113   0.40934   0.41810   0.43283   0.50619
 Alpha virt. eigenvalues --    0.56725   0.66675   0.75296   0.75938   0.81559
 Alpha virt. eigenvalues --    0.89601   0.94600   0.97070   1.01105   1.05871
 Alpha virt. eigenvalues --    1.10380   1.10891   1.13199   1.14673   1.16931
 Alpha virt. eigenvalues --    1.18958   1.21559   1.26437   1.27382   1.39070
 Alpha virt. eigenvalues --    1.48746   1.54745   1.60556   1.63710   1.68366
 Alpha virt. eigenvalues --    1.79223   1.84095   1.84721   1.85572   1.90083
 Alpha virt. eigenvalues --    1.90438   1.92153   1.93176   1.94469   2.03434
 Alpha virt. eigenvalues --    2.09795   2.18378   2.23674   2.29023   2.33418
 Alpha virt. eigenvalues --    2.34455   2.48326   2.65587   2.83083   2.84638
 Alpha virt. eigenvalues --    3.08707   3.59741   3.68893   3.84997   3.92799
 Alpha virt. eigenvalues --    3.97494
          Condensed to atoms (all electrons):
              1          2          3          4          5          6
     1  O    8.444523  -0.051152   0.092342  -0.024159   0.003094  -0.019343
     2  O   -0.051152   8.444523   0.092342  -0.024159  -0.061778   0.091056
     3  P    0.092342   0.092342  12.680962   0.264998   0.363027  -0.033001
     4  H   -0.024159  -0.024159   0.264998   0.918157  -0.038910   0.005886
     5  O    0.003094  -0.061778   0.363027  -0.038910   8.322807   0.160917
     6  Ca  -0.019343   0.091056  -0.033001   0.005886   0.160917  19.021109
     7  Ca   0.091056  -0.019343  -0.033001   0.005886  -0.017976   0.204348
     8  O   -0.061778   0.003094   0.363027  -0.038910  -0.048502  -0.017976
              7          8
     1  O    0.091056  -0.061778
     2  O   -0.019343   0.003094
     3  P   -0.033001   0.363027
     4  H    0.005886  -0.038910
     5  O   -0.017976  -0.048502
     6  Ca   0.204348  -0.017976
     7  Ca  19.021109   0.160917
     8  O    0.160917   8.322807
 Mulliken atomic charges:
              1
     1  O   -0.474583
     2  O   -0.474583
     3  P    1.209303
     4  H   -0.068788
     5  O   -0.682680
     6  Ca   0.587005
     7  Ca   0.587005
     8  O   -0.682680
 Sum of Mulliken charges=   0.00000
 Atomic charges with hydrogens summed into heavy atoms:
              1
     1  O   -0.474583
     2  O   -0.474583
     3  P    1.140515
     4  H    0.000000
     5  O   -0.682680
     6  Ca   0.587005
     7  Ca   0.587005
     8  O   -0.682680
 Sum of Mulliken charges=   0.00000
 Electronic spatial extent (au):  <R**2>=  1282.0725
 Charge=     0.0000 electrons
 Dipole moment (field-independent basis, Debye):
    X=     0.7423    Y=    -3.2785    Z=     0.0000  Tot=     3.3615
 Quadrupole moment (field-independent basis, Debye-Ang):
   XX=   -79.7538   YY=   -80.2483   ZZ=   -52.1810
   XY=    -2.6994   XZ=     0.0000   YZ=     0.0000
 Traceless Quadrupole moment (field-independent basis, Debye-Ang):
   XX=    -9.0261   YY=    -9.5206   ZZ=    18.5467
   XY=    -2.6994   XZ=     0.0000   YZ=     0.0000
 Octapole moment (field-independent basis, Debye-Ang**2):
  XXX=   -16.4579  YYY=    59.5953  ZZZ=     0.0000  XYY=   -26.9578
  XXY=    18.4722  XXZ=     0.0000  XZZ=    -1.9685  YZZ=   -11.9087
  YYZ=     0.0000  XYZ=     0.0000
 Hexadecapole moment (field-independent basis, Debye-Ang**3):
 XXXX=  -439.6025 YYYY=  -734.4584 ZZZZ=  -859.0042 XXXY=    87.1819
 XXXZ=     0.0000 YYYX=    93.6700 YYYZ=     0.0000 ZZZX=     0.0000
 ZZZY=     0.0000 XXYY=  -198.1566 XXZZ=  -234.7547 YYZZ=  -302.2989
 XXYZ=     0.0000 YYXZ=     0.0000 ZZXY=    26.3733
 N-N= 6.539084757465D+02 E-N=-6.039853576476D+03  KE= 1.992060907242D+03
 Symmetry A'   KE= 1.134758297893D+03
 Symmetry A"   KE= 8.573026093492D+02
 Merz-Kollman atomic radii used.
 Read replacement radii for each type of atom:
 Rad(20) =   1.188000000000D+00
 Atom Element Radius
    1     8    1.40
    2     8    1.40
    3    15    1.80
    4     1    1.20
    5     8    1.40
    6    20    1.19
    7    20    1.19
    8     8    1.40

 **********************************************************************

            Electrostatic Properties Using The SCF Density

 **********************************************************************

       Atomic Center    1 is at  -1.449030 -0.082485  0.756711
       Atomic Center    2 is at  -1.449030 -0.082485 -0.756711
       Atomic Center    3 is at  -0.388918  1.211089  0.000000
       Atomic Center    4 is at  -1.308760  2.262179  0.000000
       Atomic Center    5 is at   0.541553  1.238259 -1.251160
       Atomic Center    6 is at   0.541553 -0.973022 -1.850690
       Atomic Center    7 is at   0.541553 -0.973022  1.850690
       Atomic Center    8 is at   0.541553  1.238259  1.251160
     644 points will be used for fitting atomic charges
 Fitting point charges to eletrostatic potential
 Charges from ESP fit, RMS=   0.03322 RRMS=   0.54358:
 Charge=   0.00000 Dipole=     4.1455    -8.5773     0.0000 Tot=     9.5266
              1
     1  O   -0.299488
     2  O   -0.299488
     3  P   -0.049706
     4  H    0.202937
     5  O   -0.407076
     6  Ca   0.629949
     7  Ca   0.629949
     8  O   -0.407076
 -----------------------------------------------------------------

              Electrostatic Properties (Atomic Units)

 -----------------------------------------------------------------
    Center     Electric         -------- Electric Field --------
               Potential          X             Y             Z
 -----------------------------------------------------------------
    1 Atom    -22.300977
    2 Atom    -22.300977
    3 Atom    -54.003540
    4 Atom     -1.102320
    5 Atom    -22.373367
    6 Atom    -80.152291
    7 Atom    -80.152291
    8 Atom    -22.373367
 -----------------------------------------------------------------
 1\1\GINC-N038\SP\RB3LYP\6-31G(d,p)\Ca2H1O4P1\TIMN\04-May-2015\0\\# b3l
 yp/6-31G(d,p) pop=(ReadRadii,MK)\\Ca2HPO4_34\\0,1\O,0,-1.44903,-0.0824
 84,0.756711\O,0,-1.44903,-0.082484,-0.756711\P,0,-0.388918,1.21109,0.\
 H,0,-1.30876,2.26218,0.\O,0,0.541553,1.23826,-1.25116\Ca,0,0.541553,-0
 .973021,-1.85069\Ca,0,0.541553,-0.973021,1.85069\O,0,0.541553,1.23826,
 1.25116\\Version=EM64T-G03RevE.01\State=1-A'\HF=-1997.9783431\RMSD=6.4
 94e-05\Thermal=0.\Dipole=0.292034,-1.2898789,0.\PG=CS [SG(H1P1),X(Ca2O
 4)]\\@


 NOBODY LOSES ALL THE TIME
 I HAD AN UNCLE NAMED
 SOL WHO WAS A BORN FAILURE AND
 NEARLY EVERYBODY SAID HE SHOULD HAVE GONE
 INTO VAUDEVILLE PERHAPS BECAUSE MY UNCLE SOL COULD
 SING MCCANN HE WAS A DIVER ON XMAS EVE LIKE HELL ITSELF WHICH
 MAY OR MAY NOT ACCOUNT FOR THE FACT THAT MY UNCLE
 SOL INDULGED IN THAT POSSIBLY MOST INEXCUSABLE
 OF ALL TO USE A HIGHFALOOTIN PHRASE
 LUXURIES THAT IS OR TO
 WIT FARMING AND BE
 IT NEEDLESSLY
 ADDED
 MY UNCLE SOL'S FARM
 FAILED BECAUSE THE CHICKENS
 ATE THE VEGETABLES SO
 MY UNCLE SOL HAD A
 CHICKEN FARM TILL THE
 SKUNKS ATE THE CHICKENS WHEN 
 MY UNCLE SOL
 HAD A SKUNK FARM BUT
 THE SKUNKS CAUGHT COLD AND
 DIED AND SO
 MY UNCLE SOL IMITATED THE
 SKUNKS IN A SUBTLE MANNER
 OR BY DROWNING HIMSELF IN THE WATERTANK
 BUT SOMEBODY WHO'D GIVEN MY UNCLE SOL A VICTOR
 VICTROLA AND RECORDS WHILE HE LIVED PRESENTED TO
 HIM UPON THE AUSPICIOUS OCCASION OF HIS DECEASE A
 SCRUMPTIOUS NOT TO MENTION SPLENDIFEROUS FUNERAL WITH
 TALL BOYS IN BLACK GLOVES AND FLOWERS AND EVERYTHING AND
 I REMEMBER WE ALL CRIED LIKE THE MISSOURI
 WHEN MY UNCLE SOL'S COFFIN LURCHED BECAUSE
 SOMEBODY PRESSED A BUTTON
 (AND DOWN WENT
 MY UNCLE
 SOL
 AND STARTED A WORM FARM)
           E. E. CUMMINGS
 Job cpu time:  0 days  0 hours  0 minutes 15.9 seconds.
 File lengths (MBytes):  RWF=     21 Int=      0 D2E=      0 Chk=     10 Scr=      1
 Normal termination of Gaussian 03 at Mon May  4 20:41:35 2015.
