 Entering Gaussian System, Link 0=/home/timn/tmp/g03.e01/g03
 Input=Ca2HPO4_75.xyz.gjf
 Output=Ca2HPO4_75.xyz.out
 Initial command:
 /home/timn/tmp/g03.e01/l1.exe /home/timn/tmp/g03.e01/Gau-3599.inp -scrdir=/home/timn/tmp/g03.e01/
 Default is to use a total of   2 processors:
                                2 via shared-memory
                                1 via Linda
 Entering Link 1 = /home/timn/tmp/g03.e01/l1.exe PID=      3600.
  
 Copyright (c) 1988,1990,1992,1993,1995,1998,2003,2004,2007, Gaussian, Inc.
                  All Rights Reserved.
  
 This is the Gaussian(R) 03 program.  It is based on the
 the Gaussian(R) 98 system (copyright 1998, Gaussian, Inc.),
 the Gaussian(R) 94 system (copyright 1995, Gaussian, Inc.),
 the Gaussian 92(TM) system (copyright 1992, Gaussian, Inc.),
 the Gaussian 90(TM) system (copyright 1990, Gaussian, Inc.),
 the Gaussian 88(TM) system (copyright 1988, Gaussian, Inc.),
 the Gaussian 86(TM) system (copyright 1986, Carnegie Mellon
 University), and the Gaussian 82(TM) system (copyright 1983,
 Carnegie Mellon University). Gaussian is a federally registered
 trademark of Gaussian, Inc.
  
 This software contains proprietary and confidential information,
 including trade secrets, belonging to Gaussian, Inc.
  
 This software is provided under written license and may be
 used, copied, transmitted, or stored only in accord with that
 written license.
  
 The following legend is applicable only to US Government
 contracts under FAR:
  
                    RESTRICTED RIGHTS LEGEND
  
 Use, reproduction and disclosure by the US Government is
 subject to restrictions as set forth in subparagraphs (a)
 and (c) of the Commercial Computer Software - Restricted
 Rights clause in FAR 52.227-19.
  
 Gaussian, Inc.
 340 Quinnipiac St., Bldg. 40, Wallingford CT 06492
  
  
 ---------------------------------------------------------------
 Warning -- This program may not be used in any manner that
 competes with the business of Gaussian, Inc. or will provide
 assistance to any competitor of Gaussian, Inc.  The licensee
 of this program is prohibited from giving any competitor of
 Gaussian, Inc. access to this program.  By using this program,
 the user acknowledges that Gaussian, Inc. is engaged in the
 business of creating and licensing software in the field of
 computational chemistry and represents and warrants to the
 licensee that it is not a competitor of Gaussian, Inc. and that
 it will not use this program in any manner prohibited above.
 ---------------------------------------------------------------
  

 Cite this work as:
 Gaussian 03, Revision E.01,
 M. J. Frisch, G. W. Trucks, H. B. Schlegel, G. E. Scuseria, 
 M. A. Robb, J. R. Cheeseman, J. A. Montgomery, Jr., T. Vreven, 
 K. N. Kudin, J. C. Burant, J. M. Millam, S. S. Iyengar, J. Tomasi, 
 V. Barone, B. Mennucci, M. Cossi, G. Scalmani, N. Rega, 
 G. A. Petersson, H. Nakatsuji, M. Hada, M. Ehara, K. Toyota, 
 R. Fukuda, J. Hasegawa, M. Ishida, T. Nakajima, Y. Honda, O. Kitao, 
 H. Nakai, M. Klene, X. Li, J. E. Knox, H. P. Hratchian, J. B. Cross, 
 V. Bakken, C. Adamo, J. Jaramillo, R. Gomperts, R. E. Stratmann, 
 O. Yazyev, A. J. Austin, R. Cammi, C. Pomelli, J. W. Ochterski, 
 P. Y. Ayala, K. Morokuma, G. A. Voth, P. Salvador, J. J. Dannenberg, 
 V. G. Zakrzewski, S. Dapprich, A. D. Daniels, M. C. Strain, 
 O. Farkas, D. K. Malick, A. D. Rabuck, K. Raghavachari, 
 J. B. Foresman, J. V. Ortiz, Q. Cui, A. G. Baboul, S. Clifford, 
 J. Cioslowski, B. B. Stefanov, G. Liu, A. Liashenko, P. Piskorz, 
 I. Komaromi, R. L. Martin, D. J. Fox, T. Keith, M. A. Al-Laham, 
 C. Y. Peng, A. Nanayakkara, M. Challacombe, P. M. W. Gill, 
 B. Johnson, W. Chen, M. W. Wong, C. Gonzalez, and J. A. Pople, 
 Gaussian, Inc., Wallingford CT, 2004.
 
 ******************************************
 Gaussian 03:  EM64T-G03RevE.01 11-Sep-2007
                 4-May-2015 
 ******************************************
 %nproc=2
 Will use up to    2 processors via shared memory.
 Default route:  MP2=Direct MaxDisk=2000MB
 -------------------------------------
 # b3lyp/6-31G(d,p) pop=(ReadRadii,MK)
 -------------------------------------
 1/38=1/1;
 2/17=6,18=5,40=1/2;
 3/5=1,6=6,7=101,11=2,16=1,25=1,30=1,74=-5/1,2,3;
 4//1;
 5/5=2,32=1,38=5/2;
 6/7=2,8=2,9=2,10=2,15=8,20=101,28=1/1,2;
 99/5=1,9=1/99;
 ----------
 Ca2HPO4_75
 ----------
 Symbolic Z-matrix:
 Charge =  0 Multiplicity = 1
 O                    -2.19548   0.81879  -0.39655 
 O                     0.31923   1.66131  -0.57547 
 P                    -0.84783   1.20243   0.36552 
 Ca                    1.85009   0.06097   0.01899 
 O                     3.67437  -0.9311   -0.16514 
 H                     4.51611  -1.3751   -0.2523 
 O                    -0.31125  -0.35133   0.83689 
 Ca                   -2.03478  -1.3731   -0.16041 
 
                          Input orientation:                          
 ---------------------------------------------------------------------
 Center     Atomic     Atomic              Coordinates (Angstroms)
 Number     Number      Type              X           Y           Z
 ---------------------------------------------------------------------
    1          8             0       -2.195480    0.818788   -0.396551
    2          8             0        0.319234    1.661310   -0.575467
    3         15             0       -0.847826    1.202430    0.365516
    4         20             0        1.850090    0.060966    0.018994
    5          8             0        3.674370   -0.931102   -0.165142
    6          1             0        4.516110   -1.375100   -0.252296
    7          8             0       -0.311253   -0.351329    0.836892
    8         20             0       -2.034780   -1.373100   -0.160409
 ---------------------------------------------------------------------
                    Distance matrix (angstroms):
                    1          2          3          4          5
     1  O    0.000000
     2  O    2.658127   0.000000
     3  P    1.595023   1.567817   0.000000
     4  Ca   4.136860   2.293034   2.949876   0.000000
     5  O    6.129503   4.259801   5.028301   2.084731   0.000000
     6  H    7.062535   5.190182   5.983073   3.040320   0.955644
     7  O    2.537886   2.538304   1.710051   2.347413   4.150349
     8  Ca   2.210421   3.862810   2.884235   4.144990   5.726236
                    6          7          8
     6  H    0.000000
     7  O    5.053501   0.000000
     8  Ca   6.551535   2.238118   0.000000
 Stoichiometry    Ca2HO4P
 Framework group  C1[X(Ca2HO4P)]
 Deg. of freedom    18
 Full point group                 C1
 Largest Abelian subgroup         C1      NOp   1
 Largest concise Abelian subgroup C1      NOp   1
                         Standard orientation:                         
 ---------------------------------------------------------------------
 Center     Atomic     Atomic              Coordinates (Angstroms)
 Number     Number      Type              X           Y           Z
 ---------------------------------------------------------------------
    1          8             0       -2.195479    0.818787   -0.396551
    2          8             0        0.319235    1.661310   -0.575467
    3         15             0       -0.847825    1.202430    0.365516
    4         20             0        1.850091    0.060966    0.018994
    5          8             0        3.674372   -0.931101   -0.165142
    6          1             0        4.516112   -1.375099   -0.252296
    7          8             0       -0.311252   -0.351329    0.836892
    8         20             0       -2.034778   -1.373101   -0.160409
 ---------------------------------------------------------------------
 Rotational constants (GHZ):      2.3237108      0.7589638      0.6059826
 Standard basis: 6-31G(d,p) (6D, 7F)
 There are   130 symmetry adapted basis functions of A   symmetry.
 Integral buffers will be    131072 words long.
 Raffenetti 2 integral format.
 Two-electron integral symmetry is turned on.
   130 basis functions,   323 primitive gaussians,   130 cartesian basis functions
    44 alpha electrons       44 beta electrons
       nuclear repulsion energy       611.0858814169 Hartrees.
 NAtoms=    8 NActive=    8 NUniq=    8 SFac= 7.50D-01 NAtFMM=   80 NAOKFM=F Big=F
 One-electron integrals computed using PRISM.
 NBasis=   130 RedAO= T  NBF=   130
 NBsUse=   130 1.00D-06 NBFU=   130
 Harris functional with IExCor=  402 diagonalized for initial guess.
 ExpMin= 2.60D-02 ExpMax= 3.53D+04 ExpMxC= 5.30D+03 IAcc=3 IRadAn=         5 AccDes= 0.00D+00
 HarFok:  IExCor= 402 AccDes= 0.00D+00 IRadAn=         5 IDoV=1
 ScaDFX=  1.000000  1.000000  1.000000  1.000000
 Initial guess orbital symmetries:
       Occupied  (A) (A) (A) (A) (A) (A) (A) (A) (A) (A) (A) (A)
                 (A) (A) (A) (A) (A) (A) (A) (A) (A) (A) (A) (A)
                 (A) (A) (A) (A) (A) (A) (A) (A) (A) (A) (A) (A)
                 (A) (A) (A) (A) (A) (A) (A) (A)
       Virtual   (A) (A) (A) (A) (A) (A) (A) (A) (A) (A) (A) (A)
                 (A) (A) (A) (A) (A) (A) (A) (A) (A) (A) (A) (A)
                 (A) (A) (A) (A) (A) (A) (A) (A) (A) (A) (A) (A)
                 (A) (A) (A) (A) (A) (A) (A) (A) (A) (A) (A) (A)
                 (A) (A) (A) (A) (A) (A) (A) (A) (A) (A) (A) (A)
                 (A) (A) (A) (A) (A) (A) (A) (A) (A) (A) (A) (A)
                 (A) (A) (A) (A) (A) (A) (A) (A) (A) (A) (A) (A)
                 (A) (A)
 The electronic state of the initial guess is 1-A.
 Requested convergence on RMS density matrix=1.00D-04 within 128 cycles.
 Requested convergence on MAX density matrix=1.00D-02.
 Requested convergence on             energy=1.00D-02.
 No special actions if energy rises.
 Keep R1 integrals in memory in canonical form, NReq=    38354263.
 SCF Done:  E(RB+HF-LYP) =  -1998.16433477     A.U. after    9 cycles
             Convg  =    0.9961D-04             -V/T =  2.0029
             S**2   =   0.0000

 **********************************************************************

            Population analysis using the SCF density.

 **********************************************************************

 Orbital symmetries:
       Occupied  (A) (A) (A) (A) (A) (A) (A) (A) (A) (A) (A) (A)
                 (A) (A) (A) (A) (A) (A) (A) (A) (A) (A) (A) (A)
                 (A) (A) (A) (A) (A) (A) (A) (A) (A) (A) (A) (A)
                 (A) (A) (A) (A) (A) (A) (A) (A)
       Virtual   (A) (A) (A) (A) (A) (A) (A) (A) (A) (A) (A) (A)
                 (A) (A) (A) (A) (A) (A) (A) (A) (A) (A) (A) (A)
                 (A) (A) (A) (A) (A) (A) (A) (A) (A) (A) (A) (A)
                 (A) (A) (A) (A) (A) (A) (A) (A) (A) (A) (A) (A)
                 (A) (A) (A) (A) (A) (A) (A) (A) (A) (A) (A) (A)
                 (A) (A) (A) (A) (A) (A) (A) (A) (A) (A) (A) (A)
                 (A) (A) (A) (A) (A) (A) (A) (A) (A) (A) (A) (A)
                 (A) (A)
 The electronic state is 1-A.
 Alpha  occ. eigenvalues -- -145.40396-145.31632 -77.12910 -19.10141 -19.09293
 Alpha  occ. eigenvalues --  -19.07958 -19.03126 -15.47495 -15.38928 -12.60704
 Alpha  occ. eigenvalues --  -12.60614 -12.60593 -12.52180 -12.52104 -12.51897
 Alpha  occ. eigenvalues --   -6.58125  -4.74508  -4.74390  -4.74106  -1.84876
 Alpha  occ. eigenvalues --   -1.76762  -1.12595  -1.12525  -1.12126  -1.04953
 Alpha  occ. eigenvalues --   -1.04664  -1.04548  -0.95389  -0.89282  -0.88351
 Alpha  occ. eigenvalues --   -0.84263  -0.49253  -0.38677  -0.37670  -0.36769
 Alpha  occ. eigenvalues --   -0.35946  -0.31782  -0.28803  -0.26506  -0.25667
 Alpha  occ. eigenvalues --   -0.25117  -0.20957  -0.20843  -0.17033
 Alpha virt. eigenvalues --   -0.11245  -0.04231  -0.02804  -0.01523   0.00696
 Alpha virt. eigenvalues --    0.02209   0.03037   0.04934   0.05796   0.10479
 Alpha virt. eigenvalues --    0.10904   0.11139   0.11476   0.13690   0.14757
 Alpha virt. eigenvalues --    0.16784   0.18379   0.18535   0.19168   0.20089
 Alpha virt. eigenvalues --    0.20855   0.22632   0.24687   0.25015   0.28987
 Alpha virt. eigenvalues --    0.32905   0.34684   0.36168   0.38768   0.39652
 Alpha virt. eigenvalues --    0.41209   0.42319   0.45791   0.48493   0.49980
 Alpha virt. eigenvalues --    0.53755   0.72747   0.77539   0.82845   0.92707
 Alpha virt. eigenvalues --    0.93617   0.95332   1.01986   1.03203   1.04255
 Alpha virt. eigenvalues --    1.07823   1.10476   1.13108   1.15823   1.16566
 Alpha virt. eigenvalues --    1.21029   1.21650   1.28946   1.31376   1.38969
 Alpha virt. eigenvalues --    1.43467   1.47449   1.67729   1.71745   1.72389
 Alpha virt. eigenvalues --    1.83500   1.85878   1.87176   1.88059   1.90294
 Alpha virt. eigenvalues --    1.90417   1.90892   1.92822   1.93834   1.95698
 Alpha virt. eigenvalues --    2.05169   2.09753   2.20539   2.22679   2.45848
 Alpha virt. eigenvalues --    2.50881   2.70832   2.73839   2.74425   2.80388
 Alpha virt. eigenvalues --    3.50388   3.59830   3.75597   3.77598   3.91222
 Alpha virt. eigenvalues --    3.97461
          Condensed to atoms (all electrons):
              1          2          3          4          5          6
     1  O    8.393550  -0.022448   0.198787  -0.011019   0.000000   0.000000
     2  O   -0.022448   8.361981   0.244320   0.148401  -0.000122   0.000003
     3  P    0.198787   0.244320  13.495562   0.023956  -0.000021   0.000000
     4  Ca  -0.011019   0.148401   0.023956  18.611110   0.247916  -0.027020
     5  O    0.000000  -0.000122  -0.000021   0.247916   8.313344   0.277081
     6  H    0.000000   0.000003   0.000000  -0.027020   0.277081   0.485847
     7  O   -0.035156  -0.039457   0.063828   0.106072  -0.000079   0.000004
     8  Ca   0.173312  -0.006982   0.051366  -0.094746  -0.010056   0.000223
              7          8
     1  O   -0.035156   0.173312
     2  O   -0.039457  -0.006982
     3  P    0.063828   0.051366
     4  Ca   0.106072  -0.094746
     5  O   -0.000079  -0.010056
     6  H    0.000004   0.000223
     7  O    8.593033   0.133993
     8  Ca   0.133993  18.901263
 Mulliken atomic charges:
              1
     1  O   -0.697026
     2  O   -0.685696
     3  P    0.922203
     4  Ca   0.995329
     5  O   -0.828064
     6  H    0.263862
     7  O   -0.822237
     8  Ca   0.851628
 Sum of Mulliken charges=   0.00000
 Atomic charges with hydrogens summed into heavy atoms:
              1
     1  O   -0.697026
     2  O   -0.685696
     3  P    0.922203
     4  Ca   0.995329
     5  O   -0.564202
     6  H    0.000000
     7  O   -0.822237
     8  Ca   0.851628
 Sum of Mulliken charges=   0.00000
 Electronic spatial extent (au):  <R**2>=  1718.3991
 Charge=     0.0000 electrons
 Dipole moment (field-independent basis, Debye):
    X=    -3.7100    Y=    -6.9575    Z=     0.5511  Tot=     7.9040
 Quadrupole moment (field-independent basis, Debye-Ang):
   XX=   -65.1317   YY=   -65.8906   ZZ=   -68.5787
   XY=    20.7785   XZ=     0.3986   YZ=     4.5047
 Traceless Quadrupole moment (field-independent basis, Debye-Ang):
   XX=     1.4019   YY=     0.6431   ZZ=    -2.0451
   XY=    20.7785   XZ=     0.3986   YZ=     4.5047
 Octapole moment (field-independent basis, Debye-Ang**2):
  XXX=   -37.9547  YYY=   -22.0090  ZZZ=    -0.7899  XYY=   -12.4314
  XXY=   -28.2458  XXZ=     9.2971  XZZ=     6.9508  YZZ=    -2.9553
  YYZ=     4.2793  XYZ=     0.3647
 Hexadecapole moment (field-independent basis, Debye-Ang**3):
 XXXX= -1548.5613 YYYY=  -574.3437 ZZZZ=  -172.4035 XXXY=    82.2248
 XXXZ=   -21.4273 YYYX=    11.2261 YYYZ=    -3.5753 ZZZX=    -1.3248
 ZZZY=    -7.0045 XXYY=  -304.7355 XXZZ=  -282.0636 YYZZ=  -127.8740
 XXYZ=     4.5109 YYXZ=    -1.3972 ZZXY=     5.4804
 N-N= 6.110858814169D+02 E-N=-5.957971009791D+03  KE= 1.992329601865D+03
 Merz-Kollman atomic radii used.
 Read replacement radii for each type of atom:
 Rad(20) =   1.188000000000D+00
 Atom Element Radius
    1     8    1.40
    2     8    1.40
    3    15    1.80
    4    20    1.19
    5     8    1.40
    6     1    1.20
    7     8    1.40
    8    20    1.19

 **********************************************************************

            Electrostatic Properties Using The SCF Density

 **********************************************************************

       Atomic Center    1 is at  -2.195479  0.818787 -0.396551
       Atomic Center    2 is at   0.319235  1.661310 -0.575467
       Atomic Center    3 is at  -0.847825  1.202430  0.365516
       Atomic Center    4 is at   1.850091  0.060966  0.018994
       Atomic Center    5 is at   3.674372 -0.931101 -0.165142
       Atomic Center    6 is at   4.516112 -1.375099 -0.252296
       Atomic Center    7 is at  -0.311252 -0.351329  0.836892
       Atomic Center    8 is at  -2.034778 -1.373101 -0.160409
     761 points will be used for fitting atomic charges
 Fitting point charges to eletrostatic potential
 Charges from ESP fit, RMS=   0.01068 RRMS=   0.18017:
 Charge=   0.00000 Dipole=    -4.9384    -8.3338    -0.1111 Tot=     9.6878
              1
     1  O   -0.653049
     2  O   -0.719631
     3  P    0.435497
     4  Ca   1.632446
     5  O   -1.350502
     6  H    0.469185
     7  O   -0.963823
     8  Ca   1.149877
 -----------------------------------------------------------------

              Electrostatic Properties (Atomic Units)

 -----------------------------------------------------------------
    Center     Electric         -------- Electric Field --------
               Potential          X             Y             Z
 -----------------------------------------------------------------
    1 Atom    -22.374039
    2 Atom    -22.381791
    3 Atom    -54.073694
    4 Atom    -80.224621
    5 Atom    -22.421380
    6 Atom     -1.100463
    7 Atom    -22.352945
    8 Atom    -80.142985
 -----------------------------------------------------------------
 1\1\GINC-N030\SP\RB3LYP\6-31G(d,p)\Ca2H1O4P1\TIMN\04-May-2015\0\\# b3l
 yp/6-31G(d,p) pop=(ReadRadii,MK)\\Ca2HPO4_75\\0,1\O,0,-2.19548,0.81878
 8,-0.396551\O,0,0.319234,1.66131,-0.575467\P,0,-0.847826,1.20243,0.365
 516\Ca,0,1.85009,0.060966,0.018994\O,0,3.67437,-0.931102,-0.165142\H,0
 ,4.51611,-1.3751,-0.252296\O,0,-0.311253,-0.351329,0.836892\Ca,0,-2.03
 478,-1.3731,-0.160409\\Version=EM64T-G03RevE.01\State=1-A\HF=-1998.164
 3348\RMSD=9.961e-05\Thermal=0.\Dipole=-1.4596292,-2.737273,0.2168123\P
 G=C01 [X(Ca2H1O4P1)]\\@


 REFRAIN FROM ILLUSIONS, INSIST ON WORK AND NOT WORDS,
 PATIENTLY SEEK DIVINE AND SCIENTIFIC TRUTH.
 LAST WORDS OF MARIA MENDELEEVA TO HER SON DMITRI, C. 1850
 Job cpu time:  0 days  0 hours  0 minutes 19.8 seconds.
 File lengths (MBytes):  RWF=     21 Int=      0 D2E=      0 Chk=     10 Scr=      1
 Normal termination of Gaussian 03 at Mon May  4 20:08:51 2015.
