 Entering Gaussian System, Link 0=/home/timn/tmp/g03.e01/g03
 Input=Ca2HPO4_42.xyz.gjf
 Output=Ca2HPO4_42.xyz.out
 Initial command:
 /home/timn/tmp/g03.e01/l1.exe /home/timn/tmp/g03.e01/Gau-30703.inp -scrdir=/home/timn/tmp/g03.e01/
 Default is to use a total of   2 processors:
                                2 via shared-memory
                                1 via Linda
 Entering Link 1 = /home/timn/tmp/g03.e01/l1.exe PID=     30704.
  
 Copyright (c) 1988,1990,1992,1993,1995,1998,2003,2004,2007, Gaussian, Inc.
                  All Rights Reserved.
  
 This is the Gaussian(R) 03 program.  It is based on the
 the Gaussian(R) 98 system (copyright 1998, Gaussian, Inc.),
 the Gaussian(R) 94 system (copyright 1995, Gaussian, Inc.),
 the Gaussian 92(TM) system (copyright 1992, Gaussian, Inc.),
 the Gaussian 90(TM) system (copyright 1990, Gaussian, Inc.),
 the Gaussian 88(TM) system (copyright 1988, Gaussian, Inc.),
 the Gaussian 86(TM) system (copyright 1986, Carnegie Mellon
 University), and the Gaussian 82(TM) system (copyright 1983,
 Carnegie Mellon University). Gaussian is a federally registered
 trademark of Gaussian, Inc.
  
 This software contains proprietary and confidential information,
 including trade secrets, belonging to Gaussian, Inc.
  
 This software is provided under written license and may be
 used, copied, transmitted, or stored only in accord with that
 written license.
  
 The following legend is applicable only to US Government
 contracts under FAR:
  
                    RESTRICTED RIGHTS LEGEND
  
 Use, reproduction and disclosure by the US Government is
 subject to restrictions as set forth in subparagraphs (a)
 and (c) of the Commercial Computer Software - Restricted
 Rights clause in FAR 52.227-19.
  
 Gaussian, Inc.
 340 Quinnipiac St., Bldg. 40, Wallingford CT 06492
  
  
 ---------------------------------------------------------------
 Warning -- This program may not be used in any manner that
 competes with the business of Gaussian, Inc. or will provide
 assistance to any competitor of Gaussian, Inc.  The licensee
 of this program is prohibited from giving any competitor of
 Gaussian, Inc. access to this program.  By using this program,
 the user acknowledges that Gaussian, Inc. is engaged in the
 business of creating and licensing software in the field of
 computational chemistry and represents and warrants to the
 licensee that it is not a competitor of Gaussian, Inc. and that
 it will not use this program in any manner prohibited above.
 ---------------------------------------------------------------
  

 Cite this work as:
 Gaussian 03, Revision E.01,
 M. J. Frisch, G. W. Trucks, H. B. Schlegel, G. E. Scuseria, 
 M. A. Robb, J. R. Cheeseman, J. A. Montgomery, Jr., T. Vreven, 
 K. N. Kudin, J. C. Burant, J. M. Millam, S. S. Iyengar, J. Tomasi, 
 V. Barone, B. Mennucci, M. Cossi, G. Scalmani, N. Rega, 
 G. A. Petersson, H. Nakatsuji, M. Hada, M. Ehara, K. Toyota, 
 R. Fukuda, J. Hasegawa, M. Ishida, T. Nakajima, Y. Honda, O. Kitao, 
 H. Nakai, M. Klene, X. Li, J. E. Knox, H. P. Hratchian, J. B. Cross, 
 V. Bakken, C. Adamo, J. Jaramillo, R. Gomperts, R. E. Stratmann, 
 O. Yazyev, A. J. Austin, R. Cammi, C. Pomelli, J. W. Ochterski, 
 P. Y. Ayala, K. Morokuma, G. A. Voth, P. Salvador, J. J. Dannenberg, 
 V. G. Zakrzewski, S. Dapprich, A. D. Daniels, M. C. Strain, 
 O. Farkas, D. K. Malick, A. D. Rabuck, K. Raghavachari, 
 J. B. Foresman, J. V. Ortiz, Q. Cui, A. G. Baboul, S. Clifford, 
 J. Cioslowski, B. B. Stefanov, G. Liu, A. Liashenko, P. Piskorz, 
 I. Komaromi, R. L. Martin, D. J. Fox, T. Keith, M. A. Al-Laham, 
 C. Y. Peng, A. Nanayakkara, M. Challacombe, P. M. W. Gill, 
 B. Johnson, W. Chen, M. W. Wong, C. Gonzalez, and J. A. Pople, 
 Gaussian, Inc., Wallingford CT, 2004.
 
 ******************************************
 Gaussian 03:  EM64T-G03RevE.01 11-Sep-2007
                 4-May-2015 
 ******************************************
 %nproc=2
 Will use up to    2 processors via shared memory.
 Default route:  MP2=Direct MaxDisk=2000MB
 -------------------------------------
 # b3lyp/6-31G(d,p) pop=(ReadRadii,MK)
 -------------------------------------
 1/38=1/1;
 2/17=6,18=5,40=1/2;
 3/5=1,6=6,7=101,11=2,16=1,25=1,30=1,74=-5/1,2,3;
 4//1;
 5/5=2,32=1,38=5/2;
 6/7=2,8=2,9=2,10=2,15=8,20=101,28=1/1,2;
 99/5=1,9=1/99;
 ----------
 Ca2HPO4_42
 ----------
 Symbolic Z-matrix:
 Charge =  0 Multiplicity = 1
 O                    -2.57871   0.30845  -0.0005 
 O                    -0.53953  -1.11641   0.00085 
 P                    -2.08584  -1.15395  -0.00002 
 Ca                   -0.50675   1.43121  -0.00009 
 Ca                    1.94041  -0.99617  -0.00023 
 H                     3.12509  -2.76183  -0.00154 
 O                     1.52701   1.11433   0.78561 
 O                     1.52739   1.11493  -0.78495 
 
                          Input orientation:                          
 ---------------------------------------------------------------------
 Center     Atomic     Atomic              Coordinates (Angstroms)
 Number     Number      Type              X           Y           Z
 ---------------------------------------------------------------------
    1          8             0       -2.578710    0.308450   -0.000497
    2          8             0       -0.539534   -1.116410    0.000849
    3         15             0       -2.085840   -1.153950   -0.000017
    4         20             0       -0.506753    1.431210   -0.000086
    5         20             0        1.940410   -0.996174   -0.000230
    6          1             0        3.125090   -2.761830   -0.001537
    7          8             0        1.527010    1.114330    0.785609
    8          8             0        1.527390    1.114930   -0.784946
 ---------------------------------------------------------------------
                    Distance matrix (angstroms):
                    1          2          3          4          5
     1  O    0.000000
     2  O    2.487663   0.000000
     3  P    1.543222   1.546762   0.000000
     4  Ca   2.356607   2.547831   3.029285   0.000000
     5  Ca   4.703668   2.482857   4.029340   3.446854   0.000000
     6  H    6.477650   4.017074   5.453354   5.547240   2.126267
     7  O    4.257269   3.140486   4.337625   2.203162   2.289688
     8  O    4.257444   3.141421   4.338129   2.203129   2.289787
                    6          7          8
     6  H    0.000000
     7  O    4.265920   0.000000
     8  O    4.265635   1.570555   0.000000
 Stoichiometry    Ca2HO4P
 Framework group  C1[X(Ca2HO4P)]
 Deg. of freedom    18
 Full point group                 C1
 Largest Abelian subgroup         C1      NOp   1
 Largest concise Abelian subgroup C1      NOp   1
                         Standard orientation:                         
 ---------------------------------------------------------------------
 Center     Atomic     Atomic              Coordinates (Angstroms)
 Number     Number      Type              X           Y           Z
 ---------------------------------------------------------------------
    1          8             0       -2.578709    0.308449   -0.000497
    2          8             0       -0.539532   -1.116411    0.000849
    3         15             0       -2.085838   -1.153951   -0.000017
    4         20             0       -0.506752    1.431209   -0.000086
    5         20             0        1.940412   -0.996174   -0.000230
    6          1             0        3.125092   -2.761829   -0.001537
    7          8             0        1.527011    1.114330    0.785609
    8          8             0        1.527391    1.114930   -0.784946
 ---------------------------------------------------------------------
 Rotational constants (GHZ):      2.0143278      0.9889948      0.6995436
 Standard basis: 6-31G(d,p) (6D, 7F)
 There are   130 symmetry adapted basis functions of A   symmetry.
 Integral buffers will be    131072 words long.
 Raffenetti 2 integral format.
 Two-electron integral symmetry is turned on.
   130 basis functions,   323 primitive gaussians,   130 cartesian basis functions
    44 alpha electrons       44 beta electrons
       nuclear repulsion energy       621.4592923962 Hartrees.
 NAtoms=    8 NActive=    8 NUniq=    8 SFac= 7.50D-01 NAtFMM=   80 NAOKFM=F Big=F
 One-electron integrals computed using PRISM.
 NBasis=   130 RedAO= T  NBF=   130
 NBsUse=   130 1.00D-06 NBFU=   130
 Harris functional with IExCor=  402 diagonalized for initial guess.
 ExpMin= 2.60D-02 ExpMax= 3.53D+04 ExpMxC= 5.30D+03 IAcc=3 IRadAn=         5 AccDes= 0.00D+00
 HarFok:  IExCor= 402 AccDes= 0.00D+00 IRadAn=         5 IDoV=1
 ScaDFX=  1.000000  1.000000  1.000000  1.000000
 Initial guess orbital symmetries:
       Occupied  (A) (A) (A) (A) (A) (A) (A) (A) (A) (A) (A) (A)
                 (A) (A) (A) (A) (A) (A) (A) (A) (A) (A) (A) (A)
                 (A) (A) (A) (A) (A) (A) (A) (A) (A) (A) (A) (A)
                 (A) (A) (A) (A) (A) (A) (A) (A)
       Virtual   (A) (A) (A) (A) (A) (A) (A) (A) (A) (A) (A) (A)
                 (A) (A) (A) (A) (A) (A) (A) (A) (A) (A) (A) (A)
                 (A) (A) (A) (A) (A) (A) (A) (A) (A) (A) (A) (A)
                 (A) (A) (A) (A) (A) (A) (A) (A) (A) (A) (A) (A)
                 (A) (A) (A) (A) (A) (A) (A) (A) (A) (A) (A) (A)
                 (A) (A) (A) (A) (A) (A) (A) (A) (A) (A) (A) (A)
                 (A) (A) (A) (A) (A) (A) (A) (A) (A) (A) (A) (A)
                 (A) (A)
 The electronic state of the initial guess is 1-A.
 Requested convergence on RMS density matrix=1.00D-04 within 128 cycles.
 Requested convergence on MAX density matrix=1.00D-02.
 Requested convergence on             energy=1.00D-02.
 No special actions if energy rises.
 Keep R1 integrals in memory in canonical form, NReq=    38353825.
 EnCoef did     1 forward-backward iterations
 SCF Done:  E(RB+HF-LYP) =  -1998.07287725     A.U. after    7 cycles
             Convg  =    0.6120D-04             -V/T =  2.0029
             S**2   =   0.0000

 **********************************************************************

            Population analysis using the SCF density.

 **********************************************************************

 Orbital symmetries:
       Occupied  (A) (A) (A) (A) (A) (A) (A) (A) (A) (A) (A) (A)
                 (A) (A) (A) (A) (A) (A) (A) (A) (A) (A) (A) (A)
                 (A) (A) (A) (A) (A) (A) (A) (A) (A) (A) (A) (A)
                 (A) (A) (A) (A) (A) (A) (A) (A)
       Virtual   (A) (A) (A) (A) (A) (A) (A) (A) (A) (A) (A) (A)
                 (A) (A) (A) (A) (A) (A) (A) (A) (A) (A) (A) (A)
                 (A) (A) (A) (A) (A) (A) (A) (A) (A) (A) (A) (A)
                 (A) (A) (A) (A) (A) (A) (A) (A) (A) (A) (A) (A)
                 (A) (A) (A) (A) (A) (A) (A) (A) (A) (A) (A) (A)
                 (A) (A) (A) (A) (A) (A) (A) (A) (A) (A) (A) (A)
                 (A) (A) (A) (A) (A) (A) (A) (A) (A) (A) (A) (A)
                 (A) (A)
 The electronic state is 1-A.
 Alpha  occ. eigenvalues -- -145.37905-145.31697 -77.18936 -19.17071 -19.16733
 Alpha  occ. eigenvalues --  -19.10044 -19.10038 -15.45038 -15.38963 -12.58255
 Alpha  occ. eigenvalues --  -12.58237 -12.58062 -12.52177 -12.52165 -12.51944
 Alpha  occ. eigenvalues --   -6.64760  -4.81189  -4.80940  -4.80549  -1.82637
 Alpha  occ. eigenvalues --   -1.76661  -1.10825  -1.10543  -1.10375  -1.04814
 Alpha  occ. eigenvalues --   -1.04622  -1.04171  -1.02883  -0.97405  -0.92331
 Alpha  occ. eigenvalues --   -0.74040  -0.56235  -0.45178  -0.42751  -0.42126
 Alpha  occ. eigenvalues --   -0.34160  -0.33772  -0.33129  -0.32157  -0.31520
 Alpha  occ. eigenvalues --   -0.29368  -0.21068  -0.19000  -0.18482
 Alpha virt. eigenvalues --   -0.09120  -0.07714  -0.02615  -0.00927   0.00983
 Alpha virt. eigenvalues --    0.01206   0.02356   0.03105   0.06440   0.06801
 Alpha virt. eigenvalues --    0.07267   0.07286   0.09172   0.12366   0.13834
 Alpha virt. eigenvalues --    0.15875   0.16711   0.18433   0.18582   0.18994
 Alpha virt. eigenvalues --    0.23616   0.25116   0.27397   0.28093   0.29036
 Alpha virt. eigenvalues --    0.30061   0.33257   0.34390   0.34922   0.37037
 Alpha virt. eigenvalues --    0.39504   0.40524   0.42410   0.44855   0.47427
 Alpha virt. eigenvalues --    0.59107   0.64084   0.64358   0.72234   0.83896
 Alpha virt. eigenvalues --    0.93251   0.94496   0.97788   1.01177   1.03564
 Alpha virt. eigenvalues --    1.04119   1.07708   1.10064   1.12222   1.14771
 Alpha virt. eigenvalues --    1.17117   1.18976   1.22946   1.28516   1.31788
 Alpha virt. eigenvalues --    1.40075   1.46596   1.60602   1.62796   1.67329
 Alpha virt. eigenvalues --    1.76239   1.78276   1.80382   1.81720   1.86192
 Alpha virt. eigenvalues --    1.87699   1.94310   1.96089   1.96118   1.98324
 Alpha virt. eigenvalues --    1.99315   1.99566   2.16569   2.17539   2.17875
 Alpha virt. eigenvalues --    2.31437   2.31833   2.41267   2.62423   2.75158
 Alpha virt. eigenvalues --    3.05534   3.46097   3.65485   3.72000   3.85093
 Alpha virt. eigenvalues --    3.86106
          Condensed to atoms (all electrons):
              1          2          3          4          5          6
     1  O    8.316076  -0.047065   0.274229   0.112323  -0.000124   0.000000
     2  O   -0.047065   8.334947   0.268631   0.053288   0.074632  -0.000232
     3  P    0.274229   0.268631  13.656007   0.039579  -0.011778   0.000006
     4  Ca   0.112323   0.053288   0.039579  18.533922  -0.100874   0.024191
     5  Ca  -0.000124   0.074632  -0.011778  -0.100874  18.588644   0.315987
     6  H    0.000000  -0.000232   0.000006   0.024191   0.315987   0.956898
     7  O   -0.000029  -0.002551  -0.000582   0.118240   0.097086  -0.000150
     8  O   -0.000029  -0.002542  -0.000583   0.118276   0.097081  -0.000150
              7          8
     1  O   -0.000029  -0.000029
     2  O   -0.002551  -0.002542
     3  P   -0.000582  -0.000583
     4  Ca   0.118240   0.118276
     5  Ca   0.097086   0.097081
     6  H   -0.000150  -0.000150
     7  O    8.380514  -0.000621
     8  O   -0.000621   8.380511
 Mulliken atomic charges:
              1
     1  O   -0.655381
     2  O   -0.679108
     3  P    0.774491
     4  Ca   1.101054
     5  Ca   0.939347
     6  H   -0.296551
     7  O   -0.591908
     8  O   -0.591943
 Sum of Mulliken charges=   0.00000
 Atomic charges with hydrogens summed into heavy atoms:
              1
     1  O   -0.655381
     2  O   -0.679108
     3  P    0.774491
     4  Ca   1.101054
     5  Ca   0.642796
     6  H    0.000000
     7  O   -0.591908
     8  O   -0.591943
 Sum of Mulliken charges=   0.00000
 Electronic spatial extent (au):  <R**2>=  1516.1268
 Charge=     0.0000 electrons
 Dipole moment (field-independent basis, Debye):
    X=    -7.3873    Y=     5.8837    Z=     0.0009  Tot=     9.4441
 Quadrupole moment (field-independent basis, Debye-Ang):
   XX=   -91.6214   YY=   -73.1707   ZZ=   -62.6606
   XY=     4.7502   XZ=     0.0077   YZ=    -0.0107
 Traceless Quadrupole moment (field-independent basis, Debye-Ang):
   XX=   -15.8038   YY=     2.6469   ZZ=    13.1569
   XY=     4.7502   XZ=     0.0077   YZ=    -0.0107
 Octapole moment (field-independent basis, Debye-Ang**2):
  XXX=   -53.8649  YYY=   110.7819  ZZZ=     0.0069  XYY=   -86.5514
  XXY=    47.6861  XXZ=     0.0563  XZZ=   -12.5849  YZZ=     5.9110
  YYZ=     0.0324  XYZ=    -0.0385
 Hexadecapole moment (field-independent basis, Debye-Ang**3):
 XXXX= -1613.3332 YYYY=  -789.7124 ZZZZ=  -116.9956 XXXY=   246.9850
 XXXZ=     0.1302 YYYX=   172.6179 YYYZ=    -0.1139 ZZZX=     0.0307
 ZZZY=    -0.0424 XXYY=  -537.1843 XXZZ=  -237.4446 YYZZ=  -133.8129
 XXYZ=    -0.1206 YYXZ=     0.1081 ZZXY=     6.0578
 N-N= 6.214592923962D+02 E-N=-5.977017060551D+03  KE= 1.992269683425D+03
 Merz-Kollman atomic radii used.
 Read replacement radii for each type of atom:
 Rad(20) =   1.188000000000D+00
 Atom Element Radius
    1     8    1.40
    2     8    1.40
    3    15    1.80
    4    20    1.19
    5    20    1.19
    6     1    1.20
    7     8    1.40
    8     8    1.40

 **********************************************************************

            Electrostatic Properties Using The SCF Density

 **********************************************************************

       Atomic Center    1 is at  -2.578709  0.308449 -0.000497
       Atomic Center    2 is at  -0.539532 -1.116411  0.000849
       Atomic Center    3 is at  -2.085838 -1.153951 -0.000017
       Atomic Center    4 is at  -0.506752  1.431209 -0.000086
       Atomic Center    5 is at   1.940412 -0.996174 -0.000230
       Atomic Center    6 is at   3.125092 -2.761829 -0.001537
       Atomic Center    7 is at   1.527011  1.114330  0.785609
       Atomic Center    8 is at   1.527391  1.114930 -0.784946
     834 points will be used for fitting atomic charges
 Fitting point charges to eletrostatic potential
 Charges from ESP fit, RMS=   0.00579 RRMS=   0.10900:
 Charge=   0.00000 Dipole=    -7.1530     5.7620     0.0005 Tot=     9.1851
              1
     1  O   -0.607723
     2  O   -0.687493
     3  P    0.457993
     4  Ca   1.567981
     5  Ca   1.482799
     6  H   -0.734781
     7  O   -0.739238
     8  O   -0.739538
 -----------------------------------------------------------------

              Electrostatic Properties (Atomic Units)

 -----------------------------------------------------------------
    Center     Electric         -------- Electric Field --------
               Potential          X             Y             Z
 -----------------------------------------------------------------
    1 Atom    -22.298551
    2 Atom    -22.293881
    3 Atom    -54.029227
    4 Atom    -80.162839
    5 Atom    -80.226123
    6 Atom     -1.241691
    7 Atom    -22.368722
    8 Atom    -22.368736
 -----------------------------------------------------------------
 1\1\GINC-N026\SP\RB3LYP\6-31G(d,p)\Ca2H1O4P1\TIMN\04-May-2015\0\\# b3l
 yp/6-31G(d,p) pop=(ReadRadii,MK)\\Ca2HPO4_42\\0,1\O,0,-2.57871,0.30845
 ,-0.000497\O,0,-0.539534,-1.11641,0.000849\P,0,-2.08584,-1.15395,-0.00
 0017\Ca,0,-0.506753,1.43121,-0.000086\Ca,0,1.94041,-0.996174,-0.00023\
 H,0,3.12509,-2.76183,-0.001537\O,0,1.52701,1.11433,0.785609\O,0,1.5273
 9,1.11493,-0.784946\\Version=EM64T-G03RevE.01\State=1-A\HF=-1998.07287
 72\RMSD=6.120e-05\Thermal=0.\Dipole=-2.9064015,2.3148406,0.0003554\PG=
 C01 [X(Ca2H1O4P1)]\\@


 ALTHOUGH J.J. COULD DIAGNOSE THE FAULTS OF AN
 APPARATUS WITH UNCANNY ACCURACY, IT WAS JUST AS
 WELL NOT TO LET HIM HANDLE IT.
   -- GEORGE THOMPSON, ABOUT HIS FATHER
 Job cpu time:  0 days  0 hours  0 minutes 17.3 seconds.
 File lengths (MBytes):  RWF=     21 Int=      0 D2E=      0 Chk=     10 Scr=      1
 Normal termination of Gaussian 03 at Mon May  4 20:08:36 2015.
