 Entering Gaussian System, Link 0=/home/timn/tmp/g03.e01/g03
 Input=Ca2HPO4_62.xyz.gjf
 Output=Ca2HPO4_62.xyz.out
 Initial command:
 /home/timn/tmp/g03.e01/l1.exe /home/timn/tmp/g03.e01/Gau-20256.inp -scrdir=/home/timn/tmp/g03.e01/
 Default is to use a total of   2 processors:
                                2 via shared-memory
                                1 via Linda
 Entering Link 1 = /home/timn/tmp/g03.e01/l1.exe PID=     20257.
  
 Copyright (c) 1988,1990,1992,1993,1995,1998,2003,2004,2007, Gaussian, Inc.
                  All Rights Reserved.
  
 This is the Gaussian(R) 03 program.  It is based on the
 the Gaussian(R) 98 system (copyright 1998, Gaussian, Inc.),
 the Gaussian(R) 94 system (copyright 1995, Gaussian, Inc.),
 the Gaussian 92(TM) system (copyright 1992, Gaussian, Inc.),
 the Gaussian 90(TM) system (copyright 1990, Gaussian, Inc.),
 the Gaussian 88(TM) system (copyright 1988, Gaussian, Inc.),
 the Gaussian 86(TM) system (copyright 1986, Carnegie Mellon
 University), and the Gaussian 82(TM) system (copyright 1983,
 Carnegie Mellon University). Gaussian is a federally registered
 trademark of Gaussian, Inc.
  
 This software contains proprietary and confidential information,
 including trade secrets, belonging to Gaussian, Inc.
  
 This software is provided under written license and may be
 used, copied, transmitted, or stored only in accord with that
 written license.
  
 The following legend is applicable only to US Government
 contracts under FAR:
  
                    RESTRICTED RIGHTS LEGEND
  
 Use, reproduction and disclosure by the US Government is
 subject to restrictions as set forth in subparagraphs (a)
 and (c) of the Commercial Computer Software - Restricted
 Rights clause in FAR 52.227-19.
  
 Gaussian, Inc.
 340 Quinnipiac St., Bldg. 40, Wallingford CT 06492
  
  
 ---------------------------------------------------------------
 Warning -- This program may not be used in any manner that
 competes with the business of Gaussian, Inc. or will provide
 assistance to any competitor of Gaussian, Inc.  The licensee
 of this program is prohibited from giving any competitor of
 Gaussian, Inc. access to this program.  By using this program,
 the user acknowledges that Gaussian, Inc. is engaged in the
 business of creating and licensing software in the field of
 computational chemistry and represents and warrants to the
 licensee that it is not a competitor of Gaussian, Inc. and that
 it will not use this program in any manner prohibited above.
 ---------------------------------------------------------------
  

 Cite this work as:
 Gaussian 03, Revision E.01,
 M. J. Frisch, G. W. Trucks, H. B. Schlegel, G. E. Scuseria, 
 M. A. Robb, J. R. Cheeseman, J. A. Montgomery, Jr., T. Vreven, 
 K. N. Kudin, J. C. Burant, J. M. Millam, S. S. Iyengar, J. Tomasi, 
 V. Barone, B. Mennucci, M. Cossi, G. Scalmani, N. Rega, 
 G. A. Petersson, H. Nakatsuji, M. Hada, M. Ehara, K. Toyota, 
 R. Fukuda, J. Hasegawa, M. Ishida, T. Nakajima, Y. Honda, O. Kitao, 
 H. Nakai, M. Klene, X. Li, J. E. Knox, H. P. Hratchian, J. B. Cross, 
 V. Bakken, C. Adamo, J. Jaramillo, R. Gomperts, R. E. Stratmann, 
 O. Yazyev, A. J. Austin, R. Cammi, C. Pomelli, J. W. Ochterski, 
 P. Y. Ayala, K. Morokuma, G. A. Voth, P. Salvador, J. J. Dannenberg, 
 V. G. Zakrzewski, S. Dapprich, A. D. Daniels, M. C. Strain, 
 O. Farkas, D. K. Malick, A. D. Rabuck, K. Raghavachari, 
 J. B. Foresman, J. V. Ortiz, Q. Cui, A. G. Baboul, S. Clifford, 
 J. Cioslowski, B. B. Stefanov, G. Liu, A. Liashenko, P. Piskorz, 
 I. Komaromi, R. L. Martin, D. J. Fox, T. Keith, M. A. Al-Laham, 
 C. Y. Peng, A. Nanayakkara, M. Challacombe, P. M. W. Gill, 
 B. Johnson, W. Chen, M. W. Wong, C. Gonzalez, and J. A. Pople, 
 Gaussian, Inc., Wallingford CT, 2004.
 
 ******************************************
 Gaussian 03:  EM64T-G03RevE.01 11-Sep-2007
                 4-May-2015 
 ******************************************
 %nproc=2
 Will use up to    2 processors via shared memory.
 Default route:  MP2=Direct MaxDisk=2000MB
 -------------------------------------
 # b3lyp/6-31G(d,p) pop=(ReadRadii,MK)
 -------------------------------------
 1/38=1/1;
 2/17=6,18=5,40=1/2;
 3/5=1,6=6,7=101,11=2,16=1,25=1,30=1,74=-5/1,2,3;
 4//1;
 5/5=2,32=1,38=5/2;
 6/7=2,8=2,9=2,10=2,15=8,20=101,28=1/1,2;
 99/5=1,9=1/99;
 ----------
 Ca2HPO4_62
 ----------
 Symbolic Z-matrix:
 Charge =  0 Multiplicity = 1
 O                    -2.55849   1.24614  -0.00792 
 P                    -3.47091   0.00055  -0.00044 
 O                    -2.55966  -1.24585   0.0079 
 O                     1.55615  -0.01329  -0.78834 
 O                     1.55648   0.01172   0.78838 
 Ca                   -0.53133  -0.00039   0.00058 
 Ca                    3.64874   0.00042  -0.00024 
 H                     5.75975   0.00143  -0.00042 
 
                          Input orientation:                          
 ---------------------------------------------------------------------
 Center     Atomic     Atomic              Coordinates (Angstroms)
 Number     Number      Type              X           Y           Z
 ---------------------------------------------------------------------
    1          8             0       -2.558490    1.246140   -0.007922
    2         15             0       -3.470910    0.000554   -0.000439
    3          8             0       -2.559660   -1.245850    0.007902
    4          8             0        1.556150   -0.013294   -0.788339
    5          8             0        1.556480    0.011717    0.788378
    6         20             0       -0.531334   -0.000393    0.000578
    7         20             0        3.648740    0.000418   -0.000235
    8          1             0        5.759750    0.001431   -0.000424
 ---------------------------------------------------------------------
                    Distance matrix (angstroms):
                    1          2          3          4          5
     1  O    0.000000
     2  P    1.544037   0.000000
     3  O    2.492041   1.544011   0.000000
     4  O    4.373270   5.088449   4.369564   0.000000
     5  O    4.369310   5.088910   4.374154   1.576915   0.000000
     6  Ca   2.379764   2.939576   2.380194   2.231624   2.231534
     7  Ca   6.331002   7.119650   6.332257   2.236119   2.235976
     8  H    8.410854   9.230660   8.412393   4.276831   4.276657
                    6          7          8
     6  Ca   0.000000
     7  Ca   4.180074   0.000000
     8  H    6.291084   2.111010   0.000000
 Stoichiometry    Ca2HO4P
 Framework group  C1[X(Ca2HO4P)]
 Deg. of freedom    18
 Full point group                 C1
 Largest Abelian subgroup         C1      NOp   1
 Largest concise Abelian subgroup C1      NOp   1
                         Standard orientation:                         
 ---------------------------------------------------------------------
 Center     Atomic     Atomic              Coordinates (Angstroms)
 Number     Number      Type              X           Y           Z
 ---------------------------------------------------------------------
    1          8             0       -2.558490    1.246141   -0.007922
    2         15             0       -3.470911    0.000556   -0.000439
    3          8             0       -2.559661   -1.245849    0.007902
    4          8             0        1.556149   -0.013294   -0.788339
    5          8             0        1.556479    0.011717    0.788378
    6         20             0       -0.531335   -0.000392    0.000578
    7         20             0        3.648739    0.000417   -0.000235
    8          1             0        5.759749    0.001430   -0.000424
 ---------------------------------------------------------------------
 Rotational constants (GHZ):      7.2660611      0.4022818      0.3929650
 Standard basis: 6-31G(d,p) (6D, 7F)
 There are   130 symmetry adapted basis functions of A   symmetry.
 Integral buffers will be    131072 words long.
 Raffenetti 2 integral format.
 Two-electron integral symmetry is turned on.
   130 basis functions,   323 primitive gaussians,   130 cartesian basis functions
    44 alpha electrons       44 beta electrons
       nuclear repulsion energy       560.2588604326 Hartrees.
 NAtoms=    8 NActive=    8 NUniq=    8 SFac= 7.50D-01 NAtFMM=   80 NAOKFM=F Big=F
 One-electron integrals computed using PRISM.
 NBasis=   130 RedAO= T  NBF=   130
 NBsUse=   130 1.00D-06 NBFU=   130
 Harris functional with IExCor=  402 diagonalized for initial guess.
 ExpMin= 2.60D-02 ExpMax= 3.53D+04 ExpMxC= 5.30D+03 IAcc=3 IRadAn=         5 AccDes= 0.00D+00
 HarFok:  IExCor= 402 AccDes= 0.00D+00 IRadAn=         5 IDoV=1
 ScaDFX=  1.000000  1.000000  1.000000  1.000000
 Initial guess orbital symmetries:
       Occupied  (A) (A) (A) (A) (A) (A) (A) (A) (A) (A) (A) (A)
                 (A) (A) (A) (A) (A) (A) (A) (A) (A) (A) (A) (A)
                 (A) (A) (A) (A) (A) (A) (A) (A) (A) (A) (A) (A)
                 (A) (A) (A) (A) (A) (A) (A) (A)
       Virtual   (A) (A) (A) (A) (A) (A) (A) (A) (A) (A) (A) (A)
                 (A) (A) (A) (A) (A) (A) (A) (A) (A) (A) (A) (A)
                 (A) (A) (A) (A) (A) (A) (A) (A) (A) (A) (A) (A)
                 (A) (A) (A) (A) (A) (A) (A) (A) (A) (A) (A) (A)
                 (A) (A) (A) (A) (A) (A) (A) (A) (A) (A) (A) (A)
                 (A) (A) (A) (A) (A) (A) (A) (A) (A) (A) (A) (A)
                 (A) (A) (A) (A) (A) (A) (A) (A) (A) (A) (A) (A)
                 (A) (A)
 The electronic state of the initial guess is 1-A.
 Requested convergence on RMS density matrix=1.00D-04 within 128 cycles.
 Requested convergence on MAX density matrix=1.00D-02.
 Requested convergence on             energy=1.00D-02.
 No special actions if energy rises.
 Keep R1 integrals in memory in canonical form, NReq=    38354270.
 SCF Done:  E(RB+HF-LYP) =  -1998.07639865     A.U. after    6 cycles
             Convg  =    0.1391D-04             -V/T =  2.0029
             S**2   =   0.0000

 **********************************************************************

            Population analysis using the SCF density.

 **********************************************************************

 Orbital symmetries:
       Occupied  (A) (A) (A) (A) (A) (A) (A) (A) (A) (A) (A) (A)
                 (A) (A) (A) (A) (A) (A) (A) (A) (A) (A) (A) (A)
                 (A) (A) (A) (A) (A) (A) (A) (A) (A) (A) (A) (A)
                 (A) (A) (A) (A) (A) (A) (A) (A)
       Virtual   (A) (A) (A) (A) (A) (A) (A) (A) (A) (A) (A) (A)
                 (A) (A) (A) (A) (A) (A) (A) (A) (A) (A) (A) (A)
                 (A) (A) (A) (A) (A) (A) (A) (A) (A) (A) (A) (A)
                 (A) (A) (A) (A) (A) (A) (A) (A) (A) (A) (A) (A)
                 (A) (A) (A) (A) (A) (A) (A) (A) (A) (A) (A) (A)
                 (A) (A) (A) (A) (A) (A) (A) (A) (A) (A) (A) (A)
                 (A) (A) (A) (A) (A) (A) (A) (A) (A) (A) (A) (A)
                 (A) (A)
 The electronic state is 1-A.
 Alpha  occ. eigenvalues -- -145.35002-145.34946 -77.15849 -19.13872 -19.13863
 Alpha  occ. eigenvalues --  -19.11728 -19.11716 -15.42336 -15.42174 -12.55582
 Alpha  occ. eigenvalues --  -12.55525 -12.55390 -12.55378 -12.55272 -12.55172
 Alpha  occ. eigenvalues --   -6.61768  -4.78201  -4.77934  -4.77563  -1.80085
 Alpha  occ. eigenvalues --   -1.79875  -1.08759  -1.08191  -1.07926  -1.07809
 Alpha  occ. eigenvalues --   -1.07715  -1.07071  -1.00242  -0.94402  -0.93699
 Alpha  occ. eigenvalues --   -0.75907  -0.52717  -0.41386  -0.39868  -0.39300
 Alpha  occ. eigenvalues --   -0.35482  -0.34396  -0.32531  -0.30956  -0.29775
 Alpha  occ. eigenvalues --   -0.27417  -0.24227  -0.21412  -0.19876
 Alpha virt. eigenvalues --   -0.06392  -0.04143  -0.02475  -0.02352  -0.01105
 Alpha virt. eigenvalues --    0.00746   0.01356   0.04256   0.05519   0.05668
 Alpha virt. eigenvalues --    0.08285   0.08500   0.11703   0.13730   0.13830
 Alpha virt. eigenvalues --    0.13909   0.15257   0.15747   0.20790   0.20993
 Alpha virt. eigenvalues --    0.21432   0.22525   0.24629   0.27234   0.27368
 Alpha virt. eigenvalues --    0.31470   0.33917   0.34651   0.35096   0.35405
 Alpha virt. eigenvalues --    0.40721   0.41334   0.41789   0.43738   0.46231
 Alpha virt. eigenvalues --    0.50943   0.66882   0.67448   0.75662   0.85956
 Alpha virt. eigenvalues --    0.90251   0.95400   0.96847   1.00345   1.02130
 Alpha virt. eigenvalues --    1.03165   1.03761   1.05110   1.06028   1.14298
 Alpha virt. eigenvalues --    1.15096   1.21945   1.26791   1.27052   1.38642
 Alpha virt. eigenvalues --    1.39420   1.44490   1.48664   1.59509   1.64883
 Alpha virt. eigenvalues --    1.79000   1.81277   1.82299   1.83445   1.84490
 Alpha virt. eigenvalues --    1.85950   1.91041   1.94313   1.97113   1.99418
 Alpha virt. eigenvalues --    2.02962   2.03583   2.14267   2.14940   2.24903
 Alpha virt. eigenvalues --    2.28959   2.29731   2.43183   2.68684   2.77398
 Alpha virt. eigenvalues --    3.03105   3.47166   3.66414   3.72370   3.79666
 Alpha virt. eigenvalues --    3.81225
          Condensed to atoms (all electrons):
              1          2          3          4          5          6
     1  O    8.319344   0.264070  -0.050069  -0.000038  -0.000038   0.114136
     2  P    0.264070  13.687091   0.264040   0.000010   0.000011   0.042107
     3  O   -0.050069   0.264040   8.319532  -0.000037  -0.000037   0.114114
     4  O   -0.000038   0.000010  -0.000037   8.416145  -0.007769   0.105663
     5  O   -0.000038   0.000011  -0.000037  -0.007769   8.416515   0.105645
     6  Ca   0.114136   0.042107   0.114114   0.105663   0.105645  18.410768
     7  Ca   0.000068  -0.001232   0.000069   0.102764   0.102740  -0.027028
     8  H    0.000000   0.000000   0.000000  -0.000204  -0.000204   0.009116
              7          8
     1  O    0.000068   0.000000
     2  P   -0.001232   0.000000
     3  O    0.000069   0.000000
     4  O    0.102764  -0.000204
     5  O    0.102740  -0.000204
     6  Ca  -0.027028   0.009116
     7  Ca  18.553285   0.331188
     8  H    0.331188   0.939150
 Mulliken atomic charges:
              1
     1  O   -0.647474
     2  P    0.743904
     3  O   -0.647611
     4  O   -0.616535
     5  O   -0.616862
     6  Ca   1.125479
     7  Ca   0.938144
     8  H   -0.279045
 Sum of Mulliken charges=   0.00000
 Atomic charges with hydrogens summed into heavy atoms:
              1
     1  O   -0.647474
     2  P    0.743904
     3  O   -0.647611
     4  O   -0.616535
     5  O   -0.616862
     6  Ca   1.125479
     7  Ca   0.659099
     8  H    0.000000
 Sum of Mulliken charges=   0.00000
 Electronic spatial extent (au):  <R**2>=  2549.5162
 Charge=     0.0000 electrons
 Dipole moment (field-independent basis, Debye):
    X=    -1.4265    Y=     0.0010    Z=     0.0020  Tot=     1.4265
 Quadrupole moment (field-independent basis, Debye-Ang):
   XX=  -108.1282   YY=   -68.8478   ZZ=   -62.3122
   XY=    -0.0138   XZ=    -0.0015   YZ=     0.0030
 Traceless Quadrupole moment (field-independent basis, Debye-Ang):
   XX=   -28.3654   YY=    10.9149   ZZ=    17.4505
   XY=    -0.0138   XZ=    -0.0015   YZ=     0.0030
 Octapole moment (field-independent basis, Debye-Ang**2):
  XXX=  -279.6944  YYY=    -0.0144  ZZZ=     0.0087  XYY=    21.2989
  XXY=    -0.0766  XXZ=     0.0227  XZZ=   -11.5619  YZZ=    -0.0011
  YYZ=     0.0037  XYZ=    -0.2697
 Hexadecapole moment (field-independent basis, Debye-Ang**3):
 XXXX= -5406.9658 YYYY=  -196.9182 ZZZZ=  -112.8440 XXXY=    -0.7684
 XXXZ=     0.1453 YYYX=    -0.0401 YYYZ=     0.0500 ZZZX=     0.0009
 ZZZY=     0.0539 XXYY=  -606.5052 XXZZ=  -540.5427 YYZZ=   -50.2931
 XXYZ=     0.2379 YYXZ=     0.0014 ZZXY=    -0.0094
 N-N= 5.602588604326D+02 E-N=-5.855178073616D+03  KE= 1.992351013361D+03
 Merz-Kollman atomic radii used.
 Read replacement radii for each type of atom:
 Rad(20) =   1.188000000000D+00
 Atom Element Radius
    1     8    1.40
    2    15    1.80
    3     8    1.40
    4     8    1.40
    5     8    1.40
    6    20    1.19
    7    20    1.19
    8     1    1.20

 **********************************************************************

            Electrostatic Properties Using The SCF Density

 **********************************************************************

       Atomic Center    1 is at  -2.558490  1.246141 -0.007922
       Atomic Center    2 is at  -3.470911  0.000556 -0.000439
       Atomic Center    3 is at  -2.559661 -1.245849  0.007902
       Atomic Center    4 is at   1.556149 -0.013294 -0.788339
       Atomic Center    5 is at   1.556479  0.011717  0.788378
       Atomic Center    6 is at  -0.531335 -0.000392  0.000578
       Atomic Center    7 is at   3.648739  0.000417 -0.000235
       Atomic Center    8 is at   5.759749  0.001430 -0.000424
     878 points will be used for fitting atomic charges
 Fitting point charges to eletrostatic potential
 Charges from ESP fit, RMS=   0.00576 RRMS=   0.13403:
 Charge=   0.00000 Dipole=    -1.1007     0.0019     0.0021 Tot=     1.1007
              1
     1  O   -0.618971
     2  P    0.407862
     3  O   -0.619086
     4  O   -0.801525
     5  O   -0.801865
     6  Ca   1.633829
     7  Ca   1.527561
     8  H   -0.727805
 -----------------------------------------------------------------

              Electrostatic Properties (Atomic Units)

 -----------------------------------------------------------------
    Center     Electric         -------- Electric Field --------
               Potential          X             Y             Z
 -----------------------------------------------------------------
    1 Atom    -22.327784
    2 Atom    -54.059209
    3 Atom    -22.328048
    4 Atom    -22.349886
    5 Atom    -22.350191
    6 Atom    -80.192577
    7 Atom    -80.193123
    8 Atom     -1.210920
 -----------------------------------------------------------------
 1\1\GINC-N036\SP\RB3LYP\6-31G(d,p)\Ca2H1O4P1\TIMN\04-May-2015\0\\# b3l
 yp/6-31G(d,p) pop=(ReadRadii,MK)\\Ca2HPO4_62\\0,1\O,0,-2.55849,1.24614
 ,-0.007922\P,0,-3.47091,0.000554,-0.000439\O,0,-2.55966,-1.24585,0.007
 902\O,0,1.55615,-0.013294,-0.788339\O,0,1.55648,0.011717,0.788378\Ca,0
 ,-0.531334,-0.000393,0.000578\Ca,0,3.64874,0.000418,-0.000235\H,0,5.75
 975,0.001431,-0.000424\\Version=EM64T-G03RevE.01\State=1-A\HF=-1998.07
 63986\RMSD=1.391e-05\Thermal=0.\Dipole=-0.5612333,0.000396,0.000806\PG
 =C01 [X(Ca2H1O4P1)]\\@


 REPARTEE - WHAT YOU THINK OF AFTER YOU BECOME A DEPARTEE.
 Job cpu time:  0 days  0 hours  0 minutes 14.8 seconds.
 File lengths (MBytes):  RWF=     21 Int=      0 D2E=      0 Chk=     10 Scr=      1
 Normal termination of Gaussian 03 at Mon May  4 20:08:37 2015.
