 Entering Gaussian System, Link 0=/home/timn/tmp/g03.e01/g03
 Input=Ca2HPO4_61.xyz.gjf
 Output=Ca2HPO4_61.xyz.out
 Initial command:
 /home/timn/tmp/g03.e01/l1.exe /home/timn/tmp/g03.e01/Gau-32444.inp -scrdir=/home/timn/tmp/g03.e01/
 Default is to use a total of   2 processors:
                                2 via shared-memory
                                1 via Linda
 Entering Link 1 = /home/timn/tmp/g03.e01/l1.exe PID=     32445.
  
 Copyright (c) 1988,1990,1992,1993,1995,1998,2003,2004,2007, Gaussian, Inc.
                  All Rights Reserved.
  
 This is the Gaussian(R) 03 program.  It is based on the
 the Gaussian(R) 98 system (copyright 1998, Gaussian, Inc.),
 the Gaussian(R) 94 system (copyright 1995, Gaussian, Inc.),
 the Gaussian 92(TM) system (copyright 1992, Gaussian, Inc.),
 the Gaussian 90(TM) system (copyright 1990, Gaussian, Inc.),
 the Gaussian 88(TM) system (copyright 1988, Gaussian, Inc.),
 the Gaussian 86(TM) system (copyright 1986, Carnegie Mellon
 University), and the Gaussian 82(TM) system (copyright 1983,
 Carnegie Mellon University). Gaussian is a federally registered
 trademark of Gaussian, Inc.
  
 This software contains proprietary and confidential information,
 including trade secrets, belonging to Gaussian, Inc.
  
 This software is provided under written license and may be
 used, copied, transmitted, or stored only in accord with that
 written license.
  
 The following legend is applicable only to US Government
 contracts under FAR:
  
                    RESTRICTED RIGHTS LEGEND
  
 Use, reproduction and disclosure by the US Government is
 subject to restrictions as set forth in subparagraphs (a)
 and (c) of the Commercial Computer Software - Restricted
 Rights clause in FAR 52.227-19.
  
 Gaussian, Inc.
 340 Quinnipiac St., Bldg. 40, Wallingford CT 06492
  
  
 ---------------------------------------------------------------
 Warning -- This program may not be used in any manner that
 competes with the business of Gaussian, Inc. or will provide
 assistance to any competitor of Gaussian, Inc.  The licensee
 of this program is prohibited from giving any competitor of
 Gaussian, Inc. access to this program.  By using this program,
 the user acknowledges that Gaussian, Inc. is engaged in the
 business of creating and licensing software in the field of
 computational chemistry and represents and warrants to the
 licensee that it is not a competitor of Gaussian, Inc. and that
 it will not use this program in any manner prohibited above.
 ---------------------------------------------------------------
  

 Cite this work as:
 Gaussian 03, Revision E.01,
 M. J. Frisch, G. W. Trucks, H. B. Schlegel, G. E. Scuseria, 
 M. A. Robb, J. R. Cheeseman, J. A. Montgomery, Jr., T. Vreven, 
 K. N. Kudin, J. C. Burant, J. M. Millam, S. S. Iyengar, J. Tomasi, 
 V. Barone, B. Mennucci, M. Cossi, G. Scalmani, N. Rega, 
 G. A. Petersson, H. Nakatsuji, M. Hada, M. Ehara, K. Toyota, 
 R. Fukuda, J. Hasegawa, M. Ishida, T. Nakajima, Y. Honda, O. Kitao, 
 H. Nakai, M. Klene, X. Li, J. E. Knox, H. P. Hratchian, J. B. Cross, 
 V. Bakken, C. Adamo, J. Jaramillo, R. Gomperts, R. E. Stratmann, 
 O. Yazyev, A. J. Austin, R. Cammi, C. Pomelli, J. W. Ochterski, 
 P. Y. Ayala, K. Morokuma, G. A. Voth, P. Salvador, J. J. Dannenberg, 
 V. G. Zakrzewski, S. Dapprich, A. D. Daniels, M. C. Strain, 
 O. Farkas, D. K. Malick, A. D. Rabuck, K. Raghavachari, 
 J. B. Foresman, J. V. Ortiz, Q. Cui, A. G. Baboul, S. Clifford, 
 J. Cioslowski, B. B. Stefanov, G. Liu, A. Liashenko, P. Piskorz, 
 I. Komaromi, R. L. Martin, D. J. Fox, T. Keith, M. A. Al-Laham, 
 C. Y. Peng, A. Nanayakkara, M. Challacombe, P. M. W. Gill, 
 B. Johnson, W. Chen, M. W. Wong, C. Gonzalez, and J. A. Pople, 
 Gaussian, Inc., Wallingford CT, 2004.
 
 ******************************************
 Gaussian 03:  EM64T-G03RevE.01 11-Sep-2007
                 4-May-2015 
 ******************************************
 %nproc=2
 Will use up to    2 processors via shared memory.
 Default route:  MP2=Direct MaxDisk=2000MB
 -------------------------------------
 # b3lyp/6-31G(d,p) pop=(ReadRadii,MK)
 -------------------------------------
 1/38=1/1;
 2/17=6,18=5,40=1/2;
 3/5=1,6=6,7=101,11=2,16=1,25=1,30=1,74=-5/1,2,3;
 4//1;
 5/5=2,32=1,38=5/2;
 6/7=2,8=2,9=2,10=2,15=8,20=101,28=1/1,2;
 99/5=1,9=1/99;
 ----------
 Ca2HPO4_61
 ----------
 Symbolic Z-matrix:
 Charge =  0 Multiplicity = 1
 O                    -2.94612  -0.18742   0.01718 
 H                    -3.35971   0.35796  -0.67731 
 O                    -1.92679   0.79748   0.54625 
 O                    -1.07384   1.1071   -0.55367 
 O                     1.04426  -0.4261    0.99344 
 P                     2.0945   -1.1168   -0.21658 
 Ca                   -0.70524  -1.2591   -0.13912 
 Ca                    1.26334   1.56238  -0.06586 
 
                          Input orientation:                          
 ---------------------------------------------------------------------
 Center     Atomic     Atomic              Coordinates (Angstroms)
 Number     Number      Type              X           Y           Z
 ---------------------------------------------------------------------
    1          8             0       -2.946120   -0.187417    0.017182
    2          1             0       -3.359710    0.357963   -0.677305
    3          8             0       -1.926790    0.797483    0.546247
    4          8             0       -1.073840    1.107100   -0.553665
    5          8             0        1.044260   -0.426104    0.993437
    6         15             0        2.094500   -1.116800   -0.216576
    7         20             0       -0.705235   -1.259100   -0.139121
    8         20             0        1.263340    1.562380   -0.065863
 ---------------------------------------------------------------------
                    Distance matrix (angstroms):
                    1          2          3          4          5
     1  O    0.000000
     2  H    0.975094   0.000000
     3  O    1.512935   1.934817   0.000000
     4  O    2.346715   2.408671   1.425901   0.000000
     5  O    4.114994   4.775049   3.244115   3.038188   0.000000
     6  P    5.130911   5.668827   4.518534   3.885581   1.744763
     7  Ca   2.488875   3.154484   2.488264   2.430354   2.244394
     8  Ca   4.559412   4.816334   3.337166   2.430564   2.263665
                    6          7          8
     6  P    0.000000
     7  Ca   2.804419   0.000000
     8  Ca   2.809190   3.441134   0.000000
 Stoichiometry    Ca2HO4P
 Framework group  C1[X(Ca2HO4P)]
 Deg. of freedom    18
 Full point group                 C1
 Largest Abelian subgroup         C1      NOp   1
 Largest concise Abelian subgroup C1      NOp   1
                         Standard orientation:                         
 ---------------------------------------------------------------------
 Center     Atomic     Atomic              Coordinates (Angstroms)
 Number     Number      Type              X           Y           Z
 ---------------------------------------------------------------------
    1          8             0       -2.946120   -0.187419    0.017182
    2          1             0       -3.359710    0.357960   -0.677305
    3          8             0       -1.926790    0.797481    0.546247
    4          8             0       -1.073840    1.107099   -0.553665
    5          8             0        1.044261   -0.426104    0.993437
    6         15             0        2.094501   -1.116799   -0.216576
    7         20             0       -0.705234   -1.259101   -0.139121
    8         20             0        1.263339    1.562380   -0.065863
 ---------------------------------------------------------------------
 Rotational constants (GHZ):      1.9348349      1.0247407      0.7242881
 Standard basis: 6-31G(d,p) (6D, 7F)
 There are   130 symmetry adapted basis functions of A   symmetry.
 Integral buffers will be    131072 words long.
 Raffenetti 2 integral format.
 Two-electron integral symmetry is turned on.
   130 basis functions,   323 primitive gaussians,   130 cartesian basis functions
    44 alpha electrons       44 beta electrons
       nuclear repulsion energy       617.0996756225 Hartrees.
 NAtoms=    8 NActive=    8 NUniq=    8 SFac= 7.50D-01 NAtFMM=   80 NAOKFM=F Big=F
 One-electron integrals computed using PRISM.
 NBasis=   130 RedAO= T  NBF=   130
 NBsUse=   130 1.00D-06 NBFU=   130
 Harris functional with IExCor=  402 diagonalized for initial guess.
 ExpMin= 2.60D-02 ExpMax= 3.53D+04 ExpMxC= 5.30D+03 IAcc=3 IRadAn=         5 AccDes= 0.00D+00
 HarFok:  IExCor= 402 AccDes= 0.00D+00 IRadAn=         5 IDoV=1
 ScaDFX=  1.000000  1.000000  1.000000  1.000000
 Initial guess orbital symmetries:
       Occupied  (A) (A) (A) (A) (A) (A) (A) (A) (A) (A) (A) (A)
                 (A) (A) (A) (A) (A) (A) (A) (A) (A) (A) (A) (A)
                 (A) (A) (A) (A) (A) (A) (A) (A) (A) (A) (A) (A)
                 (A) (A) (A) (A) (A) (A) (A) (A)
       Virtual   (A) (A) (A) (A) (A) (A) (A) (A) (A) (A) (A) (A)
                 (A) (A) (A) (A) (A) (A) (A) (A) (A) (A) (A) (A)
                 (A) (A) (A) (A) (A) (A) (A) (A) (A) (A) (A) (A)
                 (A) (A) (A) (A) (A) (A) (A) (A) (A) (A) (A) (A)
                 (A) (A) (A) (A) (A) (A) (A) (A) (A) (A) (A) (A)
                 (A) (A) (A) (A) (A) (A) (A) (A) (A) (A) (A) (A)
                 (A) (A) (A) (A) (A) (A) (A) (A) (A) (A) (A) (A)
                 (A) (A)
 The electronic state of the initial guess is 1-A.
 Requested convergence on RMS density matrix=1.00D-04 within 128 cycles.
 Requested convergence on MAX density matrix=1.00D-02.
 Requested convergence on             energy=1.00D-02.
 No special actions if energy rises.
 Keep R1 integrals in memory in canonical form, NReq=    38353971.
 EnCoef did     5 forward-backward iterations
 EnCoef did     4 forward-backward iterations
 EnCoef did     6 forward-backward iterations
 EnCoef did     7 forward-backward iterations
 EnCoef did   100 forward-backward iterations
 EnCoef did     5 forward-backward iterations
 SCF Done:  E(RB+HF-LYP) =  -1997.86167928     A.U. after   12 cycles
             Convg  =    0.2400D-04             -V/T =  2.0029
             S**2   =   0.0000

 **********************************************************************

            Population analysis using the SCF density.

 **********************************************************************

 Orbital symmetries:
       Occupied  (A) (A) (A) (A) (A) (A) (A) (A) (A) (A) (A) (A)
                 (A) (A) (A) (A) (A) (A) (A) (A) (A) (A) (A) (A)
                 (A) (A) (A) (A) (A) (A) (A) (A) (A) (A) (A) (A)
                 (A) (A) (A) (A) (A) (A) (A) (A)
       Virtual   (A) (A) (A) (A) (A) (A) (A) (A) (A) (A) (A) (A)
                 (A) (A) (A) (A) (A) (A) (A) (A) (A) (A) (A) (A)
                 (A) (A) (A) (A) (A) (A) (A) (A) (A) (A) (A) (A)
                 (A) (A) (A) (A) (A) (A) (A) (A) (A) (A) (A) (A)
                 (A) (A) (A) (A) (A) (A) (A) (A) (A) (A) (A) (A)
                 (A) (A) (A) (A) (A) (A) (A) (A) (A) (A) (A) (A)
                 (A) (A) (A) (A) (A) (A) (A) (A) (A) (A) (A) (A)
                 (A) (A)
 The electronic state is 1-A.
 Alpha  occ. eigenvalues -- -145.36797-145.36374 -77.03378 -19.28618 -19.24981
 Alpha  occ. eigenvalues --  -19.17417 -19.06853 -15.43901 -15.43496 -12.57110
 Alpha  occ. eigenvalues --  -12.57038 -12.56990 -12.56710 -12.56623 -12.56596
 Alpha  occ. eigenvalues --   -6.49914  -4.66313  -4.65986  -4.65679  -1.81272
 Alpha  occ. eigenvalues --   -1.81003  -1.16992  -1.09253  -1.08848  -1.08658
 Alpha  occ. eigenvalues --   -1.08551  -1.08263  -1.07792  -1.00839  -0.86809
 Alpha  occ. eigenvalues --   -0.81109  -0.55868  -0.49406  -0.47819  -0.47613
 Alpha  occ. eigenvalues --   -0.41395  -0.35958  -0.30805  -0.29712  -0.29064
 Alpha  occ. eigenvalues --   -0.28159  -0.25469  -0.13485  -0.12642
 Alpha virt. eigenvalues --   -0.07896  -0.06872  -0.05218  -0.01496  -0.00616
 Alpha virt. eigenvalues --    0.00114   0.00747   0.02224   0.03802   0.06021
 Alpha virt. eigenvalues --    0.06395   0.08387   0.08850   0.10548   0.13122
 Alpha virt. eigenvalues --    0.14451   0.14778   0.16509   0.18855   0.19730
 Alpha virt. eigenvalues --    0.20155   0.21818   0.24015   0.25838   0.27832
 Alpha virt. eigenvalues --    0.28362   0.31563   0.35929   0.39204   0.41740
 Alpha virt. eigenvalues --    0.42217   0.42605   0.44486   0.44891   0.51699
 Alpha virt. eigenvalues --    0.57426   0.74860   0.76168   0.77088   0.79744
 Alpha virt. eigenvalues --    0.82450   0.84420   0.90611   0.91383   0.94825
 Alpha virt. eigenvalues --    0.96638   0.99960   1.01699   1.05778   1.08321
 Alpha virt. eigenvalues --    1.10673   1.12862   1.21576   1.26560   1.32936
 Alpha virt. eigenvalues --    1.34894   1.42419   1.44412   1.49704   1.57239
 Alpha virt. eigenvalues --    1.60166   1.61164   1.79394   1.86788   1.90190
 Alpha virt. eigenvalues --    1.91289   1.93677   1.95174   1.96389   2.01358
 Alpha virt. eigenvalues --    2.03103   2.12850   2.28967   2.39246   2.46184
 Alpha virt. eigenvalues --    2.49725   2.59868   2.71341   2.90369   3.05495
 Alpha virt. eigenvalues --    3.35637   3.55795   3.60057   3.78793   3.82023
 Alpha virt. eigenvalues --    3.86945
          Condensed to atoms (all electrons):
              1          2          3          4          5          6
     1  O    8.105837   0.254220   0.010679  -0.045152   0.000058  -0.000406
     2  H    0.254220   0.390813  -0.012036   0.006878  -0.000005   0.000032
     3  O    0.010679  -0.012036   8.065146   0.005147  -0.000728   0.001084
     4  O   -0.045152   0.006878   0.005147   8.382588  -0.002798  -0.006143
     5  O    0.000058  -0.000005  -0.000728  -0.002798   8.589329   0.000144
     6  P   -0.000406   0.000032   0.001084  -0.006143   0.000144  14.772381
     7  Ca   0.038893  -0.001978   0.042175   0.064481   0.128004   0.192697
     8  Ca   0.002509   0.002023  -0.007017   0.077861   0.119821   0.205327
              7          8
     1  O    0.038893   0.002509
     2  H   -0.001978   0.002023
     3  O    0.042175  -0.007017
     4  O    0.064481   0.077861
     5  O    0.128004   0.119821
     6  P    0.192697   0.205327
     7  Ca  18.722222  -0.032648
     8  Ca  -0.032648  18.885439
 Mulliken atomic charges:
              1
     1  O   -0.366637
     2  H    0.360051
     3  O   -0.104450
     4  O   -0.482862
     5  O   -0.833826
     6  P   -0.165115
     7  Ca   0.846154
     8  Ca   0.746685
 Sum of Mulliken charges=   0.00000
 Atomic charges with hydrogens summed into heavy atoms:
              1
     1  O   -0.006586
     2  H    0.000000
     3  O   -0.104450
     4  O   -0.482862
     5  O   -0.833826
     6  P   -0.165115
     7  Ca   0.846154
     8  Ca   0.746685
 Sum of Mulliken charges=   0.00000
 Electronic spatial extent (au):  <R**2>=  1467.3256
 Charge=     0.0000 electrons
 Dipole moment (field-independent basis, Debye):
    X=    -5.8936    Y=     2.1251    Z=    -0.0052  Tot=     6.2650
 Quadrupole moment (field-independent basis, Debye-Ang):
   XX=   -76.1862   YY=   -63.4436   ZZ=   -74.0340
   XY=    15.5135   XZ=     4.7151   YZ=     1.2692
 Traceless Quadrupole moment (field-independent basis, Debye-Ang):
   XX=    -4.9649   YY=     7.7777   ZZ=    -2.8128
   XY=    15.5135   XZ=     4.7151   YZ=     1.2692
 Octapole moment (field-independent basis, Debye-Ang**2):
  XXX=   -99.0894  YYY=    15.0291  ZZZ=    16.1274  XYY=   -21.8424
  XXY=    15.5354  XXZ=    -6.1129  XZZ=   -22.6942  YZZ=     3.3872
  YYZ=    16.2245  XYZ=     4.2961
 Hexadecapole moment (field-independent basis, Debye-Ang**3):
 XXXX= -1269.5163 YYYY=  -766.0342 ZZZZ=  -216.1635 XXXY=   -15.5815
 XXXZ=    80.6406 YYYX=    37.3216 YYYZ=    -3.7446 ZZZX=    13.7669
 ZZZY=     0.0945 XXYY=  -339.3925 XXZZ=  -239.3171 YYZZ=  -162.3559
 XXYZ=     3.7504 YYXZ=    10.1646 ZZXY=     0.9304
 N-N= 6.170996756225D+02 E-N=-5.967777310435D+03  KE= 1.992120497232D+03
 Merz-Kollman atomic radii used.
 Read replacement radii for each type of atom:
 Rad(20) =   1.188000000000D+00
 Atom Element Radius
    1     8    1.40
    2     1    1.20
    3     8    1.40
    4     8    1.40
    5     8    1.40
    6    15    1.80
    7    20    1.19
    8    20    1.19

 **********************************************************************

            Electrostatic Properties Using The SCF Density

 **********************************************************************

       Atomic Center    1 is at  -2.946120 -0.187419  0.017182
       Atomic Center    2 is at  -3.359710  0.357960 -0.677305
       Atomic Center    3 is at  -1.926790  0.797481  0.546247
       Atomic Center    4 is at  -1.073840  1.107099 -0.553665
       Atomic Center    5 is at   1.044261 -0.426104  0.993437
       Atomic Center    6 is at   2.094501 -1.116799 -0.216576
       Atomic Center    7 is at  -0.705234 -1.259101 -0.139121
       Atomic Center    8 is at   1.263339  1.562380 -0.065863
     763 points will be used for fitting atomic charges
 Fitting point charges to eletrostatic potential
 Charges from ESP fit, RMS=   0.01633 RRMS=   0.31389:
 Charge=   0.00000 Dipole=    -5.5276     3.6891    -1.2581 Tot=     6.7636
              1
     1  O   -0.469153
     2  H    0.379440
     3  O    0.001164
     4  O   -0.700278
     5  O   -0.373122
     6  P   -0.973433
     7  Ca   1.156751
     8  Ca   0.978631
 -----------------------------------------------------------------

              Electrostatic Properties (Atomic Units)

 -----------------------------------------------------------------
    Center     Electric         -------- Electric Field --------
               Potential          X             Y             Z
 -----------------------------------------------------------------
    1 Atom    -22.218108
    2 Atom     -0.938499
    3 Atom    -22.190563
    4 Atom    -22.296983
    5 Atom    -22.393286
    6 Atom    -54.184157
    7 Atom    -80.178378
    8 Atom    -80.175899
 -----------------------------------------------------------------
 1\1\GINC-N025\SP\RB3LYP\6-31G(d,p)\Ca2H1O4P1\TIMN\04-May-2015\0\\# b3l
 yp/6-31G(d,p) pop=(ReadRadii,MK)\\Ca2HPO4_61\\0,1\O,0,-2.94612,-0.1874
 17,0.017182\H,0,-3.35971,0.357963,-0.677305\O,0,-1.92679,0.797483,0.54
 6247\O,0,-1.07384,1.1071,-0.553665\O,0,1.04426,-0.426104,0.993437\P,0,
 2.0945,-1.1168,-0.216576\Ca,0,-0.705235,-1.2591,-0.139121\Ca,0,1.26334
 ,1.56238,-0.065863\\Version=EM64T-G03RevE.01\State=1-A\HF=-1997.861679
 3\RMSD=2.400e-05\Thermal=0.\Dipole=-2.3187243,0.8360793,-0.0020416\PG=
 C01 [X(Ca2H1O4P1)]\\@


 ARTHROPOD AXIOM: A COMPUTER SYSTEM IS LIKE A SPIDER'S WEB.
 YOU CANNOT PULL ON ONE END WITHOUT MAKING THE OTHER END MOVE.
     -- GREG WETTSTEIN
 Job cpu time:  0 days  0 hours  0 minutes 24.1 seconds.
 File lengths (MBytes):  RWF=     21 Int=      0 D2E=      0 Chk=     10 Scr=      1
 Normal termination of Gaussian 03 at Mon May  4 20:08:43 2015.
