 Entering Gaussian System, Link 0=/home/timn/tmp/g03.e01/g03
 Input=Ca2PO3_21.xyz.gjf
 Output=Ca2PO3_21.xyz.out
 Initial command:
 /home/timn/tmp/g03.e01/l1.exe /home/timn/tmp/g03.e01/Gau-12669.inp -scrdir=/home/timn/tmp/g03.e01/
 Default is to use a total of   2 processors:
                                2 via shared-memory
                                1 via Linda
 Entering Link 1 = /home/timn/tmp/g03.e01/l1.exe PID=     12670.
  
 Copyright (c) 1988,1990,1992,1993,1995,1998,2003,2004,2007, Gaussian, Inc.
                  All Rights Reserved.
  
 This is the Gaussian(R) 03 program.  It is based on the
 the Gaussian(R) 98 system (copyright 1998, Gaussian, Inc.),
 the Gaussian(R) 94 system (copyright 1995, Gaussian, Inc.),
 the Gaussian 92(TM) system (copyright 1992, Gaussian, Inc.),
 the Gaussian 90(TM) system (copyright 1990, Gaussian, Inc.),
 the Gaussian 88(TM) system (copyright 1988, Gaussian, Inc.),
 the Gaussian 86(TM) system (copyright 1986, Carnegie Mellon
 University), and the Gaussian 82(TM) system (copyright 1983,
 Carnegie Mellon University). Gaussian is a federally registered
 trademark of Gaussian, Inc.
  
 This software contains proprietary and confidential information,
 including trade secrets, belonging to Gaussian, Inc.
  
 This software is provided under written license and may be
 used, copied, transmitted, or stored only in accord with that
 written license.
  
 The following legend is applicable only to US Government
 contracts under FAR:
  
                    RESTRICTED RIGHTS LEGEND
  
 Use, reproduction and disclosure by the US Government is
 subject to restrictions as set forth in subparagraphs (a)
 and (c) of the Commercial Computer Software - Restricted
 Rights clause in FAR 52.227-19.
  
 Gaussian, Inc.
 340 Quinnipiac St., Bldg. 40, Wallingford CT 06492
  
  
 ---------------------------------------------------------------
 Warning -- This program may not be used in any manner that
 competes with the business of Gaussian, Inc. or will provide
 assistance to any competitor of Gaussian, Inc.  The licensee
 of this program is prohibited from giving any competitor of
 Gaussian, Inc. access to this program.  By using this program,
 the user acknowledges that Gaussian, Inc. is engaged in the
 business of creating and licensing software in the field of
 computational chemistry and represents and warrants to the
 licensee that it is not a competitor of Gaussian, Inc. and that
 it will not use this program in any manner prohibited above.
 ---------------------------------------------------------------
  

 Cite this work as:
 Gaussian 03, Revision E.01,
 M. J. Frisch, G. W. Trucks, H. B. Schlegel, G. E. Scuseria, 
 M. A. Robb, J. R. Cheeseman, J. A. Montgomery, Jr., T. Vreven, 
 K. N. Kudin, J. C. Burant, J. M. Millam, S. S. Iyengar, J. Tomasi, 
 V. Barone, B. Mennucci, M. Cossi, G. Scalmani, N. Rega, 
 G. A. Petersson, H. Nakatsuji, M. Hada, M. Ehara, K. Toyota, 
 R. Fukuda, J. Hasegawa, M. Ishida, T. Nakajima, Y. Honda, O. Kitao, 
 H. Nakai, M. Klene, X. Li, J. E. Knox, H. P. Hratchian, J. B. Cross, 
 V. Bakken, C. Adamo, J. Jaramillo, R. Gomperts, R. E. Stratmann, 
 O. Yazyev, A. J. Austin, R. Cammi, C. Pomelli, J. W. Ochterski, 
 P. Y. Ayala, K. Morokuma, G. A. Voth, P. Salvador, J. J. Dannenberg, 
 V. G. Zakrzewski, S. Dapprich, A. D. Daniels, M. C. Strain, 
 O. Farkas, D. K. Malick, A. D. Rabuck, K. Raghavachari, 
 J. B. Foresman, J. V. Ortiz, Q. Cui, A. G. Baboul, S. Clifford, 
 J. Cioslowski, B. B. Stefanov, G. Liu, A. Liashenko, P. Piskorz, 
 I. Komaromi, R. L. Martin, D. J. Fox, T. Keith, M. A. Al-Laham, 
 C. Y. Peng, A. Nanayakkara, M. Challacombe, P. M. W. Gill, 
 B. Johnson, W. Chen, M. W. Wong, C. Gonzalez, and J. A. Pople, 
 Gaussian, Inc., Wallingford CT, 2004.
 
 ******************************************
 Gaussian 03:  EM64T-G03RevE.01 11-Sep-2007
                 4-May-2015 
 ******************************************
 %nproc=2
 Will use up to    2 processors via shared memory.
 Default route:  MP2=Direct MaxDisk=2000MB
 -------------------------------------
 # b3lyp/6-31G(d,p) pop=(ReadRadii,MK)
 -------------------------------------
 1/38=1/1;
 2/17=6,18=5,40=1/2;
 3/5=1,6=6,7=101,11=2,16=1,25=1,30=1,74=-5/1,2,3;
 4//1;
 5/5=2,32=1,38=5/2;
 6/7=2,8=2,9=2,10=2,15=8,20=101,28=1/1,2;
 99/5=1,9=1/99;
 ---------
 Ca2PO3_21
 ---------
 Symbolic Z-matrix:
 Charge =  0 Multiplicity = 1
 O                    -0.26723  -0.67091   1.07531 
 O                     1.60744   1.25284  -0.40242 
 O                    -1.91615   0.1062   -0.70622 
 P                    -1.21317  -1.21161  -0.16723 
 Ca                    1.68648  -0.84877  -0.0998 
 Ca                   -0.43387   1.57943   0.2121 
 H                    -2.24706  -1.94423   0.52894 
 
                          Input orientation:                          
 ---------------------------------------------------------------------
 Center     Atomic     Atomic              Coordinates (Angstroms)
 Number     Number      Type              X           Y           Z
 ---------------------------------------------------------------------
    1          8             0       -0.267233   -0.670910    1.075310
    2          8             0        1.607440    1.252840   -0.402424
    3          8             0       -1.916150    0.106204   -0.706218
    4         15             0       -1.213170   -1.211610   -0.167229
    5         20             0        1.686480   -0.848771   -0.099795
    6         20             0       -0.433873    1.579430    0.212101
    7          1             0       -2.247060   -1.944230    0.528940
 ---------------------------------------------------------------------
                    Distance matrix (angstroms):
                    1          2          3          4          5
     1  O    0.000000
     2  O    3.065764   0.000000
     3  O    2.548858   3.717896   0.000000
     4  P    1.652591   3.752955   1.587868   0.000000
     5  Ca   2.286810   2.124759   3.776065   2.923041   0.000000
     6  Ca   2.415974   2.156678   2.282729   2.922516   3.238724
     7  H    2.416522   5.093708   2.416484   1.445791   4.131353
                    6          7
     6  Ca   0.000000
     7  H    3.975451   0.000000
 Stoichiometry    Ca2HO3P
 Framework group  C1[X(Ca2HO3P)]
 Deg. of freedom    15
 Full point group                 C1
 Largest Abelian subgroup         C1      NOp   1
 Largest concise Abelian subgroup C1      NOp   1
                         Standard orientation:                         
 ---------------------------------------------------------------------
 Center     Atomic     Atomic              Coordinates (Angstroms)
 Number     Number      Type              X           Y           Z
 ---------------------------------------------------------------------
    1          8             0       -0.267237   -0.670907    1.075310
    2          8             0        1.607448    1.252832   -0.402424
    3          8             0       -1.916149    0.106218   -0.706218
    4         15             0       -1.213177   -1.211601   -0.167229
    5         20             0        1.686475   -0.848780   -0.099795
    6         20             0       -0.433863    1.579434    0.212101
    7          1             0       -2.247072   -1.944214    0.528940
 ---------------------------------------------------------------------
 Rotational constants (GHZ):      2.0839527      1.6538640      1.0456607
 Standard basis: 6-31G(d,p) (6D, 7F)
 There are   115 symmetry adapted basis functions of A   symmetry.
 Integral buffers will be    131072 words long.
 Raffenetti 2 integral format.
 Two-electron integral symmetry is turned on.
   115 basis functions,   295 primitive gaussians,   115 cartesian basis functions
    40 alpha electrons       40 beta electrons
       nuclear repulsion energy       528.5078475580 Hartrees.
 NAtoms=    7 NActive=    7 NUniq=    7 SFac= 7.50D-01 NAtFMM=   80 NAOKFM=F Big=F
 One-electron integrals computed using PRISM.
 NBasis=   115 RedAO= T  NBF=   115
 NBsUse=   115 1.00D-06 NBFU=   115
 Harris functional with IExCor=  402 diagonalized for initial guess.
 ExpMin= 2.60D-02 ExpMax= 3.53D+04 ExpMxC= 5.30D+03 IAcc=3 IRadAn=         5 AccDes= 0.00D+00
 HarFok:  IExCor= 402 AccDes= 0.00D+00 IRadAn=         5 IDoV=1
 ScaDFX=  1.000000  1.000000  1.000000  1.000000
 Initial guess orbital symmetries:
       Occupied  (A) (A) (A) (A) (A) (A) (A) (A) (A) (A) (A) (A)
                 (A) (A) (A) (A) (A) (A) (A) (A) (A) (A) (A) (A)
                 (A) (A) (A) (A) (A) (A) (A) (A) (A) (A) (A) (A)
                 (A) (A) (A) (A)
       Virtual   (A) (A) (A) (A) (A) (A) (A) (A) (A) (A) (A) (A)
                 (A) (A) (A) (A) (A) (A) (A) (A) (A) (A) (A) (A)
                 (A) (A) (A) (A) (A) (A) (A) (A) (A) (A) (A) (A)
                 (A) (A) (A) (A) (A) (A) (A) (A) (A) (A) (A) (A)
                 (A) (A) (A) (A) (A) (A) (A) (A) (A) (A) (A) (A)
                 (A) (A) (A) (A) (A) (A) (A) (A) (A) (A) (A) (A)
                 (A) (A) (A)
 The electronic state of the initial guess is 1-A.
 Requested convergence on RMS density matrix=1.00D-04 within 128 cycles.
 Requested convergence on MAX density matrix=1.00D-02.
 Requested convergence on             energy=1.00D-02.
 No special actions if energy rises.
 Keep R1 integrals in memory in canonical form, NReq=    24133811.
 SCF Done:  E(RB+HF-LYP) =  -1922.85817153     A.U. after   10 cycles
             Convg  =    0.2144D-04             -V/T =  2.0027
             S**2   =   0.0000

 **********************************************************************

            Population analysis using the SCF density.

 **********************************************************************

 Orbital symmetries:
       Occupied  (A) (A) (A) (A) (A) (A) (A) (A) (A) (A) (A) (A)
                 (A) (A) (A) (A) (A) (A) (A) (A) (A) (A) (A) (A)
                 (A) (A) (A) (A) (A) (A) (A) (A) (A) (A) (A) (A)
                 (A) (A) (A) (A)
       Virtual   (A) (A) (A) (A) (A) (A) (A) (A) (A) (A) (A) (A)
                 (A) (A) (A) (A) (A) (A) (A) (A) (A) (A) (A) (A)
                 (A) (A) (A) (A) (A) (A) (A) (A) (A) (A) (A) (A)
                 (A) (A) (A) (A) (A) (A) (A) (A) (A) (A) (A) (A)
                 (A) (A) (A) (A) (A) (A) (A) (A) (A) (A) (A) (A)
                 (A) (A) (A) (A) (A) (A) (A) (A) (A) (A) (A) (A)
                 (A) (A) (A)
 The electronic state is 1-A.
 Alpha  occ. eigenvalues -- -145.35079-145.32645 -77.09363 -19.07294 -19.05829
 Alpha  occ. eigenvalues --  -18.99068 -15.42161 -15.39794 -12.55378 -12.55306
 Alpha  occ. eigenvalues --  -12.55232 -12.52989 -12.52981 -12.52831  -6.55191
 Alpha  occ. eigenvalues --   -4.71580  -4.71450  -4.71058  -1.79659  -1.77431
 Alpha  occ. eigenvalues --   -1.07632  -1.07354  -1.06709  -1.05422  -1.05145
 Alpha  occ. eigenvalues --   -1.04424  -0.91620  -0.86430  -0.73031  -0.51269
 Alpha  occ. eigenvalues --   -0.37390  -0.34646  -0.33157  -0.26910  -0.25111
 Alpha  occ. eigenvalues --   -0.23530  -0.18860  -0.17142  -0.16894  -0.16218
 Alpha virt. eigenvalues --   -0.07783  -0.05657  -0.00363   0.00910   0.01147
 Alpha virt. eigenvalues --    0.02743   0.03019   0.05171   0.06896   0.08657
 Alpha virt. eigenvalues --    0.09287   0.10995   0.13996   0.14952   0.15937
 Alpha virt. eigenvalues --    0.16840   0.18173   0.20526   0.22354   0.24064
 Alpha virt. eigenvalues --    0.25680   0.27168   0.29522   0.32196   0.32781
 Alpha virt. eigenvalues --    0.36315   0.38768   0.41066   0.42661   0.44799
 Alpha virt. eigenvalues --    0.45623   0.46184   0.50608   0.51115   0.64152
 Alpha virt. eigenvalues --    0.73144   0.76683   0.79352   0.88727   0.95680
 Alpha virt. eigenvalues --    1.02494   1.08998   1.11229   1.13617   1.15286
 Alpha virt. eigenvalues --    1.18529   1.22627   1.23645   1.26956   1.29018
 Alpha virt. eigenvalues --    1.42689   1.51331   1.58499   1.86678   1.88199
 Alpha virt. eigenvalues --    1.89246   1.93639   1.95145   1.97620   1.98158
 Alpha virt. eigenvalues --    1.99897   2.00290   2.00744   2.05058   2.08495
 Alpha virt. eigenvalues --    2.16977   2.23580   2.25883   2.56901   2.74618
 Alpha virt. eigenvalues --    2.80879   3.60768   3.78174   3.81652   3.91114
          Condensed to atoms (all electrons):
              1          2          3          4          5          6
     1  O    8.538797  -0.006790  -0.040964   0.108580   0.110262   0.119154
     2  O   -0.006790   8.428694  -0.000395   0.000411   0.248538   0.224629
     3  O   -0.040964  -0.000395   8.388092   0.278816  -0.020421   0.169546
     4  P    0.108580   0.000411   0.278816  13.705185   0.149695  -0.029333
     5  Ca   0.110262   0.248538  -0.020421   0.149695  18.813793  -0.189976
     6  Ca   0.119154   0.224629   0.169546  -0.029333  -0.189976  18.682018
     7  H   -0.019747   0.000005  -0.034133   0.147528  -0.025140   0.002911
              7
     1  O   -0.019747
     2  O    0.000005
     3  O   -0.034133
     4  P    0.147528
     5  Ca  -0.025140
     6  Ca   0.002911
     7  H    1.057074
 Mulliken atomic charges:
              1
     1  O   -0.809291
     2  O   -0.895091
     3  O   -0.740540
     4  P    0.639120
     5  Ca   0.913250
     6  Ca   1.021051
     7  H   -0.128498
 Sum of Mulliken charges=   0.00000
 Atomic charges with hydrogens summed into heavy atoms:
              1
     1  O   -0.809291
     2  O   -0.895091
     3  O   -0.740540
     4  P    0.510622
     5  Ca   0.913250
     6  Ca   1.021051
     7  H    0.000000
 Sum of Mulliken charges=   0.00000
 Electronic spatial extent (au):  <R**2>=  1061.8667
 Charge=     0.0000 electrons
 Dipole moment (field-independent basis, Debye):
    X=     3.4599    Y=     0.2449    Z=     2.3078  Tot=     4.1662
 Quadrupole moment (field-independent basis, Debye-Ang):
   XX=   -61.6046   YY=   -47.8529   ZZ=   -64.8034
   XY=   -23.6177   XZ=    -1.2963   YZ=     6.6121
 Traceless Quadrupole moment (field-independent basis, Debye-Ang):
   XX=    -3.5176   YY=    10.2341   ZZ=    -6.7164
   XY=   -23.6177   XZ=    -1.2963   YZ=     6.6121
 Octapole moment (field-independent basis, Debye-Ang**2):
  XXX=    37.4018  YYY=    36.4470  ZZZ=     2.9147  XYY=   -12.9201
  XXY=   -33.9897  XXZ=    13.2870  XZZ=     5.6823  YZZ=     7.7868
  YYZ=     9.2131  XYZ=     2.3500
 Hexadecapole moment (field-independent basis, Debye-Ang**3):
 XXXX=  -712.9526 YYYY=  -508.6194 ZZZZ=  -181.2454 XXXY=   -97.0396
 XXXZ=    -4.6639 YYYX=   -83.6499 YYYZ=     8.3130 ZZZX=     0.6311
 ZZZY=     7.1488 XXYY=  -203.8997 XXZZ=  -150.9257 YYZZ=  -122.5768
 XXYZ=    13.5787 YYXZ=     3.8332 ZZXY=   -17.5190
 N-N= 5.285078475580D+02 E-N=-5.616284450402D+03  KE= 1.917681447777D+03
 Merz-Kollman atomic radii used.
 Read replacement radii for each type of atom:
 Rad(20) =   1.188000000000D+00
 Atom Element Radius
    1     8    1.40
    2     8    1.40
    3     8    1.40
    4    15    1.80
    5    20    1.19
    6    20    1.19
    7     1    1.20

 **********************************************************************

            Electrostatic Properties Using The SCF Density

 **********************************************************************

       Atomic Center    1 is at  -0.267237 -0.670907  1.075310
       Atomic Center    2 is at   1.607448  1.252832 -0.402424
       Atomic Center    3 is at  -1.916149  0.106218 -0.706218
       Atomic Center    4 is at  -1.213177 -1.211601 -0.167229
       Atomic Center    5 is at   1.686475 -0.848780 -0.099795
       Atomic Center    6 is at  -0.433863  1.579434  0.212101
       Atomic Center    7 is at  -2.247072 -1.944214  0.528940
     661 points will be used for fitting atomic charges
 Fitting point charges to eletrostatic potential
 Charges from ESP fit, RMS=   0.00864 RRMS=   0.13962:
 Charge=   0.00000 Dipole=     4.0234     0.3717     2.3985 Tot=     4.6988
              1
     1  O   -0.756735
     2  O   -1.343144
     3  O   -0.546169
     4  P   -0.485084
     5  Ca   1.391996
     6  Ca   1.499997
     7  H    0.239139
 -----------------------------------------------------------------

              Electrostatic Properties (Atomic Units)

 -----------------------------------------------------------------
    Center     Electric         -------- Electric Field --------
               Potential          X             Y             Z
 -----------------------------------------------------------------
    1 Atom    -22.391138
    2 Atom    -22.471746
    3 Atom    -22.405228
    4 Atom    -54.119270
    5 Atom    -80.192536
    6 Atom    -80.215974
    7 Atom     -1.164579
 -----------------------------------------------------------------
 1\1\GINC-N029\SP\RB3LYP\6-31G(d,p)\Ca2H1O3P1\TIMN\04-May-2015\0\\# b3l
 yp/6-31G(d,p) pop=(ReadRadii,MK)\\Ca2PO3_21\\0,1\O,0,-0.267233,-0.6709
 1,1.07531\O,0,1.60744,1.25284,-0.402424\O,0,-1.91615,0.106204,-0.70621
 8\P,0,-1.21317,-1.21161,-0.167229\Ca,0,1.68648,-0.848771,-0.099795\Ca,
 0,-0.433873,1.57943,0.212101\H,0,-2.24706,-1.94423,0.52894\\Version=EM
 64T-G03RevE.01\State=1-A\HF=-1922.8581715\RMSD=2.144e-05\Thermal=0.\Di
 pole=1.3612479,0.0963751,0.9079445\PG=C01 [X(Ca2H1O3P1)]\\@


 I KNOW YOU BELIEVE YOU UNDERSTAND WHAT YOU THINK I SAID,
 BUT I AM NOT SURE YOU REALIZE THAT WHAT YOU HEARD IS NOT WHAT I MEANT.
 Job cpu time:  0 days  0 hours  0 minutes 16.7 seconds.
 File lengths (MBytes):  RWF=     18 Int=      0 D2E=      0 Chk=     10 Scr=      1
 Normal termination of Gaussian 03 at Mon May  4 20:09:01 2015.
