 Entering Gaussian System, Link 0=/home/timn/tmp/g03.e01/g03
 Input=Ca2PO3_1.xyz.gjf
 Output=Ca2PO3_1.xyz.out
 Initial command:
 /home/timn/tmp/g03.e01/l1.exe /home/timn/tmp/g03.e01/Gau-11709.inp -scrdir=/home/timn/tmp/g03.e01/
 Default is to use a total of   2 processors:
                                2 via shared-memory
                                1 via Linda
 Entering Link 1 = /home/timn/tmp/g03.e01/l1.exe PID=     11710.
  
 Copyright (c) 1988,1990,1992,1993,1995,1998,2003,2004,2007, Gaussian, Inc.
                  All Rights Reserved.
  
 This is the Gaussian(R) 03 program.  It is based on the
 the Gaussian(R) 98 system (copyright 1998, Gaussian, Inc.),
 the Gaussian(R) 94 system (copyright 1995, Gaussian, Inc.),
 the Gaussian 92(TM) system (copyright 1992, Gaussian, Inc.),
 the Gaussian 90(TM) system (copyright 1990, Gaussian, Inc.),
 the Gaussian 88(TM) system (copyright 1988, Gaussian, Inc.),
 the Gaussian 86(TM) system (copyright 1986, Carnegie Mellon
 University), and the Gaussian 82(TM) system (copyright 1983,
 Carnegie Mellon University). Gaussian is a federally registered
 trademark of Gaussian, Inc.
  
 This software contains proprietary and confidential information,
 including trade secrets, belonging to Gaussian, Inc.
  
 This software is provided under written license and may be
 used, copied, transmitted, or stored only in accord with that
 written license.
  
 The following legend is applicable only to US Government
 contracts under FAR:
  
                    RESTRICTED RIGHTS LEGEND
  
 Use, reproduction and disclosure by the US Government is
 subject to restrictions as set forth in subparagraphs (a)
 and (c) of the Commercial Computer Software - Restricted
 Rights clause in FAR 52.227-19.
  
 Gaussian, Inc.
 340 Quinnipiac St., Bldg. 40, Wallingford CT 06492
  
  
 ---------------------------------------------------------------
 Warning -- This program may not be used in any manner that
 competes with the business of Gaussian, Inc. or will provide
 assistance to any competitor of Gaussian, Inc.  The licensee
 of this program is prohibited from giving any competitor of
 Gaussian, Inc. access to this program.  By using this program,
 the user acknowledges that Gaussian, Inc. is engaged in the
 business of creating and licensing software in the field of
 computational chemistry and represents and warrants to the
 licensee that it is not a competitor of Gaussian, Inc. and that
 it will not use this program in any manner prohibited above.
 ---------------------------------------------------------------
  

 Cite this work as:
 Gaussian 03, Revision E.01,
 M. J. Frisch, G. W. Trucks, H. B. Schlegel, G. E. Scuseria, 
 M. A. Robb, J. R. Cheeseman, J. A. Montgomery, Jr., T. Vreven, 
 K. N. Kudin, J. C. Burant, J. M. Millam, S. S. Iyengar, J. Tomasi, 
 V. Barone, B. Mennucci, M. Cossi, G. Scalmani, N. Rega, 
 G. A. Petersson, H. Nakatsuji, M. Hada, M. Ehara, K. Toyota, 
 R. Fukuda, J. Hasegawa, M. Ishida, T. Nakajima, Y. Honda, O. Kitao, 
 H. Nakai, M. Klene, X. Li, J. E. Knox, H. P. Hratchian, J. B. Cross, 
 V. Bakken, C. Adamo, J. Jaramillo, R. Gomperts, R. E. Stratmann, 
 O. Yazyev, A. J. Austin, R. Cammi, C. Pomelli, J. W. Ochterski, 
 P. Y. Ayala, K. Morokuma, G. A. Voth, P. Salvador, J. J. Dannenberg, 
 V. G. Zakrzewski, S. Dapprich, A. D. Daniels, M. C. Strain, 
 O. Farkas, D. K. Malick, A. D. Rabuck, K. Raghavachari, 
 J. B. Foresman, J. V. Ortiz, Q. Cui, A. G. Baboul, S. Clifford, 
 J. Cioslowski, B. B. Stefanov, G. Liu, A. Liashenko, P. Piskorz, 
 I. Komaromi, R. L. Martin, D. J. Fox, T. Keith, M. A. Al-Laham, 
 C. Y. Peng, A. Nanayakkara, M. Challacombe, P. M. W. Gill, 
 B. Johnson, W. Chen, M. W. Wong, C. Gonzalez, and J. A. Pople, 
 Gaussian, Inc., Wallingford CT, 2004.
 
 ******************************************
 Gaussian 03:  EM64T-G03RevE.01 11-Sep-2007
                 4-May-2015 
 ******************************************
 %nproc=2
 Will use up to    2 processors via shared memory.
 Default route:  MP2=Direct MaxDisk=2000MB
 -------------------------------------
 # b3lyp/6-31G(d,p) pop=(ReadRadii,MK)
 -------------------------------------
 1/38=1/1;
 2/17=6,18=5,40=1/2;
 3/5=1,6=6,7=101,11=2,16=1,25=1,30=1,74=-5/1,2,3;
 4//1;
 5/5=2,32=1,38=5/2;
 6/7=2,8=2,9=2,10=2,15=8,20=101,28=1/1,2;
 99/5=1,9=1/99;
 --------
 Ca2PO3_1
 --------
 Symbolic Z-matrix:
 Charge =  0 Multiplicity = 1
 O                    -1.8837    0.19347  -0.72536 
 O                    -0.32049  -0.663     1.05758 
 O                     1.70022   1.18889  -0.36956 
 P                    -1.44852  -1.16466  -0.0378 
 Ca                   -0.33672   1.59129   0.18927 
 Ca                    1.64051  -0.91746  -0.09359 
 H                    -0.31634  -1.76148  -1.0479 
 
                          Input orientation:                          
 ---------------------------------------------------------------------
 Center     Atomic     Atomic              Coordinates (Angstroms)
 Number     Number      Type              X           Y           Z
 ---------------------------------------------------------------------
    1          8             0       -1.883700    0.193472   -0.725355
    2          8             0       -0.320493   -0.662996    1.057580
    3          8             0        1.700220    1.188890   -0.369558
    4         15             0       -1.448520   -1.164660   -0.037796
    5         20             0       -0.336715    1.591290    0.189266
    6         20             0        1.640510   -0.917460   -0.093590
    7          1             0       -0.316338   -1.761480   -1.047900
 ---------------------------------------------------------------------
                    Distance matrix (angstroms):
                    1          2          3          4          5
     1  O    0.000000
     2  O    2.521113   0.000000
     3  O    3.736567   3.090224   0.000000
     4  P    1.583238   1.650442   3.945102   0.000000
     5  Ca   2.276750   2.415789   2.150189   2.980424   0.000000
     6  Ca   3.748780   2.288116   2.125190   3.099408   3.206751
     7  H    2.526360   2.374812   3.637491   1.630442   3.573802
                    6          7
     6  Ca   0.000000
     7  H    2.335023   0.000000
 Stoichiometry    Ca2HO3P
 Framework group  C1[X(Ca2HO3P)]
 Deg. of freedom    15
 Full point group                 C1
 Largest Abelian subgroup         C1      NOp   1
 Largest concise Abelian subgroup C1      NOp   1
                         Standard orientation:                         
 ---------------------------------------------------------------------
 Center     Atomic     Atomic              Coordinates (Angstroms)
 Number     Number      Type              X           Y           Z
 ---------------------------------------------------------------------
    1          8             0       -1.883701    0.193458   -0.725355
    2          8             0       -0.320489   -0.663000    1.057580
    3          8             0        1.700213    1.188899   -0.369558
    4         15             0       -1.448512   -1.164671   -0.037796
    5         20             0       -0.336725    1.591286    0.189266
    6         20             0        1.640516   -0.917452   -0.093590
    7          1             0       -0.316327   -1.761484   -1.047900
 ---------------------------------------------------------------------
 Rotational constants (GHZ):      2.0917594      1.6135181      1.0271416
 Standard basis: 6-31G(d,p) (6D, 7F)
 There are   115 symmetry adapted basis functions of A   symmetry.
 Integral buffers will be    131072 words long.
 Raffenetti 2 integral format.
 Two-electron integral symmetry is turned on.
   115 basis functions,   295 primitive gaussians,   115 cartesian basis functions
    40 alpha electrons       40 beta electrons
       nuclear repulsion energy       526.6577345699 Hartrees.
 NAtoms=    7 NActive=    7 NUniq=    7 SFac= 7.50D-01 NAtFMM=   80 NAOKFM=F Big=F
 One-electron integrals computed using PRISM.
 NBasis=   115 RedAO= T  NBF=   115
 NBsUse=   115 1.00D-06 NBFU=   115
 Harris functional with IExCor=  402 diagonalized for initial guess.
 ExpMin= 2.60D-02 ExpMax= 3.53D+04 ExpMxC= 5.30D+03 IAcc=3 IRadAn=         5 AccDes= 0.00D+00
 HarFok:  IExCor= 402 AccDes= 0.00D+00 IRadAn=         5 IDoV=1
 ScaDFX=  1.000000  1.000000  1.000000  1.000000
 Initial guess orbital symmetries:
       Occupied  (A) (A) (A) (A) (A) (A) (A) (A) (A) (A) (A) (A)
                 (A) (A) (A) (A) (A) (A) (A) (A) (A) (A) (A) (A)
                 (A) (A) (A) (A) (A) (A) (A) (A) (A) (A) (A) (A)
                 (A) (A) (A) (A)
       Virtual   (A) (A) (A) (A) (A) (A) (A) (A) (A) (A) (A) (A)
                 (A) (A) (A) (A) (A) (A) (A) (A) (A) (A) (A) (A)
                 (A) (A) (A) (A) (A) (A) (A) (A) (A) (A) (A) (A)
                 (A) (A) (A) (A) (A) (A) (A) (A) (A) (A) (A) (A)
                 (A) (A) (A) (A) (A) (A) (A) (A) (A) (A) (A) (A)
                 (A) (A) (A) (A) (A) (A) (A) (A) (A) (A) (A) (A)
                 (A) (A) (A)
 The electronic state of the initial guess is 1-A.
 Requested convergence on RMS density matrix=1.00D-04 within 128 cycles.
 Requested convergence on MAX density matrix=1.00D-02.
 Requested convergence on             energy=1.00D-02.
 No special actions if energy rises.
 Keep R1 integrals in memory in canonical form, NReq=    24133804.
 SCF Done:  E(RB+HF-LYP) =  -1922.86161151     A.U. after    8 cycles
             Convg  =    0.3679D-04             -V/T =  2.0027
             S**2   =   0.0000

 **********************************************************************

            Population analysis using the SCF density.

 **********************************************************************

 Orbital symmetries:
       Occupied  (A) (A) (A) (A) (A) (A) (A) (A) (A) (A) (A) (A)
                 (A) (A) (A) (A) (A) (A) (A) (A) (A) (A) (A) (A)
                 (A) (A) (A) (A) (A) (A) (A) (A) (A) (A) (A) (A)
                 (A) (A) (A) (A)
       Virtual   (A) (A) (A) (A) (A) (A) (A) (A) (A) (A) (A) (A)
                 (A) (A) (A) (A) (A) (A) (A) (A) (A) (A) (A) (A)
                 (A) (A) (A) (A) (A) (A) (A) (A) (A) (A) (A) (A)
                 (A) (A) (A) (A) (A) (A) (A) (A) (A) (A) (A) (A)
                 (A) (A) (A) (A) (A) (A) (A) (A) (A) (A) (A) (A)
                 (A) (A) (A) (A) (A) (A) (A) (A) (A) (A) (A) (A)
                 (A) (A) (A)
 The electronic state is 1-A.
 Alpha  occ. eigenvalues -- -145.34840-145.32922 -77.09825 -19.07551 -19.06425
 Alpha  occ. eigenvalues --  -18.98990 -15.41933 -15.40069 -12.55145 -12.55084
 Alpha  occ. eigenvalues --  -12.55003 -12.53269 -12.53255 -12.53101  -6.55467
 Alpha  occ. eigenvalues --   -4.71832  -4.71746  -4.71240  -1.79463  -1.77713
 Alpha  occ. eigenvalues --   -1.07483  -1.07166  -1.06564  -1.05636  -1.05435
 Alpha  occ. eigenvalues --   -1.04698  -0.92242  -0.86860  -0.73011  -0.50234
 Alpha  occ. eigenvalues --   -0.37437  -0.35280  -0.32968  -0.26478  -0.25426
 Alpha  occ. eigenvalues --   -0.23762  -0.19003  -0.17590  -0.17150  -0.16517
 Alpha virt. eigenvalues --   -0.07717  -0.05732  -0.00401   0.00975   0.01127
 Alpha virt. eigenvalues --    0.02397   0.03002   0.05153   0.06927   0.08289
 Alpha virt. eigenvalues --    0.09432   0.10968   0.14058   0.15030   0.15865
 Alpha virt. eigenvalues --    0.16826   0.18205   0.19754   0.21831   0.22211
 Alpha virt. eigenvalues --    0.24347   0.28568   0.29371   0.32277   0.32935
 Alpha virt. eigenvalues --    0.36982   0.37432   0.40591   0.41999   0.44030
 Alpha virt. eigenvalues --    0.45373   0.47238   0.50899   0.56290   0.65099
 Alpha virt. eigenvalues --    0.72439   0.75963   0.78937   0.87650   0.96591
 Alpha virt. eigenvalues --    0.99384   1.08412   1.08915   1.10715   1.14630
 Alpha virt. eigenvalues --    1.16628   1.23078   1.24345   1.26515   1.28674
 Alpha virt. eigenvalues --    1.42791   1.50360   1.59527   1.86452   1.87849
 Alpha virt. eigenvalues --    1.88813   1.94116   1.95296   1.97505   1.98653
 Alpha virt. eigenvalues --    1.99688   2.00845   2.02409   2.05029   2.08587
 Alpha virt. eigenvalues --    2.15426   2.19231   2.23490   2.50909   2.61898
 Alpha virt. eigenvalues --    2.77931   3.59672   3.78177   3.80880   3.92775
          Condensed to atoms (all electrons):
              1          2          3          4          5          6
     1  O    8.390992  -0.044788  -0.000369   0.274848   0.162047  -0.006678
     2  O   -0.044788   8.523607  -0.006074   0.158392   0.113260   0.126639
     3  O   -0.000369  -0.006074   8.426730   0.000161   0.225501   0.249637
     4  P    0.274848   0.158392   0.000161  13.810191   0.018337  -0.053449
     5  Ca   0.162047   0.113260   0.225501   0.018337  18.711654  -0.225736
     6  Ca  -0.006678   0.126639   0.249637  -0.053449  -0.225736  18.787775
     7  H   -0.027973  -0.042927  -0.000740   0.017302  -0.029452   0.151842
              7
     1  O   -0.027973
     2  O   -0.042927
     3  O   -0.000740
     4  P    0.017302
     5  Ca  -0.029452
     6  Ca   0.151842
     7  H    1.229494
 Mulliken atomic charges:
              1
     1  O   -0.748079
     2  O   -0.828109
     3  O   -0.894846
     4  P    0.774220
     5  Ca   1.024390
     6  Ca   0.969969
     7  H   -0.297546
 Sum of Mulliken charges=   0.00000
 Atomic charges with hydrogens summed into heavy atoms:
              1
     1  O   -0.748079
     2  O   -0.828109
     3  O   -0.894846
     4  P    0.476674
     5  Ca   1.024390
     6  Ca   0.969969
     7  H    0.000000
 Sum of Mulliken charges=   0.00000
 Electronic spatial extent (au):  <R**2>=  1067.5513
 Charge=     0.0000 electrons
 Dipole moment (field-independent basis, Debye):
    X=     3.7094    Y=     0.7904    Z=     2.4987  Tot=     4.5417
 Quadrupole moment (field-independent basis, Debye-Ang):
   XX=   -64.7948   YY=   -46.9180   ZZ=   -64.2378
   XY=   -25.1323   XZ=    -1.0974   YZ=     6.2924
 Traceless Quadrupole moment (field-independent basis, Debye-Ang):
   XX=    -6.1446   YY=    11.7322   ZZ=    -5.5876
   XY=   -25.1323   XZ=    -1.0974   YZ=     6.2924
 Octapole moment (field-independent basis, Debye-Ang**2):
  XXX=    35.1700  YYY=    41.5236  ZZZ=     4.7843  XYY=    -3.4370
  XXY=   -32.6900  XXZ=    13.8417  XZZ=     5.4795  YZZ=     8.7335
  YYZ=     9.8983  XYZ=     0.4293
 Hexadecapole moment (field-independent basis, Debye-Ang**3):
 XXXX=  -738.8134 YYYY=  -491.2833 ZZZZ=  -176.9667 XXXY=  -113.2079
 XXXZ=    -8.0769 YYYX=   -95.4510 YYYZ=     7.1720 ZZZX=    -0.0730
 ZZZY=     5.4290 XXYY=  -213.6695 XXZZ=  -150.0536 YYZZ=  -119.7997
 XXYZ=    14.1895 YYXZ=     4.4492 ZZXY=   -16.6884
 N-N= 5.266577345699D+02 E-N=-5.612401135237D+03  KE= 1.917656129299D+03
 Merz-Kollman atomic radii used.
 Read replacement radii for each type of atom:
 Rad(20) =   1.188000000000D+00
 Atom Element Radius
    1     8    1.40
    2     8    1.40
    3     8    1.40
    4    15    1.80
    5    20    1.19
    6    20    1.19
    7     1    1.20

 **********************************************************************

            Electrostatic Properties Using The SCF Density

 **********************************************************************

       Atomic Center    1 is at  -1.883701  0.193458 -0.725355
       Atomic Center    2 is at  -0.320489 -0.663000  1.057580
       Atomic Center    3 is at   1.700213  1.188899 -0.369558
       Atomic Center    4 is at  -1.448512 -1.164671 -0.037796
       Atomic Center    5 is at  -0.336725  1.591286  0.189266
       Atomic Center    6 is at   1.640516 -0.917452 -0.093590
       Atomic Center    7 is at  -0.316327 -1.761484 -1.047900
     668 points will be used for fitting atomic charges
 Fitting point charges to eletrostatic potential
 Charges from ESP fit, RMS=   0.00718 RRMS=   0.11367:
 Charge=   0.00000 Dipole=     4.1444     0.7869     2.6275 Tot=     4.9698
              1
     1  O   -0.676138
     2  O   -0.859876
     3  O   -1.373137
     4  P    0.224948
     5  Ca   1.525933
     6  Ca   1.458620
     7  H   -0.300351
 -----------------------------------------------------------------

              Electrostatic Properties (Atomic Units)

 -----------------------------------------------------------------
    Center     Electric         -------- Electric Field --------
               Potential          X             Y             Z
 -----------------------------------------------------------------
    1 Atom    -22.398710
    2 Atom    -22.386945
    3 Atom    -22.466508
    4 Atom    -54.117097
    5 Atom    -80.212816
    6 Atom    -80.194238
    7 Atom     -1.170794
 -----------------------------------------------------------------
 1\1\GINC-N038\SP\RB3LYP\6-31G(d,p)\Ca2H1O3P1\TIMN\04-May-2015\0\\# b3l
 yp/6-31G(d,p) pop=(ReadRadii,MK)\\Ca2PO3_1\\0,1\O,0,-1.8837,0.193472,-
 0.725355\O,0,-0.320493,-0.662996,1.05758\O,0,1.70022,1.18889,-0.369558
 \P,0,-1.44852,-1.16466,-0.037796\Ca,0,-0.336715,1.59129,0.189266\Ca,0,
 1.64051,-0.91746,-0.09359\H,0,-0.316338,-1.76148,-1.0479\\Version=EM64
 T-G03RevE.01\State=1-A\HF=-1922.8616115\RMSD=3.679e-05\Thermal=0.\Dipo
 le=1.4593727,0.3109568,0.9830613\PG=C01 [X(Ca2H1O3P1)]\\@


 When cryptography is outlawed, bayl bhgynjf jvyy unir cevinpl.
 Job cpu time:  0 days  0 hours  0 minutes 14.7 seconds.
 File lengths (MBytes):  RWF=     18 Int=      0 D2E=      0 Chk=     10 Scr=      1
 Normal termination of Gaussian 03 at Mon May  4 20:08:57 2015.
