 Entering Gaussian System, Link 0=/home/timn/tmp/g03.e01/g03
 Input=Ca2PO3_32.xyz.gjf
 Output=Ca2PO3_32.xyz.out
 Initial command:
 /home/timn/tmp/g03.e01/l1.exe /home/timn/tmp/g03.e01/Gau-12715.inp -scrdir=/home/timn/tmp/g03.e01/
 Default is to use a total of   2 processors:
                                2 via shared-memory
                                1 via Linda
 Entering Link 1 = /home/timn/tmp/g03.e01/l1.exe PID=     12716.
  
 Copyright (c) 1988,1990,1992,1993,1995,1998,2003,2004,2007, Gaussian, Inc.
                  All Rights Reserved.
  
 This is the Gaussian(R) 03 program.  It is based on the
 the Gaussian(R) 98 system (copyright 1998, Gaussian, Inc.),
 the Gaussian(R) 94 system (copyright 1995, Gaussian, Inc.),
 the Gaussian 92(TM) system (copyright 1992, Gaussian, Inc.),
 the Gaussian 90(TM) system (copyright 1990, Gaussian, Inc.),
 the Gaussian 88(TM) system (copyright 1988, Gaussian, Inc.),
 the Gaussian 86(TM) system (copyright 1986, Carnegie Mellon
 University), and the Gaussian 82(TM) system (copyright 1983,
 Carnegie Mellon University). Gaussian is a federally registered
 trademark of Gaussian, Inc.
  
 This software contains proprietary and confidential information,
 including trade secrets, belonging to Gaussian, Inc.
  
 This software is provided under written license and may be
 used, copied, transmitted, or stored only in accord with that
 written license.
  
 The following legend is applicable only to US Government
 contracts under FAR:
  
                    RESTRICTED RIGHTS LEGEND
  
 Use, reproduction and disclosure by the US Government is
 subject to restrictions as set forth in subparagraphs (a)
 and (c) of the Commercial Computer Software - Restricted
 Rights clause in FAR 52.227-19.
  
 Gaussian, Inc.
 340 Quinnipiac St., Bldg. 40, Wallingford CT 06492
  
  
 ---------------------------------------------------------------
 Warning -- This program may not be used in any manner that
 competes with the business of Gaussian, Inc. or will provide
 assistance to any competitor of Gaussian, Inc.  The licensee
 of this program is prohibited from giving any competitor of
 Gaussian, Inc. access to this program.  By using this program,
 the user acknowledges that Gaussian, Inc. is engaged in the
 business of creating and licensing software in the field of
 computational chemistry and represents and warrants to the
 licensee that it is not a competitor of Gaussian, Inc. and that
 it will not use this program in any manner prohibited above.
 ---------------------------------------------------------------
  

 Cite this work as:
 Gaussian 03, Revision E.01,
 M. J. Frisch, G. W. Trucks, H. B. Schlegel, G. E. Scuseria, 
 M. A. Robb, J. R. Cheeseman, J. A. Montgomery, Jr., T. Vreven, 
 K. N. Kudin, J. C. Burant, J. M. Millam, S. S. Iyengar, J. Tomasi, 
 V. Barone, B. Mennucci, M. Cossi, G. Scalmani, N. Rega, 
 G. A. Petersson, H. Nakatsuji, M. Hada, M. Ehara, K. Toyota, 
 R. Fukuda, J. Hasegawa, M. Ishida, T. Nakajima, Y. Honda, O. Kitao, 
 H. Nakai, M. Klene, X. Li, J. E. Knox, H. P. Hratchian, J. B. Cross, 
 V. Bakken, C. Adamo, J. Jaramillo, R. Gomperts, R. E. Stratmann, 
 O. Yazyev, A. J. Austin, R. Cammi, C. Pomelli, J. W. Ochterski, 
 P. Y. Ayala, K. Morokuma, G. A. Voth, P. Salvador, J. J. Dannenberg, 
 V. G. Zakrzewski, S. Dapprich, A. D. Daniels, M. C. Strain, 
 O. Farkas, D. K. Malick, A. D. Rabuck, K. Raghavachari, 
 J. B. Foresman, J. V. Ortiz, Q. Cui, A. G. Baboul, S. Clifford, 
 J. Cioslowski, B. B. Stefanov, G. Liu, A. Liashenko, P. Piskorz, 
 I. Komaromi, R. L. Martin, D. J. Fox, T. Keith, M. A. Al-Laham, 
 C. Y. Peng, A. Nanayakkara, M. Challacombe, P. M. W. Gill, 
 B. Johnson, W. Chen, M. W. Wong, C. Gonzalez, and J. A. Pople, 
 Gaussian, Inc., Wallingford CT, 2004.
 
 ******************************************
 Gaussian 03:  EM64T-G03RevE.01 11-Sep-2007
                 4-May-2015 
 ******************************************
 %nproc=2
 Will use up to    2 processors via shared memory.
 Default route:  MP2=Direct MaxDisk=2000MB
 -------------------------------------
 # b3lyp/6-31G(d,p) pop=(ReadRadii,MK)
 -------------------------------------
 1/38=1/1;
 2/17=6,18=5,40=1/2;
 3/5=1,6=6,7=101,11=2,16=1,25=1,30=1,74=-5/1,2,3;
 4//1;
 5/5=2,32=1,38=5/2;
 6/7=2,8=2,9=2,10=2,15=8,20=101,28=1/1,2;
 99/5=1,9=1/99;
 ---------
 Ca2PO3_32
 ---------
 Symbolic Z-matrix:
 Charge =  0 Multiplicity = 1
 O                     1.72407  -0.84112   0.6458 
 O                     0.86407  -1.10657  -0.46668 
 O                     2.84641  -0.01242   0.09675 
 P                    -2.0501    1.24609   0.16281 
 Ca                   -1.48571  -1.41524  -0.03948 
 Ca                    0.68864   1.29674  -0.16541 
 H                     3.21656  -0.64051  -0.55125 
 
                          Input orientation:                          
 ---------------------------------------------------------------------
 Center     Atomic     Atomic              Coordinates (Angstroms)
 Number     Number      Type              X           Y           Z
 ---------------------------------------------------------------------
    1          8             0        1.724070   -0.841118    0.645799
    2          8             0        0.864067   -1.106570   -0.466675
    3          8             0        2.846410   -0.012415    0.096751
    4         15             0       -2.050100    1.246090    0.162805
    5         20             0       -1.485710   -1.415240   -0.039484
    6         20             0        0.688636    1.296740   -0.165407
    7          1             0        3.216560   -0.640511   -0.551245
 ---------------------------------------------------------------------
                    Distance matrix (angstroms):
                    1          2          3          4          5
     1  O    0.000000
     2  O    1.430968   0.000000
     3  O    1.499283   2.333304   0.000000
     4  P    4.339825   3.797845   5.056086   0.000000
     5  Ca   3.331954   2.408157   4.555627   2.728028   0.000000
     6  Ca   2.510103   2.428464   2.537440   2.758797   3.478286
     7  H    1.923716   2.399705   0.975405   5.639755   4.793062
                    6          7
     6  Ca   0.000000
     7  H    3.208148   0.000000
 Stoichiometry    Ca2HO3P
 Framework group  C1[X(Ca2HO3P)]
 Deg. of freedom    15
 Full point group                 C1
 Largest Abelian subgroup         C1      NOp   1
 Largest concise Abelian subgroup C1      NOp   1
                         Standard orientation:                         
 ---------------------------------------------------------------------
 Center     Atomic     Atomic              Coordinates (Angstroms)
 Number     Number      Type              X           Y           Z
 ---------------------------------------------------------------------
    1          8             0        1.724071   -0.841117    0.645799
    2          8             0        0.864069   -1.106569   -0.466675
    3          8             0        2.846411   -0.012413    0.096751
    4         15             0       -2.050101    1.246088    0.162805
    5         20             0       -1.485708   -1.415242   -0.039484
    6         20             0        0.688635    1.296740   -0.165407
    7          1             0        3.216561   -0.640508   -0.551245
 ---------------------------------------------------------------------
 Rotational constants (GHZ):      2.1127220      1.1249077      0.7619012
 Standard basis: 6-31G(d,p) (6D, 7F)
 There are   115 symmetry adapted basis functions of A   symmetry.
 Integral buffers will be    131072 words long.
 Raffenetti 2 integral format.
 Two-electron integral symmetry is turned on.
   115 basis functions,   295 primitive gaussians,   115 cartesian basis functions
    40 alpha electrons       40 beta electrons
       nuclear repulsion energy       477.6143567635 Hartrees.
 NAtoms=    7 NActive=    7 NUniq=    7 SFac= 7.50D-01 NAtFMM=   80 NAOKFM=F Big=F
 One-electron integrals computed using PRISM.
 NBasis=   115 RedAO= T  NBF=   115
 NBsUse=   115 1.00D-06 NBFU=   115
 Harris functional with IExCor=  402 diagonalized for initial guess.
 ExpMin= 2.60D-02 ExpMax= 3.53D+04 ExpMxC= 5.30D+03 IAcc=3 IRadAn=         5 AccDes= 0.00D+00
 HarFok:  IExCor= 402 AccDes= 0.00D+00 IRadAn=         5 IDoV=1
 ScaDFX=  1.000000  1.000000  1.000000  1.000000
 Initial guess orbital symmetries:
       Occupied  (A) (A) (A) (A) (A) (A) (A) (A) (A) (A) (A) (A)
                 (A) (A) (A) (A) (A) (A) (A) (A) (A) (A) (A) (A)
                 (A) (A) (A) (A) (A) (A) (A) (A) (A) (A) (A) (A)
                 (A) (A) (A) (A)
       Virtual   (A) (A) (A) (A) (A) (A) (A) (A) (A) (A) (A) (A)
                 (A) (A) (A) (A) (A) (A) (A) (A) (A) (A) (A) (A)
                 (A) (A) (A) (A) (A) (A) (A) (A) (A) (A) (A) (A)
                 (A) (A) (A) (A) (A) (A) (A) (A) (A) (A) (A) (A)
                 (A) (A) (A) (A) (A) (A) (A) (A) (A) (A) (A) (A)
                 (A) (A) (A) (A) (A) (A) (A) (A) (A) (A) (A) (A)
                 (A) (A) (A)
 The electronic state of the initial guess is 1-A.
 Requested convergence on RMS density matrix=1.00D-04 within 128 cycles.
 Requested convergence on MAX density matrix=1.00D-02.
 Requested convergence on             energy=1.00D-02.
 No special actions if energy rises.
 Keep R1 integrals in memory in canonical form, NReq=    24133957.
 EnCoef did     1 forward-backward iterations
 EnCoef did     3 forward-backward iterations
 SCF Done:  E(RB+HF-LYP) =  -1922.58738846     A.U. after   11 cycles
             Convg  =    0.1940D-04             -V/T =  2.0026
             S**2   =   0.0000

 **********************************************************************

            Population analysis using the SCF density.

 **********************************************************************

 Orbital symmetries:
       Occupied  (A) (A) (A) (A) (A) (A) (A) (A) (A) (A) (A) (A)
                 (A) (A) (A) (A) (A) (A) (A) (A) (A) (A) (A) (A)
                 (A) (A) (A) (A) (A) (A) (A) (A) (A) (A) (A) (A)
                 (A) (A) (A) (A)
       Virtual   (A) (A) (A) (A) (A) (A) (A) (A) (A) (A) (A) (A)
                 (A) (A) (A) (A) (A) (A) (A) (A) (A) (A) (A) (A)
                 (A) (A) (A) (A) (A) (A) (A) (A) (A) (A) (A) (A)
                 (A) (A) (A) (A) (A) (A) (A) (A) (A) (A) (A) (A)
                 (A) (A) (A) (A) (A) (A) (A) (A) (A) (A) (A) (A)
                 (A) (A) (A) (A) (A) (A) (A) (A) (A) (A) (A) (A)
                 (A) (A) (A)
 The electronic state is 1-A.
 Alpha  occ. eigenvalues -- -145.37822-145.37276 -76.97631 -19.29031 -19.25251
 Alpha  occ. eigenvalues --  -19.17727 -15.44957 -15.44424 -12.58119 -12.58106
 Alpha  occ. eigenvalues --  -12.58046 -12.57603 -12.57587 -12.57492  -6.44613
 Alpha  occ. eigenvalues --   -4.60856  -4.60681  -4.60478  -1.82318  -1.81886
 Alpha  occ. eigenvalues --   -1.17562  -1.09879  -1.09833  -1.09453  -1.09371
 Alpha  occ. eigenvalues --   -1.09216  -1.08526  -1.00936  -0.81592  -0.56262
 Alpha  occ. eigenvalues --   -0.49780  -0.48275  -0.44979  -0.41510  -0.36031
 Alpha  occ. eigenvalues --   -0.31157  -0.26451  -0.15948  -0.15205  -0.13035
 Alpha virt. eigenvalues --   -0.08127  -0.06740  -0.05060  -0.01514  -0.01113
 Alpha virt. eigenvalues --   -0.00106   0.00403   0.01241   0.03717   0.05293
 Alpha virt. eigenvalues --    0.06459   0.08169   0.10037   0.11682   0.13535
 Alpha virt. eigenvalues --    0.13820   0.15177   0.17296   0.17909   0.18542
 Alpha virt. eigenvalues --    0.18849   0.20958   0.23332   0.25403   0.26802
 Alpha virt. eigenvalues --    0.29435   0.32517   0.34944   0.39687   0.41308
 Alpha virt. eigenvalues --    0.43713   0.46481   0.47112   0.54023   0.54472
 Alpha virt. eigenvalues --    0.75793   0.79638   0.80935   0.81299   0.81987
 Alpha virt. eigenvalues --    0.82462   0.90865   0.93733   0.96234   0.96677
 Alpha virt. eigenvalues --    0.99925   1.01251   1.05376   1.09039   1.11925
 Alpha virt. eigenvalues --    1.32125   1.33824   1.40718   1.45001   1.50400
 Alpha virt. eigenvalues --    1.56429   1.60153   1.77519   1.86843   1.90657
 Alpha virt. eigenvalues --    1.92941   2.01706   2.12925   2.28699   2.38367
 Alpha virt. eigenvalues --    2.49706   2.59723   2.71585   2.89880   3.05284
 Alpha virt. eigenvalues --    3.35431   3.52254   3.58159   3.77505   3.84504
          Condensed to atoms (all electrons):
              1          2          3          4          5          6
     1  O    8.067444   0.006253   0.015569  -0.000576  -0.006898   0.031748
     2  O    0.006253   8.407709  -0.046588  -0.011224   0.066781   0.060851
     3  O    0.015569  -0.046588   8.093572  -0.000235   0.002903   0.032699
     4  P   -0.000576  -0.011224  -0.000235  15.034733   0.358947   0.332132
     5  Ca  -0.006898   0.066781   0.002903   0.358947  19.076770  -0.095568
     6  Ca   0.031748   0.060851   0.032699   0.332132  -0.095568  18.936555
     7  H   -0.013605   0.006973   0.253157   0.000030   0.001655  -0.000070
              7
     1  O   -0.013605
     2  O    0.006973
     3  O    0.253157
     4  P    0.000030
     5  Ca   0.001655
     6  Ca  -0.000070
     7  H    0.393348
 Mulliken atomic charges:
              1
     1  O   -0.099935
     2  O   -0.490757
     3  O   -0.351077
     4  P   -0.713807
     5  Ca   0.595410
     6  Ca   0.701653
     7  H    0.358513
 Sum of Mulliken charges=   0.00000
 Atomic charges with hydrogens summed into heavy atoms:
              1
     1  O   -0.099935
     2  O   -0.490757
     3  O    0.007435
     4  P   -0.713807
     5  Ca   0.595410
     6  Ca   0.701653
     7  H    0.000000
 Sum of Mulliken charges=   0.00000
 Electronic spatial extent (au):  <R**2>=  1367.8550
 Charge=     0.0000 electrons
 Dipole moment (field-independent basis, Debye):
    X=     6.4629    Y=    -4.0771    Z=    -1.6123  Tot=     7.8097
 Quadrupole moment (field-independent basis, Debye-Ang):
   XX=   -73.0779   YY=   -59.4664   ZZ=   -69.9980
   XY=    21.7796   XZ=    -3.2505   YZ=    -1.3796
 Traceless Quadrupole moment (field-independent basis, Debye-Ang):
   XX=    -5.5638   YY=     8.0477   ZZ=    -2.4839
   XY=    21.7796   XZ=    -3.2505   YZ=    -1.3796
 Octapole moment (field-independent basis, Debye-Ang**2):
  XXX=   103.5717  YYY=   -26.3639  ZZZ=    -1.2111  XYY=    25.5567
  XXY=   -42.3401  XXZ=   -14.5484  XZZ=    25.8566  YZZ=    -9.3581
  YYZ=     0.3527  XYZ=     1.2484
 Hexadecapole moment (field-independent basis, Debye-Ang**3):
 XXXX= -1240.6801 YYYY=  -704.6573 ZZZZ=  -191.8777 XXXY=    45.4392
 XXXZ=   -42.0828 YYYX=    72.7642 YYYZ=    -5.0658 ZZZX=     4.5299
 ZZZY=    -3.7145 XXYY=  -316.3749 XXZZ=  -244.7819 YYZZ=  -154.7671
 XXYZ=     6.0178 YYXZ=    -0.8615 ZZXY=    15.4433
 N-N= 4.776143567635D+02 E-N=-5.510119827250D+03  KE= 1.917514334622D+03
 Merz-Kollman atomic radii used.
 Read replacement radii for each type of atom:
 Rad(20) =   1.188000000000D+00
 Atom Element Radius
    1     8    1.40
    2     8    1.40
    3     8    1.40
    4    15    1.80
    5    20    1.19
    6    20    1.19
    7     1    1.20

 **********************************************************************

            Electrostatic Properties Using The SCF Density

 **********************************************************************

       Atomic Center    1 is at   1.724071 -0.841117  0.645799
       Atomic Center    2 is at   0.864069 -1.106569 -0.466675
       Atomic Center    3 is at   2.846411 -0.012413  0.096751
       Atomic Center    4 is at  -2.050101  1.246088  0.162805
       Atomic Center    5 is at  -1.485708 -1.415242 -0.039484
       Atomic Center    6 is at   0.688635  1.296740 -0.165407
       Atomic Center    7 is at   3.216561 -0.640508 -0.551245
     753 points will be used for fitting atomic charges
 Fitting point charges to eletrostatic potential
 Charges from ESP fit, RMS=   0.01441 RRMS=   0.24995:
 Charge=   0.00000 Dipole=     6.2917    -5.2094    -2.2874 Tot=     8.4827
              1
     1  O   -0.085139
     2  O   -0.671798
     3  O   -0.490266
     4  P   -1.349469
     5  Ca   1.016653
     6  Ca   1.149428
     7  H    0.430591
 -----------------------------------------------------------------

              Electrostatic Properties (Atomic Units)

 -----------------------------------------------------------------
    Center     Electric         -------- Electric Field --------
               Potential          X             Y             Z
 -----------------------------------------------------------------
    1 Atom    -22.186561
    2 Atom    -22.293523
    3 Atom    -22.215288
    4 Atom    -54.242386
    5 Atom    -80.166686
    6 Atom    -80.171072
    7 Atom     -0.937156
 -----------------------------------------------------------------
 1\1\GINC-N029\SP\RB3LYP\6-31G(d,p)\Ca2H1O3P1\TIMN\04-May-2015\0\\# b3l
 yp/6-31G(d,p) pop=(ReadRadii,MK)\\Ca2PO3_32\\0,1\O,0,1.72407,-0.841118
 ,0.645799\O,0,0.864067,-1.10657,-0.466675\O,0,2.84641,-0.012415,0.0967
 51\P,0,-2.0501,1.24609,0.162805\Ca,0,-1.48571,-1.41524,-0.039484\Ca,0,
 0.688636,1.29674,-0.165407\H,0,3.21656,-0.640511,-0.551245\\Version=EM
 64T-G03RevE.01\State=1-A\HF=-1922.5873885\RMSD=1.940e-05\Thermal=0.\Di
 pole=2.5426823,-1.604063,-0.6343129\PG=C01 [X(Ca2H1O3P1)]\\@


 CHARLIE BROWN..'I CAN'T GET THAT STUPID KITE IN THE   
 AIR... I CAN'T... I C A N N O T...'                          
 LUCY..'OH COME NOW CHARLIE BROWN...THAT'S NO WAY TO TALK...  
 THE TROUBLE WITH YOU IS YOU DON'T BELIEVE IN YOURSELF... YOU 
 DON'T BELIEVE IN YOUR OWN ABILITIES...  YOU'VE GOT TO SAY TO 
 YOURSELF...'I BELIEVE I CAN FLY THIS KITE.'... GO AHEAD SAY  
 IT....'
 CHARLIE BROWN..'I BELIEVE THAT I CAN FLY THIS STUPID  
 KITE.....I BELIEVE THAT I CAN FLY THIS KITE........          
 I  A C T U A L L Y  B E L I E V E  T H A T  I  C A N ******' 
 LUCY..'I'LL BET YOU TEN-TO-ONE YOU'RE WRONG.......'    SCHULZ
 Job cpu time:  0 days  0 hours  0 minutes 16.8 seconds.
 File lengths (MBytes):  RWF=     18 Int=      0 D2E=      0 Chk=     10 Scr=      1
 Normal termination of Gaussian 03 at Mon May  4 20:09:04 2015.
