 Entering Gaussian System, Link 0=/home/timn/tmp/g03.e01/g03
 Input=Ca2PO3_15.xyz.gjf
 Output=Ca2PO3_15.xyz.out
 Initial command:
 /home/timn/tmp/g03.e01/l1.exe /home/timn/tmp/g03.e01/Gau-32490.inp -scrdir=/home/timn/tmp/g03.e01/
 Default is to use a total of   2 processors:
                                2 via shared-memory
                                1 via Linda
 Entering Link 1 = /home/timn/tmp/g03.e01/l1.exe PID=     32491.
  
 Copyright (c) 1988,1990,1992,1993,1995,1998,2003,2004,2007, Gaussian, Inc.
                  All Rights Reserved.
  
 This is the Gaussian(R) 03 program.  It is based on the
 the Gaussian(R) 98 system (copyright 1998, Gaussian, Inc.),
 the Gaussian(R) 94 system (copyright 1995, Gaussian, Inc.),
 the Gaussian 92(TM) system (copyright 1992, Gaussian, Inc.),
 the Gaussian 90(TM) system (copyright 1990, Gaussian, Inc.),
 the Gaussian 88(TM) system (copyright 1988, Gaussian, Inc.),
 the Gaussian 86(TM) system (copyright 1986, Carnegie Mellon
 University), and the Gaussian 82(TM) system (copyright 1983,
 Carnegie Mellon University). Gaussian is a federally registered
 trademark of Gaussian, Inc.
  
 This software contains proprietary and confidential information,
 including trade secrets, belonging to Gaussian, Inc.
  
 This software is provided under written license and may be
 used, copied, transmitted, or stored only in accord with that
 written license.
  
 The following legend is applicable only to US Government
 contracts under FAR:
  
                    RESTRICTED RIGHTS LEGEND
  
 Use, reproduction and disclosure by the US Government is
 subject to restrictions as set forth in subparagraphs (a)
 and (c) of the Commercial Computer Software - Restricted
 Rights clause in FAR 52.227-19.
  
 Gaussian, Inc.
 340 Quinnipiac St., Bldg. 40, Wallingford CT 06492
  
  
 ---------------------------------------------------------------
 Warning -- This program may not be used in any manner that
 competes with the business of Gaussian, Inc. or will provide
 assistance to any competitor of Gaussian, Inc.  The licensee
 of this program is prohibited from giving any competitor of
 Gaussian, Inc. access to this program.  By using this program,
 the user acknowledges that Gaussian, Inc. is engaged in the
 business of creating and licensing software in the field of
 computational chemistry and represents and warrants to the
 licensee that it is not a competitor of Gaussian, Inc. and that
 it will not use this program in any manner prohibited above.
 ---------------------------------------------------------------
  

 Cite this work as:
 Gaussian 03, Revision E.01,
 M. J. Frisch, G. W. Trucks, H. B. Schlegel, G. E. Scuseria, 
 M. A. Robb, J. R. Cheeseman, J. A. Montgomery, Jr., T. Vreven, 
 K. N. Kudin, J. C. Burant, J. M. Millam, S. S. Iyengar, J. Tomasi, 
 V. Barone, B. Mennucci, M. Cossi, G. Scalmani, N. Rega, 
 G. A. Petersson, H. Nakatsuji, M. Hada, M. Ehara, K. Toyota, 
 R. Fukuda, J. Hasegawa, M. Ishida, T. Nakajima, Y. Honda, O. Kitao, 
 H. Nakai, M. Klene, X. Li, J. E. Knox, H. P. Hratchian, J. B. Cross, 
 V. Bakken, C. Adamo, J. Jaramillo, R. Gomperts, R. E. Stratmann, 
 O. Yazyev, A. J. Austin, R. Cammi, C. Pomelli, J. W. Ochterski, 
 P. Y. Ayala, K. Morokuma, G. A. Voth, P. Salvador, J. J. Dannenberg, 
 V. G. Zakrzewski, S. Dapprich, A. D. Daniels, M. C. Strain, 
 O. Farkas, D. K. Malick, A. D. Rabuck, K. Raghavachari, 
 J. B. Foresman, J. V. Ortiz, Q. Cui, A. G. Baboul, S. Clifford, 
 J. Cioslowski, B. B. Stefanov, G. Liu, A. Liashenko, P. Piskorz, 
 I. Komaromi, R. L. Martin, D. J. Fox, T. Keith, M. A. Al-Laham, 
 C. Y. Peng, A. Nanayakkara, M. Challacombe, P. M. W. Gill, 
 B. Johnson, W. Chen, M. W. Wong, C. Gonzalez, and J. A. Pople, 
 Gaussian, Inc., Wallingford CT, 2004.
 
 ******************************************
 Gaussian 03:  EM64T-G03RevE.01 11-Sep-2007
                 4-May-2015 
 ******************************************
 %nproc=2
 Will use up to    2 processors via shared memory.
 Default route:  MP2=Direct MaxDisk=2000MB
 -------------------------------------
 # b3lyp/6-31G(d,p) pop=(ReadRadii,MK)
 -------------------------------------
 1/38=1/1;
 2/17=6,18=5,40=1/2;
 3/5=1,6=6,7=101,11=2,16=1,25=1,30=1,74=-5/1,2,3;
 4//1;
 5/5=2,32=1,38=5/2;
 6/7=2,8=2,9=2,10=2,15=8,20=101,28=1/1,2;
 99/5=1,9=1/99;
 ---------
 Ca2PO3_15
 ---------
 Symbolic Z-matrix:
 Charge =  0 Multiplicity = 1
 O                    -1.50278   1.0914   -0.48944 
 O                     0.04763  -0.10571   1.05818 
 O                     1.17679   1.23755  -0.69237 
 P                    -0.28392   1.39336   0.45896 
 Ca                    1.90268  -0.86954  -0.05284 
 Ca                   -1.63886  -1.16367  -0.17638 
 H                     1.2092    1.97809  -1.31101 
 
                          Input orientation:                          
 ---------------------------------------------------------------------
 Center     Atomic     Atomic              Coordinates (Angstroms)
 Number     Number      Type              X           Y           Z
 ---------------------------------------------------------------------
    1          8             0       -1.502780    1.091400   -0.489444
    2          8             0        0.047631   -0.105714    1.058180
    3          8             0        1.176790    1.237550   -0.692369
    4         15             0       -0.283915    1.393360    0.458963
    5         20             0        1.902680   -0.869544   -0.052837
    6         20             0       -1.638860   -1.163670   -0.176381
    7          1             0        1.209200    1.978090   -1.311010
 ---------------------------------------------------------------------
                    Distance matrix (angstroms):
                    1          2          3          4          5
     1  O    0.000000
     2  O    2.496397   0.000000
     3  O    2.691214   2.478665   0.000000
     4  P    1.573622   1.648092   1.866414   0.000000
     5  Ca   3.953870   2.293251   2.318569   3.188083   0.000000
     6  Ca   2.280760   2.342576   3.736306   2.962759   3.555879
     7  H    2.969179   3.362223   0.965488   2.388327   3.189504
                    6          7
     6  Ca   0.000000
     7  H    4.389702   0.000000
 Stoichiometry    Ca2HO3P
 Framework group  C1[X(Ca2HO3P)]
 Deg. of freedom    15
 Full point group                 C1
 Largest Abelian subgroup         C1      NOp   1
 Largest concise Abelian subgroup C1      NOp   1
                         Standard orientation:                         
 ---------------------------------------------------------------------
 Center     Atomic     Atomic              Coordinates (Angstroms)
 Number     Number      Type              X           Y           Z
 ---------------------------------------------------------------------
    1          8             0       -1.502782    1.091396   -0.489444
    2          8             0        0.047631   -0.105715    1.058180
    3          8             0        1.176787    1.237551   -0.692369
    4         15             0       -0.283918    1.393358    0.458963
    5         20             0        1.902682   -0.869541   -0.052837
    6         20             0       -1.638858   -1.163675   -0.176381
    7          1             0        1.209196    1.978091   -1.311010
 ---------------------------------------------------------------------
 Rotational constants (GHZ):      2.1871644      1.4305832      0.9978250
 Standard basis: 6-31G(d,p) (6D, 7F)
 There are   115 symmetry adapted basis functions of A   symmetry.
 Integral buffers will be    131072 words long.
 Raffenetti 2 integral format.
 Two-electron integral symmetry is turned on.
   115 basis functions,   295 primitive gaussians,   115 cartesian basis functions
    40 alpha electrons       40 beta electrons
       nuclear repulsion energy       522.5287398700 Hartrees.
 NAtoms=    7 NActive=    7 NUniq=    7 SFac= 7.50D-01 NAtFMM=   80 NAOKFM=F Big=F
 One-electron integrals computed using PRISM.
 NBasis=   115 RedAO= T  NBF=   115
 NBsUse=   115 1.00D-06 NBFU=   115
 Harris functional with IExCor=  402 diagonalized for initial guess.
 ExpMin= 2.60D-02 ExpMax= 3.53D+04 ExpMxC= 5.30D+03 IAcc=3 IRadAn=         5 AccDes= 0.00D+00
 HarFok:  IExCor= 402 AccDes= 0.00D+00 IRadAn=         5 IDoV=1
 ScaDFX=  1.000000  1.000000  1.000000  1.000000
 Initial guess orbital symmetries:
       Occupied  (A) (A) (A) (A) (A) (A) (A) (A) (A) (A) (A) (A)
                 (A) (A) (A) (A) (A) (A) (A) (A) (A) (A) (A) (A)
                 (A) (A) (A) (A) (A) (A) (A) (A) (A) (A) (A) (A)
                 (A) (A) (A) (A)
       Virtual   (A) (A) (A) (A) (A) (A) (A) (A) (A) (A) (A) (A)
                 (A) (A) (A) (A) (A) (A) (A) (A) (A) (A) (A) (A)
                 (A) (A) (A) (A) (A) (A) (A) (A) (A) (A) (A) (A)
                 (A) (A) (A) (A) (A) (A) (A) (A) (A) (A) (A) (A)
                 (A) (A) (A) (A) (A) (A) (A) (A) (A) (A) (A) (A)
                 (A) (A) (A) (A) (A) (A) (A) (A) (A) (A) (A) (A)
                 (A) (A) (A)
 The electronic state of the initial guess is 1-A.
 Requested convergence on RMS density matrix=1.00D-04 within 128 cycles.
 Requested convergence on MAX density matrix=1.00D-02.
 Requested convergence on             energy=1.00D-02.
 No special actions if energy rises.
 Keep R1 integrals in memory in canonical form, NReq=    24133957.
 EnCoef did     2 forward-backward iterations
 EnCoef did     3 forward-backward iterations
 EnCoef did     6 forward-backward iterations
 EnCoef did     4 forward-backward iterations
 SCF Done:  E(RB+HF-LYP) =  -1922.88777798     A.U. after   11 cycles
             Convg  =    0.1936D-04             -V/T =  2.0027
             S**2   =   0.0000

 **********************************************************************

            Population analysis using the SCF density.

 **********************************************************************

 Orbital symmetries:
       Occupied  (A) (A) (A) (A) (A) (A) (A) (A) (A) (A) (A) (A)
                 (A) (A) (A) (A) (A) (A) (A) (A) (A) (A) (A) (A)
                 (A) (A) (A) (A) (A) (A) (A) (A) (A) (A) (A) (A)
                 (A) (A) (A) (A)
       Virtual   (A) (A) (A) (A) (A) (A) (A) (A) (A) (A) (A) (A)
                 (A) (A) (A) (A) (A) (A) (A) (A) (A) (A) (A) (A)
                 (A) (A) (A) (A) (A) (A) (A) (A) (A) (A) (A) (A)
                 (A) (A) (A) (A) (A) (A) (A) (A) (A) (A) (A) (A)
                 (A) (A) (A) (A) (A) (A) (A) (A) (A) (A) (A) (A)
                 (A) (A) (A) (A) (A) (A) (A) (A) (A) (A) (A) (A)
                 (A) (A) (A)
 The electronic state is 1-A.
 Alpha  occ. eigenvalues -- -145.37803-145.37791 -77.13311 -19.14544 -19.09578
 Alpha  occ. eigenvalues --  -19.08214 -15.44929 -15.44927 -12.58141 -12.58132
 Alpha  occ. eigenvalues --  -12.58078 -12.58075 -12.57996 -12.57988  -6.58613
 Alpha  occ. eigenvalues --   -4.75095  -4.74876  -4.74334  -1.82311  -1.82280
 Alpha  occ. eigenvalues --   -1.10306  -1.09936  -1.09874  -1.09784  -1.09591
 Alpha  occ. eigenvalues --   -1.09486  -0.98600  -0.93608  -0.89159  -0.53926
 Alpha  occ. eigenvalues --   -0.46503  -0.39619  -0.37354  -0.36022  -0.31567
 Alpha  occ. eigenvalues --   -0.29833  -0.26864  -0.25838  -0.21394  -0.13439
 Alpha virt. eigenvalues --   -0.08924  -0.03695  -0.02571  -0.00911  -0.00102
 Alpha virt. eigenvalues --    0.00805   0.02435   0.04902   0.05318   0.07921
 Alpha virt. eigenvalues --    0.09264   0.10784   0.11202   0.12931   0.13613
 Alpha virt. eigenvalues --    0.14292   0.15350   0.16945   0.18597   0.18743
 Alpha virt. eigenvalues --    0.20057   0.21357   0.22823   0.23983   0.30231
 Alpha virt. eigenvalues --    0.31165   0.32897   0.36127   0.37857   0.39988
 Alpha virt. eigenvalues --    0.40870   0.42115   0.46070   0.51970   0.54253
 Alpha virt. eigenvalues --    0.67781   0.71625   0.75898   0.84216   0.90661
 Alpha virt. eigenvalues --    0.94844   1.00810   1.03873   1.09250   1.10227
 Alpha virt. eigenvalues --    1.15822   1.18266   1.24395   1.25810   1.31598
 Alpha virt. eigenvalues --    1.42407   1.44767   1.60378   1.64233   1.72866
 Alpha virt. eigenvalues --    1.82500   1.84816   1.86880   1.88110   1.92919
 Alpha virt. eigenvalues --    1.96279   1.98211   2.07449   2.14469   2.20030
 Alpha virt. eigenvalues --    2.36954   2.59364   2.63806   2.66689   2.76997
 Alpha virt. eigenvalues --    3.38569   3.59265   3.76911   3.86363   4.07676
          Condensed to atoms (all electrons):
              1          2          3          4          5          6
     1  O    8.391696  -0.045311  -0.022175   0.268684  -0.006091   0.155030
     2  O   -0.045311   8.561400  -0.033384   0.164002   0.095483   0.094329
     3  O   -0.022175  -0.033384   8.400644   0.038639   0.081589  -0.003051
     4  P    0.268684   0.164002   0.038639  13.577395   0.021790   0.007686
     5  Ca  -0.006091   0.095483   0.081589   0.021790  19.083638   0.185146
     6  Ca   0.155030   0.094329  -0.003051   0.007686   0.185146  19.024418
     7  H    0.000016   0.001991   0.278892   0.001093   0.000231  -0.001981
              7
     1  O    0.000016
     2  O    0.001991
     3  O    0.278892
     4  P    0.001093
     5  Ca   0.000231
     6  Ca  -0.001981
     7  H    0.395595
 Mulliken atomic charges:
              1
     1  O   -0.741850
     2  O   -0.838509
     3  O   -0.741153
     4  P    0.920712
     5  Ca   0.538214
     6  Ca   0.538423
     7  H    0.324164
 Sum of Mulliken charges=   0.00000
 Atomic charges with hydrogens summed into heavy atoms:
              1
     1  O   -0.741850
     2  O   -0.838509
     3  O   -0.416990
     4  P    0.920712
     5  Ca   0.538214
     6  Ca   0.538423
     7  H    0.000000
 Sum of Mulliken charges=   0.00000
 Electronic spatial extent (au):  <R**2>=  1134.5406
 Charge=     0.0000 electrons
 Dipole moment (field-independent basis, Debye):
    X=     0.9504    Y=    -1.2106    Z=    -0.4833  Tot=     1.6132
 Quadrupole moment (field-independent basis, Debye-Ang):
   XX=   -55.2453   YY=   -77.9450   ZZ=   -70.3296
   XY=     8.8045   XZ=    -1.5179   YZ=    -4.0860
 Traceless Quadrupole moment (field-independent basis, Debye-Ang):
   XX=    12.5947   YY=   -10.1050   ZZ=    -2.4896
   XY=     8.8045   XZ=    -1.5179   YZ=    -4.0860
 Octapole moment (field-independent basis, Debye-Ang**2):
  XXX=   -12.0438  YYY=    79.4863  ZZZ=     2.5334  XYY=    -1.5708
  XXY=     5.3951  XXZ=    11.1405  XZZ=    -1.7467  YZZ=    21.2746
  YYZ=     0.8882  XYZ=    -6.9086
 Hexadecapole moment (field-independent basis, Debye-Ang**3):
 XXXX=  -955.0685 YYYY=  -869.3341 ZZZZ=  -255.1495 XXXY=    57.2986
 XXXZ=     3.3715 YYYX=    38.8811 YYYZ=   -65.0624 ZZZX=    -2.6320
 ZZZY=   -37.0114 XXYY=  -329.2019 XXZZ=  -202.5145 YYZZ=  -174.6124
 XXYZ=   -14.9096 YYXZ=   -10.4231 ZZXY=    14.5104
 N-N= 5.225287398700D+02 E-N=-5.600466055329D+03  KE= 1.917653846100D+03
 Merz-Kollman atomic radii used.
 Read replacement radii for each type of atom:
 Rad(20) =   1.188000000000D+00
 Atom Element Radius
    1     8    1.40
    2     8    1.40
    3     8    1.40
    4    15    1.80
    5    20    1.19
    6    20    1.19
    7     1    1.20

 **********************************************************************

            Electrostatic Properties Using The SCF Density

 **********************************************************************

       Atomic Center    1 is at  -1.502782  1.091396 -0.489444
       Atomic Center    2 is at   0.047631 -0.105715  1.058180
       Atomic Center    3 is at   1.176787  1.237551 -0.692369
       Atomic Center    4 is at  -0.283918  1.393358  0.458963
       Atomic Center    5 is at   1.902682 -0.869541 -0.052837
       Atomic Center    6 is at  -1.638858 -1.163675 -0.176381
       Atomic Center    7 is at   1.209196  1.978091 -1.311010
     626 points will be used for fitting atomic charges
 Fitting point charges to eletrostatic potential
 Charges from ESP fit, RMS=   0.03538 RRMS=   0.62682:
 Charge=   0.00000 Dipole=     1.9292    -8.0153    -2.2198 Tot=     8.5378
              1
     1  O   -0.447554
     2  O   -0.528168
     3  O   -0.061391
     4  P   -0.042488
     5  Ca   0.440584
     6  Ca   0.630811
     7  H    0.008206
 -----------------------------------------------------------------

              Electrostatic Properties (Atomic Units)

 -----------------------------------------------------------------
    Center     Electric         -------- Electric Field --------
               Potential          X             Y             Z
 -----------------------------------------------------------------
    1 Atom    -22.382330
    2 Atom    -22.368091
    3 Atom    -22.315454
    4 Atom    -54.082953
    5 Atom    -80.166320
    6 Atom    -80.165661
    7 Atom     -0.997637
 -----------------------------------------------------------------
 1\1\GINC-N025\SP\RB3LYP\6-31G(d,p)\Ca2H1O3P1\TIMN\04-May-2015\0\\# b3l
 yp/6-31G(d,p) pop=(ReadRadii,MK)\\Ca2PO3_15\\0,1\O,0,-1.50278,1.0914,-
 0.489444\O,0,0.047631,-0.105714,1.05818\O,0,1.17679,1.23755,-0.692369\
 P,0,-0.283915,1.39336,0.458963\Ca,0,1.90268,-0.869544,-0.052837\Ca,0,-
 1.63886,-1.16367,-0.176381\H,0,1.2092,1.97809,-1.31101\\Version=EM64T-
 G03RevE.01\State=1-A\HF=-1922.887778\RMSD=1.936e-05\Thermal=0.\Dipole=
 0.3739145,-0.4762879,-0.1901342\PG=C01 [X(Ca2H1O3P1)]\\@


 WERE I TO AWAIT PERFECTION, MY BOOK WOULD NEVER BE FINISHED.
                                    -- HISTORY OF CHINESE WRITING

                                       TAI T'UNG, 13TH CENTURY
 Job cpu time:  0 days  0 hours  0 minutes 17.8 seconds.
 File lengths (MBytes):  RWF=     18 Int=      0 D2E=      0 Chk=     10 Scr=      1
 Normal termination of Gaussian 03 at Mon May  4 20:08:54 2015.
