 Entering Gaussian System, Link 0=/home/timn/tmp/g03.e01/g03
 Input=Ca2PO3_33.xyz.gjf
 Output=Ca2PO3_33.xyz.out
 Initial command:
 /home/timn/tmp/g03.e01/l1.exe /home/timn/tmp/g03.e01/Gau-11755.inp -scrdir=/home/timn/tmp/g03.e01/
 Default is to use a total of   2 processors:
                                2 via shared-memory
                                1 via Linda
 Entering Link 1 = /home/timn/tmp/g03.e01/l1.exe PID=     11756.
  
 Copyright (c) 1988,1990,1992,1993,1995,1998,2003,2004,2007, Gaussian, Inc.
                  All Rights Reserved.
  
 This is the Gaussian(R) 03 program.  It is based on the
 the Gaussian(R) 98 system (copyright 1998, Gaussian, Inc.),
 the Gaussian(R) 94 system (copyright 1995, Gaussian, Inc.),
 the Gaussian 92(TM) system (copyright 1992, Gaussian, Inc.),
 the Gaussian 90(TM) system (copyright 1990, Gaussian, Inc.),
 the Gaussian 88(TM) system (copyright 1988, Gaussian, Inc.),
 the Gaussian 86(TM) system (copyright 1986, Carnegie Mellon
 University), and the Gaussian 82(TM) system (copyright 1983,
 Carnegie Mellon University). Gaussian is a federally registered
 trademark of Gaussian, Inc.
  
 This software contains proprietary and confidential information,
 including trade secrets, belonging to Gaussian, Inc.
  
 This software is provided under written license and may be
 used, copied, transmitted, or stored only in accord with that
 written license.
  
 The following legend is applicable only to US Government
 contracts under FAR:
  
                    RESTRICTED RIGHTS LEGEND
  
 Use, reproduction and disclosure by the US Government is
 subject to restrictions as set forth in subparagraphs (a)
 and (c) of the Commercial Computer Software - Restricted
 Rights clause in FAR 52.227-19.
  
 Gaussian, Inc.
 340 Quinnipiac St., Bldg. 40, Wallingford CT 06492
  
  
 ---------------------------------------------------------------
 Warning -- This program may not be used in any manner that
 competes with the business of Gaussian, Inc. or will provide
 assistance to any competitor of Gaussian, Inc.  The licensee
 of this program is prohibited from giving any competitor of
 Gaussian, Inc. access to this program.  By using this program,
 the user acknowledges that Gaussian, Inc. is engaged in the
 business of creating and licensing software in the field of
 computational chemistry and represents and warrants to the
 licensee that it is not a competitor of Gaussian, Inc. and that
 it will not use this program in any manner prohibited above.
 ---------------------------------------------------------------
  

 Cite this work as:
 Gaussian 03, Revision E.01,
 M. J. Frisch, G. W. Trucks, H. B. Schlegel, G. E. Scuseria, 
 M. A. Robb, J. R. Cheeseman, J. A. Montgomery, Jr., T. Vreven, 
 K. N. Kudin, J. C. Burant, J. M. Millam, S. S. Iyengar, J. Tomasi, 
 V. Barone, B. Mennucci, M. Cossi, G. Scalmani, N. Rega, 
 G. A. Petersson, H. Nakatsuji, M. Hada, M. Ehara, K. Toyota, 
 R. Fukuda, J. Hasegawa, M. Ishida, T. Nakajima, Y. Honda, O. Kitao, 
 H. Nakai, M. Klene, X. Li, J. E. Knox, H. P. Hratchian, J. B. Cross, 
 V. Bakken, C. Adamo, J. Jaramillo, R. Gomperts, R. E. Stratmann, 
 O. Yazyev, A. J. Austin, R. Cammi, C. Pomelli, J. W. Ochterski, 
 P. Y. Ayala, K. Morokuma, G. A. Voth, P. Salvador, J. J. Dannenberg, 
 V. G. Zakrzewski, S. Dapprich, A. D. Daniels, M. C. Strain, 
 O. Farkas, D. K. Malick, A. D. Rabuck, K. Raghavachari, 
 J. B. Foresman, J. V. Ortiz, Q. Cui, A. G. Baboul, S. Clifford, 
 J. Cioslowski, B. B. Stefanov, G. Liu, A. Liashenko, P. Piskorz, 
 I. Komaromi, R. L. Martin, D. J. Fox, T. Keith, M. A. Al-Laham, 
 C. Y. Peng, A. Nanayakkara, M. Challacombe, P. M. W. Gill, 
 B. Johnson, W. Chen, M. W. Wong, C. Gonzalez, and J. A. Pople, 
 Gaussian, Inc., Wallingford CT, 2004.
 
 ******************************************
 Gaussian 03:  EM64T-G03RevE.01 11-Sep-2007
                 4-May-2015 
 ******************************************
 %nproc=2
 Will use up to    2 processors via shared memory.
 Default route:  MP2=Direct MaxDisk=2000MB
 -------------------------------------
 # b3lyp/6-31G(d,p) pop=(ReadRadii,MK)
 -------------------------------------
 1/38=1/1;
 2/17=6,18=5,40=1/2;
 3/5=1,6=6,7=101,11=2,16=1,25=1,30=1,74=-5/1,2,3;
 4//1;
 5/5=2,32=1,38=5/2;
 6/7=2,8=2,9=2,10=2,15=8,20=101,28=1/1,2;
 99/5=1,9=1/99;
 ---------
 Ca2PO3_33
 ---------
 Symbolic Z-matrix:
 Charge =  0 Multiplicity = 1
 O                     1.55427   1.24281   0.04821 
 O                     3.86545  -0.00769  -0.39173 
 O                     1.54809  -1.24065   0.06053 
 P                     2.42095  -0.00188  -0.11088 
 Ca                   -0.45052   0.00677   0.38702 
 Ca                   -4.04112  -0.00382  -0.26958 
 H                    -2.22392   0.01344   1.57823 
 
                          Input orientation:                          
 ---------------------------------------------------------------------
 Center     Atomic     Atomic              Coordinates (Angstroms)
 Number     Number      Type              X           Y           Z
 ---------------------------------------------------------------------
    1          8             0        1.554270    1.242810    0.048214
    2          8             0        3.865450   -0.007686   -0.391730
    3          8             0        1.548090   -1.240650    0.060527
    4         15             0        2.420950   -0.001881   -0.110879
    5         20             0       -0.450522    0.006765    0.387024
    6         20             0       -4.041120   -0.003818   -0.269581
    7          1             0       -2.223920    0.013437    1.578230
 ---------------------------------------------------------------------
                    Distance matrix (angstroms):
                    1          2          3          4          5
     1  O    0.000000
     2  O    2.664366   0.000000
     3  O    2.483498   2.663624   0.000000
     4  P    1.525025   1.471561   1.525062   0.000000
     5  Ca   2.379452   4.385690   2.378465   2.914332   0.000000
     6  Ca   5.741382   7.907514   5.733933   6.464019   3.650156
     7  H    4.257585   6.400126   4.254905   4.942483   2.136342
                    6          7
     6  Ca   0.000000
     7  H    2.591702   0.000000
 Stoichiometry    Ca2HO3P
 Framework group  C1[X(Ca2HO3P)]
 Deg. of freedom    15
 Full point group                 C1
 Largest Abelian subgroup         C1      NOp   1
 Largest concise Abelian subgroup C1      NOp   1
                         Standard orientation:                         
 ---------------------------------------------------------------------
 Center     Atomic     Atomic              Coordinates (Angstroms)
 Number     Number      Type              X           Y           Z
 ---------------------------------------------------------------------
    1          8             0        1.554270    1.242811    0.048214
    2          8             0        3.865450   -0.007685   -0.391730
    3          8             0        1.548090   -1.240649    0.060527
    4         15             0        2.420950   -0.001880   -0.110879
    5         20             0       -0.450522    0.006766    0.387024
    6         20             0       -4.041120   -0.003818   -0.269581
    7          1             0       -2.223920    0.013437    1.578230
 ---------------------------------------------------------------------
 Rotational constants (GHZ):      7.9420497      0.4292374      0.4168377
 Standard basis: 6-31G(d,p) (6D, 7F)
 There are   115 symmetry adapted basis functions of A   symmetry.
 Integral buffers will be    131072 words long.
 Raffenetti 2 integral format.
 Two-electron integral symmetry is turned on.
   115 basis functions,   295 primitive gaussians,   115 cartesian basis functions
    40 alpha electrons       40 beta electrons
       nuclear repulsion energy       446.5171530666 Hartrees.
 NAtoms=    7 NActive=    7 NUniq=    7 SFac= 7.50D-01 NAtFMM=   80 NAOKFM=F Big=F
 One-electron integrals computed using PRISM.
 NBasis=   115 RedAO= T  NBF=   115
 NBsUse=   115 1.00D-06 NBFU=   115
 Harris functional with IExCor=  402 diagonalized for initial guess.
 ExpMin= 2.60D-02 ExpMax= 3.53D+04 ExpMxC= 5.30D+03 IAcc=3 IRadAn=         5 AccDes= 0.00D+00
 HarFok:  IExCor= 402 AccDes= 0.00D+00 IRadAn=         5 IDoV=1
 ScaDFX=  1.000000  1.000000  1.000000  1.000000
 Initial guess orbital symmetries:
       Occupied  (A) (A) (A) (A) (A) (A) (A) (A) (A) (A) (A) (A)
                 (A) (A) (A) (A) (A) (A) (A) (A) (A) (A) (A) (A)
                 (A) (A) (A) (A) (A) (A) (A) (A) (A) (A) (A) (A)
                 (A) (A) (A) (A)
       Virtual   (A) (A) (A) (A) (A) (A) (A) (A) (A) (A) (A) (A)
                 (A) (A) (A) (A) (A) (A) (A) (A) (A) (A) (A) (A)
                 (A) (A) (A) (A) (A) (A) (A) (A) (A) (A) (A) (A)
                 (A) (A) (A) (A) (A) (A) (A) (A) (A) (A) (A) (A)
                 (A) (A) (A) (A) (A) (A) (A) (A) (A) (A) (A) (A)
                 (A) (A) (A) (A) (A) (A) (A) (A) (A) (A) (A) (A)
                 (A) (A) (A)
 The electronic state of the initial guess is 1-A.
 Requested convergence on RMS density matrix=1.00D-04 within 128 cycles.
 Requested convergence on MAX density matrix=1.00D-02.
 Requested convergence on             energy=1.00D-02.
 No special actions if energy rises.
 Keep R1 integrals in memory in canonical form, NReq=    24134256.
 EnCoef did     2 forward-backward iterations
 SCF Done:  E(RB+HF-LYP) =  -1922.81891997     A.U. after    7 cycles
             Convg  =    0.6824D-04             -V/T =  2.0027
             S**2   =   0.0000

 **********************************************************************

            Population analysis using the SCF density.

 **********************************************************************

 Orbital symmetries:
       Occupied  (A) (A) (A) (A) (A) (A) (A) (A) (A) (A) (A) (A)
                 (A) (A) (A) (A) (A) (A) (A) (A) (A) (A) (A) (A)
                 (A) (A) (A) (A) (A) (A) (A) (A) (A) (A) (A) (A)
                 (A) (A) (A) (A)
       Virtual   (A) (A) (A) (A) (A) (A) (A) (A) (A) (A) (A) (A)
                 (A) (A) (A) (A) (A) (A) (A) (A) (A) (A) (A) (A)
                 (A) (A) (A) (A) (A) (A) (A) (A) (A) (A) (A) (A)
                 (A) (A) (A) (A) (A) (A) (A) (A) (A) (A) (A) (A)
                 (A) (A) (A) (A) (A) (A) (A) (A) (A) (A) (A) (A)
                 (A) (A) (A) (A) (A) (A) (A) (A) (A) (A) (A) (A)
                 (A) (A) (A)
 The electronic state is 1-A.
 Alpha  occ. eigenvalues -- -145.40523-145.39601 -77.22643 -19.16746 -19.16737
 Alpha  occ. eigenvalues --  -19.15883 -15.47670 -15.46755 -12.60886 -12.60869
 Alpha  occ. eigenvalues --  -12.60697 -12.59903 -12.59898 -12.59836  -6.68168
 Alpha  occ. eigenvalues --   -4.84761  -4.84263  -4.84217  -1.85080  -1.83981
 Alpha  occ. eigenvalues --   -1.13018  -1.12754  -1.12493  -1.11336  -1.11276
 Alpha  occ. eigenvalues --   -1.11083  -1.05716  -0.98577  -0.98011  -0.53773
 Alpha  occ. eigenvalues --   -0.45413  -0.44328  -0.43970  -0.38039  -0.34723
 Alpha  occ. eigenvalues --   -0.34038  -0.33592  -0.30591  -0.27654  -0.15018
 Alpha virt. eigenvalues --   -0.08840  -0.05562  -0.05473  -0.02008  -0.01713
 Alpha virt. eigenvalues --   -0.00731  -0.00062   0.00556   0.02939   0.06647
 Alpha virt. eigenvalues --    0.08111   0.09193   0.10075   0.12068   0.12809
 Alpha virt. eigenvalues --    0.12840   0.15108   0.16033   0.17133   0.17178
 Alpha virt. eigenvalues --    0.18160   0.18668   0.20074   0.20103   0.22828
 Alpha virt. eigenvalues --    0.28838   0.29950   0.31981   0.32617   0.34592
 Alpha virt. eigenvalues --    0.38245   0.38848   0.43066   0.44733   0.48431
 Alpha virt. eigenvalues --    0.62981   0.65819   0.81359   0.87226   0.87290
 Alpha virt. eigenvalues --    0.94813   0.95759   0.99082   0.99155   1.02460
 Alpha virt. eigenvalues --    1.07838   1.11996   1.13859   1.16839   1.21547
 Alpha virt. eigenvalues --    1.35290   1.40118   1.43896   1.75163   1.76280
 Alpha virt. eigenvalues --    1.77797   1.78194   1.80724   1.82829   1.90728
 Alpha virt. eigenvalues --    1.93671   2.01665   2.10583   2.12003   2.15898
 Alpha virt. eigenvalues --    2.23325   2.24973   2.32322   2.66958   2.78353
 Alpha virt. eigenvalues --    2.80520   3.40874   3.71547   3.77051   3.86289
          Condensed to atoms (all electrons):
              1          2          3          4          5          6
     1  O    8.269477  -0.023694  -0.053805   0.328323   0.129552  -0.003144
     2  O   -0.023694   7.983733  -0.023766   0.539140   0.005970   0.000135
     3  O   -0.053805  -0.023766   8.269583   0.328378   0.129567  -0.003181
     4  P    0.328323   0.539140   0.328378  12.667062  -0.018284  -0.002299
     5  Ca   0.129552   0.005970   0.129567  -0.018284  18.476962   0.024230
     6  Ca  -0.003144   0.000135  -0.003181  -0.002299   0.024230  19.995382
     7  H   -0.000124   0.000000  -0.000125   0.000048   0.280128  -0.052987
              7
     1  O   -0.000124
     2  O    0.000000
     3  O   -0.000125
     4  P    0.000048
     5  Ca   0.280128
     6  Ca  -0.052987
     7  H    1.169679
 Mulliken atomic charges:
              1
     1  O   -0.646585
     2  O   -0.481518
     3  O   -0.646651
     4  P    1.157632
     5  Ca   0.971876
     6  Ca   0.041866
     7  H   -0.396620
 Sum of Mulliken charges=   0.00000
 Atomic charges with hydrogens summed into heavy atoms:
              1
     1  O   -0.646585
     2  O   -0.481518
     3  O   -0.646651
     4  P    1.157632
     5  Ca   0.575256
     6  Ca   0.041866
     7  H    0.000000
 Sum of Mulliken charges=   0.00000
 Electronic spatial extent (au):  <R**2>=  2366.0772
 Charge=     0.0000 electrons
 Dipole moment (field-independent basis, Debye):
    X=    -4.0866    Y=     0.0309    Z=     1.9854  Tot=     4.5434
 Quadrupole moment (field-independent basis, Debye-Ang):
   XX=   -85.0417   YY=   -72.8089   ZZ=   -72.3734
   XY=    -0.0056   XZ=    -3.2683   YZ=    -0.0263
 Traceless Quadrupole moment (field-independent basis, Debye-Ang):
   XX=    -8.3004   YY=     3.9324   ZZ=     4.3679
   XY=    -0.0056   XZ=    -3.2683   YZ=    -0.0263
 Octapole moment (field-independent basis, Debye-Ang**2):
  XXX=    17.5753  YYY=     0.2113  ZZZ=    13.5639  XYY=    24.2781
  XXY=     0.3174  XXZ=    48.3671  XZZ=    65.2448  YZZ=    -0.0109
  YYZ=     7.8657  XYZ=     0.2706
 Hexadecapole moment (field-independent basis, Debye-Ang**3):
 XXXX= -3661.2331 YYYY=  -253.5807 ZZZZ=  -249.4811 XXXY=    -0.9834
 XXXZ=  -196.3445 YYYX=    -0.8742 YYYZ=    -0.1950 ZZZX=   -69.7970
 ZZZY=    -0.4025 XXYY=  -639.4533 XXZZ=  -677.3619 YYZZ=   -79.1648
 XXYZ=    -0.5983 YYXZ=   -30.9648 ZZXY=    -0.0785
 N-N= 4.465171530666D+02 E-N=-5.444952147948D+03  KE= 1.917574255762D+03
 Merz-Kollman atomic radii used.
 Read replacement radii for each type of atom:
 Rad(20) =   1.188000000000D+00
 Atom Element Radius
    1     8    1.40
    2     8    1.40
    3     8    1.40
    4    15    1.80
    5    20    1.19
    6    20    1.19
    7     1    1.20

 **********************************************************************

            Electrostatic Properties Using The SCF Density

 **********************************************************************

       Atomic Center    1 is at   1.554270  1.242811  0.048214
       Atomic Center    2 is at   3.865450 -0.007685 -0.391730
       Atomic Center    3 is at   1.548090 -1.240649  0.060527
       Atomic Center    4 is at   2.420950 -0.001880 -0.110879
       Atomic Center    5 is at  -0.450522  0.006766  0.387024
       Atomic Center    6 is at  -4.041120 -0.003818 -0.269581
       Atomic Center    7 is at  -2.223920  0.013437  1.578230
     760 points will be used for fitting atomic charges
 Fitting point charges to eletrostatic potential
 Charges from ESP fit, RMS=   0.02777 RRMS=   0.47725:
 Charge=   0.00000 Dipole=   -10.2680    -0.0193    -1.6217 Tot=    10.3952
              1
     1  O   -0.813864
     2  O   -0.677683
     3  O   -0.809381
     4  P    1.380567
     5  Ca   1.184630
     6  Ca   0.218200
     7  H   -0.482468
 -----------------------------------------------------------------

              Electrostatic Properties (Atomic Units)

 -----------------------------------------------------------------
    Center     Electric         -------- Electric Field --------
               Potential          X             Y             Z
 -----------------------------------------------------------------
    1 Atom    -22.296334
    2 Atom    -22.313765
    3 Atom    -22.296404
    4 Atom    -53.981227
    5 Atom    -80.138223
    6 Atom    -80.149374
    7 Atom     -1.195459
 -----------------------------------------------------------------
 1\1\GINC-N038\SP\RB3LYP\6-31G(d,p)\Ca2H1O3P1\TIMN\04-May-2015\0\\# b3l
 yp/6-31G(d,p) pop=(ReadRadii,MK)\\Ca2PO3_33\\0,1\O,0,1.55427,1.24281,0
 .048214\O,0,3.86545,-0.007686,-0.39173\O,0,1.54809,-1.24065,0.060527\P
 ,0,2.42095,-0.001881,-0.110879\Ca,0,-0.450522,0.006765,0.387024\Ca,0,-
 4.04112,-0.003818,-0.269581\H,0,-2.22392,0.013437,1.57823\\Version=EM6
 4T-G03RevE.01\State=1-A\HF=-1922.81892\RMSD=6.824e-05\Thermal=0.\Dipol
 e=-1.6077804,0.0121553,0.7810994\PG=C01 [X(Ca2H1O3P1)]\\@


 CHARLIE BROWN..'I CAN'T GET THAT STUPID KITE IN THE   
 AIR... I CAN'T... I C A N N O T...'                          
 LUCY..'OH COME NOW CHARLIE BROWN...THAT'S NO WAY TO TALK...  
 THE TROUBLE WITH YOU IS YOU DON'T BELIEVE IN YOURSELF... YOU 
 DON'T BELIEVE IN YOUR OWN ABILITIES...  YOU'VE GOT TO SAY TO 
 YOURSELF...'I BELIEVE I CAN FLY THIS KITE.'... GO AHEAD SAY  
 IT....'
 CHARLIE BROWN..'I BELIEVE THAT I CAN FLY THIS STUPID  
 KITE.....I BELIEVE THAT I CAN FLY THIS KITE........          
 I  A C T U A L L Y  B E L I E V E  T H A T  I  C A N ******' 
 LUCY..'I'LL BET YOU TEN-TO-ONE YOU'RE WRONG.......'    SCHULZ
 Job cpu time:  0 days  0 hours  0 minutes 12.9 seconds.
 File lengths (MBytes):  RWF=     18 Int=      0 D2E=      0 Chk=     10 Scr=      1
 Normal termination of Gaussian 03 at Mon May  4 20:09:04 2015.
