 Entering Gaussian System, Link 0=/home/timn/tmp/g03.e01/g03
 Input=Ca2PO3_10.xyz.gjf
 Output=Ca2PO3_10.xyz.out
 Initial command:
 /home/timn/tmp/g03.e01/l1.exe /home/timn/tmp/g03.e01/Gau-5550.inp -scrdir=/home/timn/tmp/g03.e01/
 Default is to use a total of   2 processors:
                                2 via shared-memory
                                1 via Linda
 Entering Link 1 = /home/timn/tmp/g03.e01/l1.exe PID=      5551.
  
 Copyright (c) 1988,1990,1992,1993,1995,1998,2003,2004,2007, Gaussian, Inc.
                  All Rights Reserved.
  
 This is the Gaussian(R) 03 program.  It is based on the
 the Gaussian(R) 98 system (copyright 1998, Gaussian, Inc.),
 the Gaussian(R) 94 system (copyright 1995, Gaussian, Inc.),
 the Gaussian 92(TM) system (copyright 1992, Gaussian, Inc.),
 the Gaussian 90(TM) system (copyright 1990, Gaussian, Inc.),
 the Gaussian 88(TM) system (copyright 1988, Gaussian, Inc.),
 the Gaussian 86(TM) system (copyright 1986, Carnegie Mellon
 University), and the Gaussian 82(TM) system (copyright 1983,
 Carnegie Mellon University). Gaussian is a federally registered
 trademark of Gaussian, Inc.
  
 This software contains proprietary and confidential information,
 including trade secrets, belonging to Gaussian, Inc.
  
 This software is provided under written license and may be
 used, copied, transmitted, or stored only in accord with that
 written license.
  
 The following legend is applicable only to US Government
 contracts under FAR:
  
                    RESTRICTED RIGHTS LEGEND
  
 Use, reproduction and disclosure by the US Government is
 subject to restrictions as set forth in subparagraphs (a)
 and (c) of the Commercial Computer Software - Restricted
 Rights clause in FAR 52.227-19.
  
 Gaussian, Inc.
 340 Quinnipiac St., Bldg. 40, Wallingford CT 06492
  
  
 ---------------------------------------------------------------
 Warning -- This program may not be used in any manner that
 competes with the business of Gaussian, Inc. or will provide
 assistance to any competitor of Gaussian, Inc.  The licensee
 of this program is prohibited from giving any competitor of
 Gaussian, Inc. access to this program.  By using this program,
 the user acknowledges that Gaussian, Inc. is engaged in the
 business of creating and licensing software in the field of
 computational chemistry and represents and warrants to the
 licensee that it is not a competitor of Gaussian, Inc. and that
 it will not use this program in any manner prohibited above.
 ---------------------------------------------------------------
  

 Cite this work as:
 Gaussian 03, Revision E.01,
 M. J. Frisch, G. W. Trucks, H. B. Schlegel, G. E. Scuseria, 
 M. A. Robb, J. R. Cheeseman, J. A. Montgomery, Jr., T. Vreven, 
 K. N. Kudin, J. C. Burant, J. M. Millam, S. S. Iyengar, J. Tomasi, 
 V. Barone, B. Mennucci, M. Cossi, G. Scalmani, N. Rega, 
 G. A. Petersson, H. Nakatsuji, M. Hada, M. Ehara, K. Toyota, 
 R. Fukuda, J. Hasegawa, M. Ishida, T. Nakajima, Y. Honda, O. Kitao, 
 H. Nakai, M. Klene, X. Li, J. E. Knox, H. P. Hratchian, J. B. Cross, 
 V. Bakken, C. Adamo, J. Jaramillo, R. Gomperts, R. E. Stratmann, 
 O. Yazyev, A. J. Austin, R. Cammi, C. Pomelli, J. W. Ochterski, 
 P. Y. Ayala, K. Morokuma, G. A. Voth, P. Salvador, J. J. Dannenberg, 
 V. G. Zakrzewski, S. Dapprich, A. D. Daniels, M. C. Strain, 
 O. Farkas, D. K. Malick, A. D. Rabuck, K. Raghavachari, 
 J. B. Foresman, J. V. Ortiz, Q. Cui, A. G. Baboul, S. Clifford, 
 J. Cioslowski, B. B. Stefanov, G. Liu, A. Liashenko, P. Piskorz, 
 I. Komaromi, R. L. Martin, D. J. Fox, T. Keith, M. A. Al-Laham, 
 C. Y. Peng, A. Nanayakkara, M. Challacombe, P. M. W. Gill, 
 B. Johnson, W. Chen, M. W. Wong, C. Gonzalez, and J. A. Pople, 
 Gaussian, Inc., Wallingford CT, 2004.
 
 ******************************************
 Gaussian 03:  EM64T-G03RevE.01 11-Sep-2007
                 4-May-2015 
 ******************************************
 %nproc=2
 Will use up to    2 processors via shared memory.
 Default route:  MP2=Direct MaxDisk=2000MB
 -------------------------------------
 # b3lyp/6-31G(d,p) pop=(ReadRadii,MK)
 -------------------------------------
 1/38=1/1;
 2/17=6,18=5,40=1/2;
 3/5=1,6=6,7=101,11=2,16=1,25=1,30=1,74=-5/1,2,3;
 4//1;
 5/5=2,32=1,38=5/2;
 6/7=2,8=2,9=2,10=2,15=8,20=101,28=1/1,2;
 99/5=1,9=1/99;
 ---------
 Ca2PO3_10
 ---------
 Symbolic Z-matrix:
 Charge =  0 Multiplicity = 1
 O                    -1.10664  -0.00209  -0.92801 
 O                     1.79783   0.00288  -0.56492 
 O                     1.8106    0.00192   0.94546 
 P                    -2.00781  -0.00258   0.53266 
 Ca                    0.18088   1.69174  -0.1185 
 Ca                    0.18606  -1.69102  -0.11856 
 H                     2.764     0.00265   1.1311 
 
                          Input orientation:                          
 ---------------------------------------------------------------------
 Center     Atomic     Atomic              Coordinates (Angstroms)
 Number     Number      Type              X           Y           Z
 ---------------------------------------------------------------------
    1          8             0       -1.106640   -0.002094   -0.928007
    2          8             0        1.797830    0.002875   -0.564917
    3          8             0        1.810600    0.001923    0.945460
    4         15             0       -2.007810   -0.002576    0.532657
    5         20             0        0.180878    1.691740   -0.118499
    6         20             0        0.186060   -1.691020   -0.118564
    7          1             0        2.764000    0.002651    1.131100
 ---------------------------------------------------------------------
                    Distance matrix (angstroms):
                    1          2          3          4          5
     1  O    0.000000
     2  O    2.927081   0.000000
     3  O    3.467014   1.510431   0.000000
     4  P    1.716289   3.960757   3.840662   0.000000
     5  Ca   2.276418   2.380355   2.577496   2.843425   0.000000
     6  Ca   2.275685   2.380402   2.576302   2.843940   3.382764
     7  H    4.384267   1.951911   0.971305   4.809192   3.329720
                    6          7
     6  Ca   0.000000
     7  H    3.328056   0.000000
 Stoichiometry    Ca2HO3P
 Framework group  C1[X(Ca2HO3P)]
 Deg. of freedom    15
 Full point group                 C1
 Largest Abelian subgroup         C1      NOp   1
 Largest concise Abelian subgroup C1      NOp   1
                         Standard orientation:                         
 ---------------------------------------------------------------------
 Center     Atomic     Atomic              Coordinates (Angstroms)
 Number     Number      Type              X           Y           Z
 ---------------------------------------------------------------------
    1          8             0       -1.106639   -0.002095   -0.928007
    2          8             0        1.797831    0.002875   -0.564917
    3          8             0        1.810601    0.001923    0.945460
    4         15             0       -2.007809   -0.002577    0.532657
    5         20             0        0.180879    1.691739   -0.118499
    6         20             0        0.186061   -1.691021   -0.118564
    7          1             0        2.764001    0.002651    1.131100
 ---------------------------------------------------------------------
 Rotational constants (GHZ):      1.8515992      1.6667457      1.0365332
 Standard basis: 6-31G(d,p) (6D, 7F)
 There are   115 symmetry adapted basis functions of A   symmetry.
 Integral buffers will be    131072 words long.
 Raffenetti 2 integral format.
 Two-electron integral symmetry is turned on.
   115 basis functions,   295 primitive gaussians,   115 cartesian basis functions
    40 alpha electrons       40 beta electrons
       nuclear repulsion energy       514.3067096793 Hartrees.
 NAtoms=    7 NActive=    7 NUniq=    7 SFac= 7.50D-01 NAtFMM=   80 NAOKFM=F Big=F
 One-electron integrals computed using PRISM.
 NBasis=   115 RedAO= T  NBF=   115
 NBsUse=   115 1.00D-06 NBFU=   115
 Harris functional with IExCor=  402 diagonalized for initial guess.
 ExpMin= 2.60D-02 ExpMax= 3.53D+04 ExpMxC= 5.30D+03 IAcc=3 IRadAn=         5 AccDes= 0.00D+00
 HarFok:  IExCor= 402 AccDes= 0.00D+00 IRadAn=         5 IDoV=1
 ScaDFX=  1.000000  1.000000  1.000000  1.000000
 Initial guess orbital symmetries:
       Occupied  (A) (A) (A) (A) (A) (A) (A) (A) (A) (A) (A) (A)
                 (A) (A) (A) (A) (A) (A) (A) (A) (A) (A) (A) (A)
                 (A) (A) (A) (A) (A) (A) (A) (A) (A) (A) (A) (A)
                 (A) (A) (A) (A)
       Virtual   (A) (A) (A) (A) (A) (A) (A) (A) (A) (A) (A) (A)
                 (A) (A) (A) (A) (A) (A) (A) (A) (A) (A) (A) (A)
                 (A) (A) (A) (A) (A) (A) (A) (A) (A) (A) (A) (A)
                 (A) (A) (A) (A) (A) (A) (A) (A) (A) (A) (A) (A)
                 (A) (A) (A) (A) (A) (A) (A) (A) (A) (A) (A) (A)
                 (A) (A) (A) (A) (A) (A) (A) (A) (A) (A) (A) (A)
                 (A) (A) (A)
 The electronic state of the initial guess is 1-A.
 Requested convergence on RMS density matrix=1.00D-04 within 128 cycles.
 Requested convergence on MAX density matrix=1.00D-02.
 Requested convergence on             energy=1.00D-02.
 No special actions if energy rises.
 Keep R1 integrals in memory in canonical form, NReq=    24133658.
 EnCoef did     3 forward-backward iterations
 EnCoef did    14 forward-backward iterations
 EnCoef did     2 forward-backward iterations
 EnCoef did     2 forward-backward iterations
 SCF Done:  E(RB+HF-LYP) =  -1922.70866634     A.U. after   12 cycles
             Convg  =    0.5628D-04             -V/T =  2.0027
             S**2   =   0.0000

 **********************************************************************

            Population analysis using the SCF density.

 **********************************************************************

 Orbital symmetries:
       Occupied  (A) (A) (A) (A) (A) (A) (A) (A) (A) (A) (A) (A)
                 (A) (A) (A) (A) (A) (A) (A) (A) (A) (A) (A) (A)
                 (A) (A) (A) (A) (A) (A) (A) (A) (A) (A) (A) (A)
                 (A) (A) (A) (A)
       Virtual   (A) (A) (A) (A) (A) (A) (A) (A) (A) (A) (A) (A)
                 (A) (A) (A) (A) (A) (A) (A) (A) (A) (A) (A) (A)
                 (A) (A) (A) (A) (A) (A) (A) (A) (A) (A) (A) (A)
                 (A) (A) (A) (A) (A) (A) (A) (A) (A) (A) (A) (A)
                 (A) (A) (A) (A) (A) (A) (A) (A) (A) (A) (A) (A)
                 (A) (A) (A) (A) (A) (A) (A) (A) (A) (A) (A) (A)
                 (A) (A) (A)
 The electronic state is 1-A.
 Alpha  occ. eigenvalues -- -145.36577-145.36573 -77.04079 -19.22643 -19.15766
 Alpha  occ. eigenvalues --  -19.07254 -15.43670 -15.43666 -12.56887 -12.56883
 Alpha  occ. eigenvalues --  -12.56801 -12.56797 -12.56766 -12.56762  -6.50596
 Alpha  occ. eigenvalues --   -4.66966  -4.66668  -4.66394  -1.81079  -1.81020
 Alpha  occ. eigenvalues --   -1.10747  -1.08976  -1.08645  -1.08537  -1.08254
 Alpha  occ. eigenvalues --   -1.08086  -1.06155  -0.87746  -0.84349  -0.52408
 Alpha  occ. eigenvalues --   -0.47962  -0.42550  -0.41188  -0.30471  -0.30296
 Alpha  occ. eigenvalues --   -0.28629  -0.27422  -0.26396  -0.13275  -0.12541
 Alpha virt. eigenvalues --   -0.08097  -0.07512  -0.03153  -0.00784  -0.00452
 Alpha virt. eigenvalues --    0.00856   0.02367   0.02714   0.03790   0.05617
 Alpha virt. eigenvalues --    0.08228   0.08419   0.10389   0.13072   0.14238
 Alpha virt. eigenvalues --    0.14703   0.15777   0.18120   0.19115   0.20020
 Alpha virt. eigenvalues --    0.24029   0.24851   0.25400   0.26592   0.29414
 Alpha virt. eigenvalues --    0.30761   0.35117   0.40051   0.41623   0.42034
 Alpha virt. eigenvalues --    0.42761   0.44187   0.44626   0.51911   0.59056
 Alpha virt. eigenvalues --    0.74299   0.76193   0.78066   0.82908   0.87741
 Alpha virt. eigenvalues --    0.88965   0.95031   1.00509   1.01775   1.02883
 Alpha virt. eigenvalues --    1.08969   1.13697   1.14371   1.23613   1.25110
 Alpha virt. eigenvalues --    1.34101   1.44344   1.50324   1.52113   1.60035
 Alpha virt. eigenvalues --    1.64202   1.84607   1.87920   1.92362   1.92826
 Alpha virt. eigenvalues --    1.96350   1.96770   2.00940   2.07903   2.29665
 Alpha virt. eigenvalues --    2.32680   2.50039   2.60954   2.75552   2.97299
 Alpha virt. eigenvalues --    3.37218   3.55479   3.75615   3.79940   3.96397
          Condensed to atoms (all electrons):
              1          2          3          4          5          6
     1  O    8.591427  -0.006357   0.000555  -0.001864   0.115308   0.115390
     2  O   -0.006357   8.396214  -0.000442  -0.000748   0.082942   0.082910
     3  O    0.000555  -0.000442   8.116822  -0.008278   0.020341   0.020432
     4  P   -0.001864  -0.000748  -0.008278  14.752145   0.194894   0.194754
     5  Ca   0.115308   0.082942   0.020341   0.194894  18.855801  -0.040274
     6  Ca   0.115390   0.082910   0.020432   0.194754  -0.040274  18.855693
     7  H   -0.000080  -0.018231   0.260472   0.000763   0.001400   0.001413
              7
     1  O   -0.000080
     2  O   -0.018231
     3  O    0.260472
     4  P    0.000763
     5  Ca   0.001400
     6  Ca   0.001413
     7  H    0.401298
 Mulliken atomic charges:
              1
     1  O   -0.814379
     2  O   -0.536288
     3  O   -0.409902
     4  P   -0.131665
     5  Ca   0.769589
     6  Ca   0.769683
     7  H    0.352964
 Sum of Mulliken charges=   0.00000
 Atomic charges with hydrogens summed into heavy atoms:
              1
     1  O   -0.814379
     2  O   -0.536288
     3  O   -0.056939
     4  P   -0.131665
     5  Ca   0.769589
     6  Ca   0.769683
     7  H    0.000000
 Sum of Mulliken charges=   0.00000
 Electronic spatial extent (au):  <R**2>=  1105.4577
 Charge=     0.0000 electrons
 Dipole moment (field-independent basis, Debye):
    X=     6.3277    Y=     0.0072    Z=    -1.1989  Tot=     6.4402
 Quadrupole moment (field-independent basis, Debye-Ang):
   XX=   -75.5902   YY=   -53.0739   ZZ=   -68.7522
   XY=    -0.0392   XZ=     5.2086   YZ=     0.0053
 Traceless Quadrupole moment (field-independent basis, Debye-Ang):
   XX=    -9.7848   YY=    12.7315   ZZ=    -2.9468
   XY=    -0.0392   XZ=     5.2086   YZ=     0.0053
 Octapole moment (field-independent basis, Debye-Ang**2):
  XXX=    59.6001  YYY=     0.0679  ZZZ=   -15.5587  XYY=    21.0626
  XXY=     0.0010  XXZ=     7.4062  XZZ=    15.5324  YZZ=     0.0251
  YYZ=   -22.1877  XYZ=     0.0380
 Hexadecapole moment (field-independent basis, Debye-Ang**3):
 XXXX=  -764.7899 YYYY=  -816.1579 ZZZZ=  -239.1644 XXXY=     0.1181
 XXXZ=    71.6082 YYYX=     0.0366 YYYZ=     0.0454 ZZZX=    15.2708
 ZZZY=     0.0183 XXYY=  -279.2147 XXZZ=  -163.7008 YYZZ=  -175.5674
 XXYZ=     0.0541 YYXZ=    11.9852 ZZXY=     0.0216
 N-N= 5.143067096793D+02 E-N=-5.584834281736D+03  KE= 1.917567572134D+03
 Merz-Kollman atomic radii used.
 Read replacement radii for each type of atom:
 Rad(20) =   1.188000000000D+00
 Atom Element Radius
    1     8    1.40
    2     8    1.40
    3     8    1.40
    4    15    1.80
    5    20    1.19
    6    20    1.19
    7     1    1.20

 **********************************************************************

            Electrostatic Properties Using The SCF Density

 **********************************************************************

       Atomic Center    1 is at  -1.106639 -0.002095 -0.928007
       Atomic Center    2 is at   1.797831  0.002875 -0.564917
       Atomic Center    3 is at   1.810601  0.001923  0.945460
       Atomic Center    4 is at  -2.007809 -0.002577  0.532657
       Atomic Center    5 is at   0.180879  1.691739 -0.118499
       Atomic Center    6 is at   0.186061 -1.691021 -0.118564
       Atomic Center    7 is at   2.764001  0.002651  1.131100
     709 points will be used for fitting atomic charges
 Fitting point charges to eletrostatic potential
 Charges from ESP fit, RMS=   0.01784 RRMS=   0.32903:
 Charge=   0.00000 Dipole=     7.4162     0.0076    -1.1615 Tot=     7.5066
              1
     1  O   -0.411144
     2  O   -0.495077
     3  O   -0.647354
     4  P   -0.872961
     5  Ca   1.028394
     6  Ca   1.028741
     7  H    0.369401
 -----------------------------------------------------------------

              Electrostatic Properties (Atomic Units)

 -----------------------------------------------------------------
    Center     Electric         -------- Electric Field --------
               Potential          X             Y             Z
 -----------------------------------------------------------------
    1 Atom    -22.388673
    2 Atom    -22.313875
    3 Atom    -22.239070
    4 Atom    -54.175180
    5 Atom    -80.177482
    6 Atom    -80.177501
    7 Atom     -0.960539
 -----------------------------------------------------------------
 1\1\GINC-N027\SP\RB3LYP\6-31G(d,p)\Ca2H1O3P1\TIMN\04-May-2015\0\\# b3l
 yp/6-31G(d,p) pop=(ReadRadii,MK)\\Ca2PO3_10\\0,1\O,0,-1.10664,-0.00209
 4,-0.928007\O,0,1.79783,0.002875,-0.564917\O,0,1.8106,0.001923,0.94546
 \P,0,-2.00781,-0.002576,0.532657\Ca,0,0.180878,1.69174,-0.118499\Ca,0,
 0.18606,-1.69102,-0.118564\H,0,2.764,0.002651,1.1311\\Version=EM64T-G0
 3RevE.01\State=1-A\HF=-1922.7086663\RMSD=5.628e-05\Thermal=0.\Dipole=2
 .4894896,0.0028289,-0.4716675\PG=C01 [X(Ca2H1O3P1)]\\@


 HE WHO LAUGHS LAST PROBABLY DIDN'T GET THE JOKE.
 Job cpu time:  0 days  0 hours  0 minutes 18.4 seconds.
 File lengths (MBytes):  RWF=     18 Int=      0 D2E=      0 Chk=     10 Scr=      1
 Normal termination of Gaussian 03 at Mon May  4 20:08:52 2015.
