 Entering Gaussian System, Link 0=/home/timn/tmp/g03.e01/g03
 Input=Ca2PO3_34.xyz.gjf
 Output=Ca2PO3_34.xyz.out
 Initial command:
 /home/timn/tmp/g03.e01/l1.exe /home/timn/tmp/g03.e01/Gau-30672.inp -scrdir=/home/timn/tmp/g03.e01/
 Default is to use a total of   2 processors:
                                2 via shared-memory
                                1 via Linda
 Entering Link 1 = /home/timn/tmp/g03.e01/l1.exe PID=     30673.
  
 Copyright (c) 1988,1990,1992,1993,1995,1998,2003,2004,2007, Gaussian, Inc.
                  All Rights Reserved.
  
 This is the Gaussian(R) 03 program.  It is based on the
 the Gaussian(R) 98 system (copyright 1998, Gaussian, Inc.),
 the Gaussian(R) 94 system (copyright 1995, Gaussian, Inc.),
 the Gaussian 92(TM) system (copyright 1992, Gaussian, Inc.),
 the Gaussian 90(TM) system (copyright 1990, Gaussian, Inc.),
 the Gaussian 88(TM) system (copyright 1988, Gaussian, Inc.),
 the Gaussian 86(TM) system (copyright 1986, Carnegie Mellon
 University), and the Gaussian 82(TM) system (copyright 1983,
 Carnegie Mellon University). Gaussian is a federally registered
 trademark of Gaussian, Inc.
  
 This software contains proprietary and confidential information,
 including trade secrets, belonging to Gaussian, Inc.
  
 This software is provided under written license and may be
 used, copied, transmitted, or stored only in accord with that
 written license.
  
 The following legend is applicable only to US Government
 contracts under FAR:
  
                    RESTRICTED RIGHTS LEGEND
  
 Use, reproduction and disclosure by the US Government is
 subject to restrictions as set forth in subparagraphs (a)
 and (c) of the Commercial Computer Software - Restricted
 Rights clause in FAR 52.227-19.
  
 Gaussian, Inc.
 340 Quinnipiac St., Bldg. 40, Wallingford CT 06492
  
  
 ---------------------------------------------------------------
 Warning -- This program may not be used in any manner that
 competes with the business of Gaussian, Inc. or will provide
 assistance to any competitor of Gaussian, Inc.  The licensee
 of this program is prohibited from giving any competitor of
 Gaussian, Inc. access to this program.  By using this program,
 the user acknowledges that Gaussian, Inc. is engaged in the
 business of creating and licensing software in the field of
 computational chemistry and represents and warrants to the
 licensee that it is not a competitor of Gaussian, Inc. and that
 it will not use this program in any manner prohibited above.
 ---------------------------------------------------------------
  

 Cite this work as:
 Gaussian 03, Revision E.01,
 M. J. Frisch, G. W. Trucks, H. B. Schlegel, G. E. Scuseria, 
 M. A. Robb, J. R. Cheeseman, J. A. Montgomery, Jr., T. Vreven, 
 K. N. Kudin, J. C. Burant, J. M. Millam, S. S. Iyengar, J. Tomasi, 
 V. Barone, B. Mennucci, M. Cossi, G. Scalmani, N. Rega, 
 G. A. Petersson, H. Nakatsuji, M. Hada, M. Ehara, K. Toyota, 
 R. Fukuda, J. Hasegawa, M. Ishida, T. Nakajima, Y. Honda, O. Kitao, 
 H. Nakai, M. Klene, X. Li, J. E. Knox, H. P. Hratchian, J. B. Cross, 
 V. Bakken, C. Adamo, J. Jaramillo, R. Gomperts, R. E. Stratmann, 
 O. Yazyev, A. J. Austin, R. Cammi, C. Pomelli, J. W. Ochterski, 
 P. Y. Ayala, K. Morokuma, G. A. Voth, P. Salvador, J. J. Dannenberg, 
 V. G. Zakrzewski, S. Dapprich, A. D. Daniels, M. C. Strain, 
 O. Farkas, D. K. Malick, A. D. Rabuck, K. Raghavachari, 
 J. B. Foresman, J. V. Ortiz, Q. Cui, A. G. Baboul, S. Clifford, 
 J. Cioslowski, B. B. Stefanov, G. Liu, A. Liashenko, P. Piskorz, 
 I. Komaromi, R. L. Martin, D. J. Fox, T. Keith, M. A. Al-Laham, 
 C. Y. Peng, A. Nanayakkara, M. Challacombe, P. M. W. Gill, 
 B. Johnson, W. Chen, M. W. Wong, C. Gonzalez, and J. A. Pople, 
 Gaussian, Inc., Wallingford CT, 2004.
 
 ******************************************
 Gaussian 03:  EM64T-G03RevE.01 11-Sep-2007
                 4-May-2015 
 ******************************************
 %nproc=2
 Will use up to    2 processors via shared memory.
 Default route:  MP2=Direct MaxDisk=2000MB
 -------------------------------------
 # b3lyp/6-31G(d,p) pop=(ReadRadii,MK)
 -------------------------------------
 1/38=1/1;
 2/17=6,18=5,40=1/2;
 3/5=1,6=6,7=101,11=2,16=1,25=1,30=1,74=-5/1,2,3;
 4//1;
 5/5=2,32=1,38=5/2;
 6/7=2,8=2,9=2,10=2,15=8,20=101,28=1/1,2;
 99/5=1,9=1/99;
 ---------
 Ca2PO3_34
 ---------
 Symbolic Z-matrix:
 Charge =  0 Multiplicity = 1
 O                    -2.43208  -1.24531  -0.00097 
 O                    -2.42      1.24946  -0.00077 
 O                     1.72519  -0.00808   0.00352 
 P                    -3.33518   0.00634  -0.00504 
 Ca                   -0.39017  -0.00712   0.0065 
 Ca                    3.844     0.00321  -0.00296 
 H                     5.96611   0.01456  -0.00941 
 
                          Input orientation:                          
 ---------------------------------------------------------------------
 Center     Atomic     Atomic              Coordinates (Angstroms)
 Number     Number      Type              X           Y           Z
 ---------------------------------------------------------------------
    1          8             0       -2.432080   -1.245310   -0.000969
    2          8             0       -2.420000    1.249460   -0.000770
    3          8             0        1.725190   -0.008076    0.003517
    4         15             0       -3.335180    0.006341   -0.005042
    5         20             0       -0.390166   -0.007122    0.006502
    6         20             0        3.844000    0.003205   -0.002961
    7          1             0        5.966110    0.014555   -0.009414
 ---------------------------------------------------------------------
                    Distance matrix (angstroms):
                    1          2          3          4          5
     1  O    0.000000
     2  O    2.494799   0.000000
     3  O    4.337472   4.331745   0.000000
     4  P    1.543450   1.543670   5.060398   0.000000
     5  Ca   2.388007   2.387316   2.115358   2.945067   0.000000
     6  Ca   6.399060   6.386772   2.118850   7.179181   4.234189
     7  H    8.492169   8.476550   4.241000   9.301295   6.356333
                    6          7
     6  Ca   0.000000
     7  H    2.122150   0.000000
 Stoichiometry    Ca2HO3P
 Framework group  C1[X(Ca2HO3P)]
 Deg. of freedom    15
 Full point group                 C1
 Largest Abelian subgroup         C1      NOp   1
 Largest concise Abelian subgroup C1      NOp   1
                         Standard orientation:                         
 ---------------------------------------------------------------------
 Center     Atomic     Atomic              Coordinates (Angstroms)
 Number     Number      Type              X           Y           Z
 ---------------------------------------------------------------------
    1          8             0       -2.432080   -1.245308   -0.000969
    2          8             0       -2.419999    1.249461   -0.000770
    3          8             0        1.725190   -0.008075    0.003517
    4         15             0       -3.335180    0.006343   -0.005042
    5         20             0       -0.390166   -0.007121    0.006502
    6         20             0        3.844000    0.003205   -0.002961
    7          1             0        5.966110    0.014555   -0.009414
 ---------------------------------------------------------------------
 Rotational constants (GHZ):     10.1515577      0.4168610      0.4004203
 Standard basis: 6-31G(d,p) (6D, 7F)
 There are   115 symmetry adapted basis functions of A   symmetry.
 Integral buffers will be    131072 words long.
 Raffenetti 2 integral format.
 Two-electron integral symmetry is turned on.
   115 basis functions,   295 primitive gaussians,   115 cartesian basis functions
    40 alpha electrons       40 beta electrons
       nuclear repulsion energy       436.9346150202 Hartrees.
 NAtoms=    7 NActive=    7 NUniq=    7 SFac= 7.50D-01 NAtFMM=   80 NAOKFM=F Big=F
 One-electron integrals computed using PRISM.
 NBasis=   115 RedAO= T  NBF=   115
 NBsUse=   115 1.00D-06 NBFU=   115
 Harris functional with IExCor=  402 diagonalized for initial guess.
 ExpMin= 2.60D-02 ExpMax= 3.53D+04 ExpMxC= 5.30D+03 IAcc=3 IRadAn=         5 AccDes= 0.00D+00
 HarFok:  IExCor= 402 AccDes= 0.00D+00 IRadAn=         5 IDoV=1
 ScaDFX=  1.000000  1.000000  1.000000  1.000000
 Initial guess orbital symmetries:
       Occupied  (A) (A) (A) (A) (A) (A) (A) (A) (A) (A) (A) (A)
                 (A) (A) (A) (A) (A) (A) (A) (A) (A) (A) (A) (A)
                 (A) (A) (A) (A) (A) (A) (A) (A) (A) (A) (A) (A)
                 (A) (A) (A) (A)
       Virtual   (A) (A) (A) (A) (A) (A) (A) (A) (A) (A) (A) (A)
                 (A) (A) (A) (A) (A) (A) (A) (A) (A) (A) (A) (A)
                 (A) (A) (A) (A) (A) (A) (A) (A) (A) (A) (A) (A)
                 (A) (A) (A) (A) (A) (A) (A) (A) (A) (A) (A) (A)
                 (A) (A) (A) (A) (A) (A) (A) (A) (A) (A) (A) (A)
                 (A) (A) (A) (A) (A) (A) (A) (A) (A) (A) (A) (A)
                 (A) (A) (A)
 The electronic state of the initial guess is 1-A.
 Requested convergence on RMS density matrix=1.00D-04 within 128 cycles.
 Requested convergence on MAX density matrix=1.00D-02.
 Requested convergence on             energy=1.00D-02.
 No special actions if energy rises.
 Keep R1 integrals in memory in canonical form, NReq=    24134256.
 EnCoef did     2 forward-backward iterations
 EnCoef did     2 forward-backward iterations
 SCF Done:  E(RB+HF-LYP) =  -1922.86983671     A.U. after    8 cycles
             Convg  =    0.3948D-04             -V/T =  2.0026
             S**2   =   0.0000

 **********************************************************************

            Population analysis using the SCF density.

 **********************************************************************

 Orbital symmetries:
       Occupied  (A) (A) (A) (A) (A) (A) (A) (A) (A) (A) (A) (A)
                 (A) (A) (A) (A) (A) (A) (A) (A) (A) (A) (A) (A)
                 (A) (A) (A) (A) (A) (A) (A) (A) (A) (A) (A) (A)
                 (A) (A) (A) (A)
       Virtual   (A) (A) (A) (A) (A) (A) (A) (A) (A) (A) (A) (A)
                 (A) (A) (A) (A) (A) (A) (A) (A) (A) (A) (A) (A)
                 (A) (A) (A) (A) (A) (A) (A) (A) (A) (A) (A) (A)
                 (A) (A) (A) (A) (A) (A) (A) (A) (A) (A) (A) (A)
                 (A) (A) (A) (A) (A) (A) (A) (A) (A) (A) (A) (A)
                 (A) (A) (A) (A) (A) (A) (A) (A) (A) (A) (A) (A)
                 (A) (A) (A)
 The electronic state is 1-A.
 Alpha  occ. eigenvalues -- -145.33861-145.33849 -77.15560 -19.13705 -19.13550
 Alpha  occ. eigenvalues --  -19.00860 -15.41268 -15.41145 -12.54496 -12.54496
 Alpha  occ. eigenvalues --  -12.54398 -12.54331 -12.54158 -12.54095  -6.61489
 Alpha  occ. eigenvalues --   -4.77921  -4.77654  -4.77285  -1.79138  -1.78951
 Alpha  occ. eigenvalues --   -1.07254  -1.07250  -1.07176  -1.06801  -1.06691
 Alpha  occ. eigenvalues --   -1.05533  -0.99705  -0.94159  -0.75222  -0.52449
 Alpha  occ. eigenvalues --   -0.41116  -0.39532  -0.39054  -0.30720  -0.29567
 Alpha  occ. eigenvalues --   -0.27323  -0.23067  -0.19943  -0.19649  -0.19597
 Alpha virt. eigenvalues --   -0.06142  -0.05582  -0.02996  -0.01232  -0.01102
 Alpha virt. eigenvalues --    0.00050   0.01243   0.03872   0.05482   0.08263
 Alpha virt. eigenvalues --    0.08492   0.11777   0.13174   0.13377   0.13946
 Alpha virt. eigenvalues --    0.14016   0.16109   0.20910   0.20918   0.21847
 Alpha virt. eigenvalues --    0.21888   0.23697   0.24532   0.25880   0.27735
 Alpha virt. eigenvalues --    0.32891   0.33450   0.34028   0.36081   0.40694
 Alpha virt. eigenvalues --    0.41561   0.43645   0.44454   0.46339   0.49523
 Alpha virt. eigenvalues --    0.67150   0.67558   0.76251   0.86182   0.90552
 Alpha virt. eigenvalues --    0.97725   1.00914   1.02694   1.05052   1.11743
 Alpha virt. eigenvalues --    1.12392   1.14663   1.14886   1.22279   1.27902
 Alpha virt. eigenvalues --    1.36905   1.40033   1.51060   1.79242   1.81678
 Alpha virt. eigenvalues --    1.84253   1.85409   1.88008   1.91846   1.91933
 Alpha virt. eigenvalues --    1.97059   1.99755   2.02157   2.02653   2.09535
 Alpha virt. eigenvalues --    2.14447   2.14475   2.28462   2.45409   2.69522
 Alpha virt. eigenvalues --    2.77664   3.47323   3.66701   3.73561   3.84332
          Condensed to atoms (all electrons):
              1          2          3          4          5          6
     1  O    8.325037  -0.049432  -0.000093   0.263831   0.107748   0.000065
     2  O   -0.049432   8.320307  -0.000094   0.265095   0.108031   0.000044
     3  O   -0.000093  -0.000094   8.476297   0.000004   0.244644   0.235388
     4  P    0.263831   0.265095   0.000004  13.692003   0.041169  -0.001276
     5  Ca   0.107748   0.108031   0.244644   0.041169  18.532077  -0.026476
     6  Ca   0.000065   0.000044   0.235388  -0.001276  -0.026476  18.667312
     7  H    0.000000   0.000000  -0.000422   0.000000   0.008196   0.327372
              7
     1  O    0.000000
     2  O    0.000000
     3  O   -0.000422
     4  P    0.000000
     5  Ca   0.008196
     6  Ca   0.327372
     7  H    0.939380
 Mulliken atomic charges:
              1
     1  O   -0.647156
     2  O   -0.643950
     3  O   -0.955723
     4  P    0.739174
     5  Ca   0.984613
     6  Ca   0.797570
     7  H   -0.274527
 Sum of Mulliken charges=   0.00000
 Atomic charges with hydrogens summed into heavy atoms:
              1
     1  O   -0.647156
     2  O   -0.643950
     3  O   -0.955723
     4  P    0.739174
     5  Ca   0.984613
     6  Ca   0.523043
     7  H    0.000000
 Sum of Mulliken charges=   0.00000
 Electronic spatial extent (au):  <R**2>=  2468.1832
 Charge=     0.0000 electrons
 Dipole moment (field-independent basis, Debye):
    X=    -1.3494    Y=    -0.0094    Z=     0.0305  Tot=     1.3498
 Quadrupole moment (field-independent basis, Debye-Ang):
   XX=  -106.4046   YY=   -65.6045   ZZ=   -55.0059
   XY=    -0.1791   XZ=     0.0526   YZ=    -0.0007
 Traceless Quadrupole moment (field-independent basis, Debye-Ang):
   XX=   -30.7329   YY=    10.0671   ZZ=    20.6658
   XY=    -0.1791   XZ=     0.0526   YZ=    -0.0007
 Octapole moment (field-independent basis, Debye-Ang**2):
  XXX=  -319.5385  YYY=    -0.1681  ZZZ=     0.1213  XYY=    16.1366
  XXY=    -0.8477  XXZ=     0.7322  XZZ=    -8.8991  YZZ=    -0.0479
  YYZ=     0.0466  XYZ=     0.0045
 Hexadecapole moment (field-independent basis, Debye-Ang**3):
 XXXX= -5703.1843 YYYY=  -208.2758 ZZZZ=   -79.0767 XXXY=    -8.6566
 XXXZ=     4.6055 YYYX=    -0.4662 YYYZ=    -0.0007 ZZZX=     0.2545
 ZZZY=     0.0004 XXYY=  -612.2938 XXZZ=  -533.8938 YYZZ=   -45.6046
 XXYZ=     0.0085 YYXZ=     0.0699 ZZXY=    -0.1530
 N-N= 4.369346150202D+02 E-N=-5.431056076496D+03  KE= 1.917806689367D+03
 Merz-Kollman atomic radii used.
 Read replacement radii for each type of atom:
 Rad(20) =   1.188000000000D+00
 Atom Element Radius
    1     8    1.40
    2     8    1.40
    3     8    1.40
    4    15    1.80
    5    20    1.19
    6    20    1.19
    7     1    1.20

 **********************************************************************

            Electrostatic Properties Using The SCF Density

 **********************************************************************

       Atomic Center    1 is at  -2.432080 -1.245308 -0.000969
       Atomic Center    2 is at  -2.419999  1.249461 -0.000770
       Atomic Center    3 is at   1.725190 -0.008075  0.003517
       Atomic Center    4 is at  -3.335180  0.006343 -0.005042
       Atomic Center    5 is at  -0.390166 -0.007121  0.006502
       Atomic Center    6 is at   3.844000  0.003205 -0.002961
       Atomic Center    7 is at   5.966110  0.014555 -0.009414
     826 points will be used for fitting atomic charges
 Fitting point charges to eletrostatic potential
 Charges from ESP fit, RMS=   0.00717 RRMS=   0.15415:
 Charge=   0.00000 Dipole=    -0.8069    -0.0062     0.0327 Tot=     0.8076
              1
     1  O   -0.642123
     2  O   -0.638933
     3  O   -1.551728
     4  P    0.410501
     5  Ca   1.637684
     6  Ca   1.541780
     7  H   -0.757181
 -----------------------------------------------------------------

              Electrostatic Properties (Atomic Units)

 -----------------------------------------------------------------
    Center     Electric         -------- Electric Field --------
               Potential          X             Y             Z
 -----------------------------------------------------------------
    1 Atom    -22.332756
    2 Atom    -22.328406
    3 Atom    -22.449227
    4 Atom    -54.061400
    5 Atom    -80.204201
    6 Atom    -80.204531
    7 Atom     -1.208061
 -----------------------------------------------------------------
 1\1\GINC-N028\SP\RB3LYP\6-31G(d,p)\Ca2H1O3P1\TIMN\04-May-2015\0\\# b3l
 yp/6-31G(d,p) pop=(ReadRadii,MK)\\Ca2PO3_34\\0,1\O,0,-2.43208,-1.24531
 ,-0.000969\O,0,-2.42,1.24946,-0.00077\O,0,1.72519,-0.008076,0.003517\P
 ,0,-3.33518,0.006341,-0.005042\Ca,0,-0.390166,-0.007122,0.006502\Ca,0,
 3.844,0.003205,-0.002961\H,0,5.96611,0.014555,-0.009414\\Version=EM64T
 -G03RevE.01\State=1-A\HF=-1922.8698367\RMSD=3.948e-05\Thermal=0.\Dipol
 e=-0.5308995,-0.0036836,0.0119999\PG=C01 [X(Ca2H1O3P1)]\\@


 LEARN FROM YESTERDAY,
 LIVE FOR TODAY,
 LOOK TO TOMORROW,
 REST THIS AFTERNOON.

           -- SNOOPY
 Job cpu time:  0 days  0 hours  0 minutes 12.6 seconds.
 File lengths (MBytes):  RWF=     18 Int=      0 D2E=      0 Chk=     10 Scr=      1
 Normal termination of Gaussian 03 at Mon May  4 20:09:03 2015.
