 Entering Gaussian System, Link 0=/home/timn/tmp/g03.e01/g03
 Input=Ca2PO3_30.xyz.gjf
 Output=Ca2PO3_30.xyz.out
 Initial command:
 /home/timn/tmp/g03.e01/l1.exe /home/timn/tmp/g03.e01/Gau-10365.inp -scrdir=/home/timn/tmp/g03.e01/
 Default is to use a total of   2 processors:
                                2 via shared-memory
                                1 via Linda
 Entering Link 1 = /home/timn/tmp/g03.e01/l1.exe PID=     10366.
  
 Copyright (c) 1988,1990,1992,1993,1995,1998,2003,2004,2007, Gaussian, Inc.
                  All Rights Reserved.
  
 This is the Gaussian(R) 03 program.  It is based on the
 the Gaussian(R) 98 system (copyright 1998, Gaussian, Inc.),
 the Gaussian(R) 94 system (copyright 1995, Gaussian, Inc.),
 the Gaussian 92(TM) system (copyright 1992, Gaussian, Inc.),
 the Gaussian 90(TM) system (copyright 1990, Gaussian, Inc.),
 the Gaussian 88(TM) system (copyright 1988, Gaussian, Inc.),
 the Gaussian 86(TM) system (copyright 1986, Carnegie Mellon
 University), and the Gaussian 82(TM) system (copyright 1983,
 Carnegie Mellon University). Gaussian is a federally registered
 trademark of Gaussian, Inc.
  
 This software contains proprietary and confidential information,
 including trade secrets, belonging to Gaussian, Inc.
  
 This software is provided under written license and may be
 used, copied, transmitted, or stored only in accord with that
 written license.
  
 The following legend is applicable only to US Government
 contracts under FAR:
  
                    RESTRICTED RIGHTS LEGEND
  
 Use, reproduction and disclosure by the US Government is
 subject to restrictions as set forth in subparagraphs (a)
 and (c) of the Commercial Computer Software - Restricted
 Rights clause in FAR 52.227-19.
  
 Gaussian, Inc.
 340 Quinnipiac St., Bldg. 40, Wallingford CT 06492
  
  
 ---------------------------------------------------------------
 Warning -- This program may not be used in any manner that
 competes with the business of Gaussian, Inc. or will provide
 assistance to any competitor of Gaussian, Inc.  The licensee
 of this program is prohibited from giving any competitor of
 Gaussian, Inc. access to this program.  By using this program,
 the user acknowledges that Gaussian, Inc. is engaged in the
 business of creating and licensing software in the field of
 computational chemistry and represents and warrants to the
 licensee that it is not a competitor of Gaussian, Inc. and that
 it will not use this program in any manner prohibited above.
 ---------------------------------------------------------------
  

 Cite this work as:
 Gaussian 03, Revision E.01,
 M. J. Frisch, G. W. Trucks, H. B. Schlegel, G. E. Scuseria, 
 M. A. Robb, J. R. Cheeseman, J. A. Montgomery, Jr., T. Vreven, 
 K. N. Kudin, J. C. Burant, J. M. Millam, S. S. Iyengar, J. Tomasi, 
 V. Barone, B. Mennucci, M. Cossi, G. Scalmani, N. Rega, 
 G. A. Petersson, H. Nakatsuji, M. Hada, M. Ehara, K. Toyota, 
 R. Fukuda, J. Hasegawa, M. Ishida, T. Nakajima, Y. Honda, O. Kitao, 
 H. Nakai, M. Klene, X. Li, J. E. Knox, H. P. Hratchian, J. B. Cross, 
 V. Bakken, C. Adamo, J. Jaramillo, R. Gomperts, R. E. Stratmann, 
 O. Yazyev, A. J. Austin, R. Cammi, C. Pomelli, J. W. Ochterski, 
 P. Y. Ayala, K. Morokuma, G. A. Voth, P. Salvador, J. J. Dannenberg, 
 V. G. Zakrzewski, S. Dapprich, A. D. Daniels, M. C. Strain, 
 O. Farkas, D. K. Malick, A. D. Rabuck, K. Raghavachari, 
 J. B. Foresman, J. V. Ortiz, Q. Cui, A. G. Baboul, S. Clifford, 
 J. Cioslowski, B. B. Stefanov, G. Liu, A. Liashenko, P. Piskorz, 
 I. Komaromi, R. L. Martin, D. J. Fox, T. Keith, M. A. Al-Laham, 
 C. Y. Peng, A. Nanayakkara, M. Challacombe, P. M. W. Gill, 
 B. Johnson, W. Chen, M. W. Wong, C. Gonzalez, and J. A. Pople, 
 Gaussian, Inc., Wallingford CT, 2004.
 
 ******************************************
 Gaussian 03:  EM64T-G03RevE.01 11-Sep-2007
                 4-May-2015 
 ******************************************
 %nproc=2
 Will use up to    2 processors via shared memory.
 Default route:  MP2=Direct MaxDisk=2000MB
 -------------------------------------
 # b3lyp/6-31G(d,p) pop=(ReadRadii,MK)
 -------------------------------------
 1/38=1/1;
 2/17=6,18=5,40=1/2;
 3/5=1,6=6,7=101,11=2,16=1,25=1,30=1,74=-5/1,2,3;
 4//1;
 5/5=2,32=1,38=5/2;
 6/7=2,8=2,9=2,10=2,15=8,20=101,28=1/1,2;
 99/5=1,9=1/99;
 ---------
 Ca2PO3_30
 ---------
 Symbolic Z-matrix:
 Charge =  0 Multiplicity = 1
 O                    -1.52123   1.08412  -0.47882 
 O                     0.04626  -0.10291   1.05649 
 O                     1.15924   1.23614  -0.70589 
 P                    -0.29463   1.39366   0.45569 
 Ca                   -1.62381  -1.17536  -0.17816 
 Ca                    1.90903  -0.85777  -0.04909 
 H                     1.24112   2.01908  -1.26459 
 
                          Input orientation:                          
 ---------------------------------------------------------------------
 Center     Atomic     Atomic              Coordinates (Angstroms)
 Number     Number      Type              X           Y           Z
 ---------------------------------------------------------------------
    1          8             0       -1.521230    1.084120   -0.478819
    2          8             0        0.046256   -0.102913    1.056490
    3          8             0        1.159240    1.236140   -0.705891
    4         15             0       -0.294634    1.393660    0.455694
    5         20             0       -1.623810   -1.175360   -0.178163
    6         20             0        1.909030   -0.857771   -0.049092
    7          1             0        1.241120    2.019080   -1.264590
 ---------------------------------------------------------------------
                    Distance matrix (angstroms):
                    1          2          3          4          5
     1  O    0.000000
     2  O    2.494641   0.000000
     3  O    2.694363   2.477455   0.000000
     4  P    1.572790   1.648300   1.867576   0.000000
     5  Ca   2.281703   2.337441   3.720107   2.961140   0.000000
     6  Ca   3.965134   2.293916   2.319059   3.190593   3.549434
     7  H    3.020292   3.364219   0.965321   2.389366   4.426352
                    6          7
     6  Ca   0.000000
     7  H    3.193714   0.000000
 Stoichiometry    Ca2HO3P
 Framework group  C1[X(Ca2HO3P)]
 Deg. of freedom    15
 Full point group                 C1
 Largest Abelian subgroup         C1      NOp   1
 Largest concise Abelian subgroup C1      NOp   1
                         Standard orientation:                         
 ---------------------------------------------------------------------
 Center     Atomic     Atomic              Coordinates (Angstroms)
 Number     Number      Type              X           Y           Z
 ---------------------------------------------------------------------
    1          8             0       -1.521234    1.084115   -0.478819
    2          8             0        0.046255   -0.102915    1.056490
    3          8             0        1.159235    1.236141   -0.705891
    4         15             0       -0.294639    1.393658    0.455695
    5         20             0       -1.623809   -1.175366   -0.178163
    6         20             0        1.909030   -0.857768   -0.049092
    7          1             0        1.241113    2.019081   -1.264590
 ---------------------------------------------------------------------
 Rotational constants (GHZ):      2.1869291      1.4330310      0.9984955
 Standard basis: 6-31G(d,p) (6D, 7F)
 There are   115 symmetry adapted basis functions of A   symmetry.
 Integral buffers will be    131072 words long.
 Raffenetti 2 integral format.
 Two-electron integral symmetry is turned on.
   115 basis functions,   295 primitive gaussians,   115 cartesian basis functions
    40 alpha electrons       40 beta electrons
       nuclear repulsion energy       522.6574124340 Hartrees.
 NAtoms=    7 NActive=    7 NUniq=    7 SFac= 7.50D-01 NAtFMM=   80 NAOKFM=F Big=F
 One-electron integrals computed using PRISM.
 NBasis=   115 RedAO= T  NBF=   115
 NBsUse=   115 1.00D-06 NBFU=   115
 Harris functional with IExCor=  402 diagonalized for initial guess.
 ExpMin= 2.60D-02 ExpMax= 3.53D+04 ExpMxC= 5.30D+03 IAcc=3 IRadAn=         5 AccDes= 0.00D+00
 HarFok:  IExCor= 402 AccDes= 0.00D+00 IRadAn=         5 IDoV=1
 ScaDFX=  1.000000  1.000000  1.000000  1.000000
 Initial guess orbital symmetries:
       Occupied  (A) (A) (A) (A) (A) (A) (A) (A) (A) (A) (A) (A)
                 (A) (A) (A) (A) (A) (A) (A) (A) (A) (A) (A) (A)
                 (A) (A) (A) (A) (A) (A) (A) (A) (A) (A) (A) (A)
                 (A) (A) (A) (A)
       Virtual   (A) (A) (A) (A) (A) (A) (A) (A) (A) (A) (A) (A)
                 (A) (A) (A) (A) (A) (A) (A) (A) (A) (A) (A) (A)
                 (A) (A) (A) (A) (A) (A) (A) (A) (A) (A) (A) (A)
                 (A) (A) (A) (A) (A) (A) (A) (A) (A) (A) (A) (A)
                 (A) (A) (A) (A) (A) (A) (A) (A) (A) (A) (A) (A)
                 (A) (A) (A) (A) (A) (A) (A) (A) (A) (A) (A) (A)
                 (A) (A) (A)
 The electronic state of the initial guess is 1-A.
 Requested convergence on RMS density matrix=1.00D-04 within 128 cycles.
 Requested convergence on MAX density matrix=1.00D-02.
 Requested convergence on             energy=1.00D-02.
 No special actions if energy rises.
 Keep R1 integrals in memory in canonical form, NReq=    24133957.
 EnCoef did     1 forward-backward iterations
 EnCoef did     3 forward-backward iterations
 EnCoef did     6 forward-backward iterations
 EnCoef did     4 forward-backward iterations
 SCF Done:  E(RB+HF-LYP) =  -1922.88778912     A.U. after   11 cycles
             Convg  =    0.1944D-04             -V/T =  2.0027
             S**2   =   0.0000

 **********************************************************************

            Population analysis using the SCF density.

 **********************************************************************

 Orbital symmetries:
       Occupied  (A) (A) (A) (A) (A) (A) (A) (A) (A) (A) (A) (A)
                 (A) (A) (A) (A) (A) (A) (A) (A) (A) (A) (A) (A)
                 (A) (A) (A) (A) (A) (A) (A) (A) (A) (A) (A) (A)
                 (A) (A) (A) (A)
       Virtual   (A) (A) (A) (A) (A) (A) (A) (A) (A) (A) (A) (A)
                 (A) (A) (A) (A) (A) (A) (A) (A) (A) (A) (A) (A)
                 (A) (A) (A) (A) (A) (A) (A) (A) (A) (A) (A) (A)
                 (A) (A) (A) (A) (A) (A) (A) (A) (A) (A) (A) (A)
                 (A) (A) (A) (A) (A) (A) (A) (A) (A) (A) (A) (A)
                 (A) (A) (A) (A) (A) (A) (A) (A) (A) (A) (A) (A)
                 (A) (A) (A)
 The electronic state is 1-A.
 Alpha  occ. eigenvalues -- -145.37771-145.37769 -77.13312 -19.14551 -19.09564
 Alpha  occ. eigenvalues --  -19.08188 -15.44906 -15.44897 -12.58111 -12.58109
 Alpha  occ. eigenvalues --  -12.58053 -12.58046 -12.57974 -12.57957  -6.58615
 Alpha  occ. eigenvalues --   -4.75096  -4.74876  -4.74338  -1.82287  -1.82254
 Alpha  occ. eigenvalues --   -1.10293  -1.09910  -1.09851  -1.09759  -1.09562
 Alpha  occ. eigenvalues --   -1.09460  -0.98582  -0.93617  -0.89142  -0.53899
 Alpha  occ. eigenvalues --   -0.46536  -0.39593  -0.37434  -0.35885  -0.31420
 Alpha  occ. eigenvalues --   -0.30048  -0.26792  -0.25816  -0.21409  -0.13436
 Alpha virt. eigenvalues --   -0.08905  -0.03683  -0.02546  -0.00888  -0.00119
 Alpha virt. eigenvalues --    0.00831   0.02436   0.04901   0.05332   0.07931
 Alpha virt. eigenvalues --    0.09324   0.10709   0.11271   0.12928   0.13616
 Alpha virt. eigenvalues --    0.14255   0.15376   0.16924   0.18602   0.18782
 Alpha virt. eigenvalues --    0.20126   0.21389   0.22780   0.24018   0.30289
 Alpha virt. eigenvalues --    0.31212   0.32945   0.36062   0.37894   0.40031
 Alpha virt. eigenvalues --    0.40944   0.42151   0.46076   0.51912   0.54249
 Alpha virt. eigenvalues --    0.67537   0.71859   0.75941   0.84187   0.90626
 Alpha virt. eigenvalues --    0.94808   1.01017   1.03915   1.09127   1.10177
 Alpha virt. eigenvalues --    1.15942   1.18225   1.24442   1.25963   1.31659
 Alpha virt. eigenvalues --    1.42583   1.44923   1.59799   1.63974   1.73619
 Alpha virt. eigenvalues --    1.82029   1.84836   1.86907   1.88191   1.92997
 Alpha virt. eigenvalues --    1.96282   1.98286   2.07559   2.14459   2.20059
 Alpha virt. eigenvalues --    2.36882   2.59285   2.63837   2.66690   2.77148
 Alpha virt. eigenvalues --    3.38617   3.59252   3.76821   3.86289   4.08044
          Condensed to atoms (all electrons):
              1          2          3          4          5          6
     1  O    8.388201  -0.045786  -0.021974   0.270278   0.155278  -0.006329
     2  O   -0.045786   8.561423  -0.033335   0.164575   0.094768   0.095162
     3  O   -0.021974  -0.033335   8.400610   0.038592  -0.003033   0.081512
     4  P    0.270278   0.164575   0.038592  13.577793   0.005763   0.023737
     5  Ca   0.155278   0.094768  -0.003033   0.005763  19.026908   0.185136
     6  Ca  -0.006329   0.095162   0.081512   0.023737   0.185136  19.080961
     7  H   -0.000084   0.002010   0.278997   0.000607  -0.002398   0.000219
              7
     1  O   -0.000084
     2  O    0.002010
     3  O    0.278997
     4  P    0.000607
     5  Ca  -0.002398
     6  Ca   0.000219
     7  H    0.396714
 Mulliken atomic charges:
              1
     1  O   -0.739583
     2  O   -0.838817
     3  O   -0.741369
     4  P    0.918657
     5  Ca   0.537578
     6  Ca   0.539601
     7  H    0.323934
 Sum of Mulliken charges=   0.00000
 Atomic charges with hydrogens summed into heavy atoms:
              1
     1  O   -0.739583
     2  O   -0.838817
     3  O   -0.417435
     4  P    0.918657
     5  Ca   0.537578
     6  Ca   0.539601
     7  H    0.000000
 Sum of Mulliken charges=   0.00000
 Electronic spatial extent (au):  <R**2>=  1133.7862
 Charge=     0.0000 electrons
 Dipole moment (field-independent basis, Debye):
    X=     1.0203    Y=    -1.1454    Z=    -0.4294  Tot=     1.5929
 Quadrupole moment (field-independent basis, Debye-Ang):
   XX=   -55.2852   YY=   -77.5018   ZZ=   -70.5405
   XY=     9.3915   XZ=    -1.4607   YZ=    -3.9414
 Traceless Quadrupole moment (field-independent basis, Debye-Ang):
   XX=    12.4906   YY=    -9.7260   ZZ=    -2.7646
   XY=     9.3915   XZ=    -1.4607   YZ=    -3.9414
 Octapole moment (field-independent basis, Debye-Ang**2):
  XXX=   -12.3633  YYY=    80.2758  ZZZ=     2.8940  XYY=    -1.5268
  XXY=     5.9160  XXZ=    10.7886  XZZ=    -2.3021  YZZ=    20.7939
  YYZ=     0.6543  XYZ=    -6.9207
 Hexadecapole moment (field-independent basis, Debye-Ang**3):
 XXXX=  -956.3251 YYYY=  -866.5690 ZZZZ=  -255.1365 XXXY=    61.7069
 XXXZ=     2.7948 YYYX=    42.1424 YYYZ=   -65.0648 ZZZX=    -2.2128
 ZZZY=   -35.5512 XXYY=  -327.0584 XXZZ=  -202.2452 YYZZ=  -174.8123
 XXYZ=   -14.8310 YYXZ=   -10.8962 ZZXY=    14.5318
 N-N= 5.226574124340D+02 E-N=-5.600735350961D+03  KE= 1.917655182210D+03
 Merz-Kollman atomic radii used.
 Read replacement radii for each type of atom:
 Rad(20) =   1.188000000000D+00
 Atom Element Radius
    1     8    1.40
    2     8    1.40
    3     8    1.40
    4    15    1.80
    5    20    1.19
    6    20    1.19
    7     1    1.20

 **********************************************************************

            Electrostatic Properties Using The SCF Density

 **********************************************************************

       Atomic Center    1 is at  -1.521234  1.084115 -0.478819
       Atomic Center    2 is at   0.046255 -0.102915  1.056490
       Atomic Center    3 is at   1.159235  1.236141 -0.705891
       Atomic Center    4 is at  -0.294639  1.393658  0.455695
       Atomic Center    5 is at  -1.623809 -1.175366 -0.178163
       Atomic Center    6 is at   1.909030 -0.857768 -0.049092
       Atomic Center    7 is at   1.241113  2.019081 -1.264590
     624 points will be used for fitting atomic charges
 Fitting point charges to eletrostatic potential
 Charges from ESP fit, RMS=   0.03540 RRMS=   0.62497:
 Charge=   0.00000 Dipole=     2.0344    -7.9715    -2.2082 Tot=     8.5182
              1
     1  O   -0.460765
     2  O   -0.535849
     3  O   -0.092946
     4  P   -0.019750
     5  Ca   0.636762
     6  Ca   0.444417
     7  H    0.028131
 -----------------------------------------------------------------

              Electrostatic Properties (Atomic Units)

 -----------------------------------------------------------------
    Center     Electric         -------- Electric Field --------
               Potential          X             Y             Z
 -----------------------------------------------------------------
    1 Atom    -22.382582
    2 Atom    -22.368200
    3 Atom    -22.315397
    4 Atom    -54.082900
    5 Atom    -80.165963
    6 Atom    -80.166526
    7 Atom     -0.997784
 -----------------------------------------------------------------
 1\1\GINC-N032\SP\RB3LYP\6-31G(d,p)\Ca2H1O3P1\TIMN\04-May-2015\0\\# b3l
 yp/6-31G(d,p) pop=(ReadRadii,MK)\\Ca2PO3_30\\0,1\O,0,-1.52123,1.08412,
 -0.478819\O,0,0.046256,-0.102913,1.05649\O,0,1.15924,1.23614,-0.705891
 \P,0,-0.294634,1.39366,0.455694\Ca,0,-1.62381,-1.17536,-0.178163\Ca,0,
 1.90903,-0.857771,-0.049092\H,0,1.24112,2.01908,-1.26459\\Version=EM64
 T-G03RevE.01\State=1-A\HF=-1922.8877891\RMSD=1.944e-05\Thermal=0.\Dipo
 le=0.4014145,-0.450633,-0.168933\PG=C01 [X(Ca2H1O3P1)]\\@


 We find comfort among those who agree with us -- growth among those who don't.
 -- Frank A. Clark
 Job cpu time:  0 days  0 hours  0 minutes 17.5 seconds.
 File lengths (MBytes):  RWF=     18 Int=      0 D2E=      0 Chk=     10 Scr=      1
 Normal termination of Gaussian 03 at Mon May  4 20:09:05 2015.
