 Entering Gaussian System, Link 0=/home/timn/tmp/g03.e01/g03
 Input=Ca2PO3_23.xyz.gjf
 Output=Ca2PO3_23.xyz.out
 Initial command:
 /home/timn/tmp/g03.e01/l1.exe /home/timn/tmp/g03.e01/Gau-3645.inp -scrdir=/home/timn/tmp/g03.e01/
 Default is to use a total of   2 processors:
                                2 via shared-memory
                                1 via Linda
 Entering Link 1 = /home/timn/tmp/g03.e01/l1.exe PID=      3646.
  
 Copyright (c) 1988,1990,1992,1993,1995,1998,2003,2004,2007, Gaussian, Inc.
                  All Rights Reserved.
  
 This is the Gaussian(R) 03 program.  It is based on the
 the Gaussian(R) 98 system (copyright 1998, Gaussian, Inc.),
 the Gaussian(R) 94 system (copyright 1995, Gaussian, Inc.),
 the Gaussian 92(TM) system (copyright 1992, Gaussian, Inc.),
 the Gaussian 90(TM) system (copyright 1990, Gaussian, Inc.),
 the Gaussian 88(TM) system (copyright 1988, Gaussian, Inc.),
 the Gaussian 86(TM) system (copyright 1986, Carnegie Mellon
 University), and the Gaussian 82(TM) system (copyright 1983,
 Carnegie Mellon University). Gaussian is a federally registered
 trademark of Gaussian, Inc.
  
 This software contains proprietary and confidential information,
 including trade secrets, belonging to Gaussian, Inc.
  
 This software is provided under written license and may be
 used, copied, transmitted, or stored only in accord with that
 written license.
  
 The following legend is applicable only to US Government
 contracts under FAR:
  
                    RESTRICTED RIGHTS LEGEND
  
 Use, reproduction and disclosure by the US Government is
 subject to restrictions as set forth in subparagraphs (a)
 and (c) of the Commercial Computer Software - Restricted
 Rights clause in FAR 52.227-19.
  
 Gaussian, Inc.
 340 Quinnipiac St., Bldg. 40, Wallingford CT 06492
  
  
 ---------------------------------------------------------------
 Warning -- This program may not be used in any manner that
 competes with the business of Gaussian, Inc. or will provide
 assistance to any competitor of Gaussian, Inc.  The licensee
 of this program is prohibited from giving any competitor of
 Gaussian, Inc. access to this program.  By using this program,
 the user acknowledges that Gaussian, Inc. is engaged in the
 business of creating and licensing software in the field of
 computational chemistry and represents and warrants to the
 licensee that it is not a competitor of Gaussian, Inc. and that
 it will not use this program in any manner prohibited above.
 ---------------------------------------------------------------
  

 Cite this work as:
 Gaussian 03, Revision E.01,
 M. J. Frisch, G. W. Trucks, H. B. Schlegel, G. E. Scuseria, 
 M. A. Robb, J. R. Cheeseman, J. A. Montgomery, Jr., T. Vreven, 
 K. N. Kudin, J. C. Burant, J. M. Millam, S. S. Iyengar, J. Tomasi, 
 V. Barone, B. Mennucci, M. Cossi, G. Scalmani, N. Rega, 
 G. A. Petersson, H. Nakatsuji, M. Hada, M. Ehara, K. Toyota, 
 R. Fukuda, J. Hasegawa, M. Ishida, T. Nakajima, Y. Honda, O. Kitao, 
 H. Nakai, M. Klene, X. Li, J. E. Knox, H. P. Hratchian, J. B. Cross, 
 V. Bakken, C. Adamo, J. Jaramillo, R. Gomperts, R. E. Stratmann, 
 O. Yazyev, A. J. Austin, R. Cammi, C. Pomelli, J. W. Ochterski, 
 P. Y. Ayala, K. Morokuma, G. A. Voth, P. Salvador, J. J. Dannenberg, 
 V. G. Zakrzewski, S. Dapprich, A. D. Daniels, M. C. Strain, 
 O. Farkas, D. K. Malick, A. D. Rabuck, K. Raghavachari, 
 J. B. Foresman, J. V. Ortiz, Q. Cui, A. G. Baboul, S. Clifford, 
 J. Cioslowski, B. B. Stefanov, G. Liu, A. Liashenko, P. Piskorz, 
 I. Komaromi, R. L. Martin, D. J. Fox, T. Keith, M. A. Al-Laham, 
 C. Y. Peng, A. Nanayakkara, M. Challacombe, P. M. W. Gill, 
 B. Johnson, W. Chen, M. W. Wong, C. Gonzalez, and J. A. Pople, 
 Gaussian, Inc., Wallingford CT, 2004.
 
 ******************************************
 Gaussian 03:  EM64T-G03RevE.01 11-Sep-2007
                 4-May-2015 
 ******************************************
 %nproc=2
 Will use up to    2 processors via shared memory.
 Default route:  MP2=Direct MaxDisk=2000MB
 -------------------------------------
 # b3lyp/6-31G(d,p) pop=(ReadRadii,MK)
 -------------------------------------
 1/38=1/1;
 2/17=6,18=5,40=1/2;
 3/5=1,6=6,7=101,11=2,16=1,25=1,30=1,74=-5/1,2,3;
 4//1;
 5/5=2,32=1,38=5/2;
 6/7=2,8=2,9=2,10=2,15=8,20=101,28=1/1,2;
 99/5=1,9=1/99;
 ---------
 Ca2PO3_23
 ---------
 Symbolic Z-matrix:
 Charge =  0 Multiplicity = 1
 O                    -0.00266  -0.11361   1.18057 
 O                    -1.28772   1.18017  -0.6074 
 O                     1.32246   1.16304  -0.59598 
 P                     0.0159    1.44387   0.31721 
 Ca                    1.64427  -0.9441   -0.09353 
 Ca                   -1.66756  -0.91406  -0.09137 
 H                    -0.0294   -2.33171  -0.87753 
 
                          Input orientation:                          
 ---------------------------------------------------------------------
 Center     Atomic     Atomic              Coordinates (Angstroms)
 Number     Number      Type              X           Y           Z
 ---------------------------------------------------------------------
    1          8             0       -0.002660   -0.113610    1.180570
    2          8             0       -1.287720    1.180170   -0.607400
    3          8             0        1.322460    1.163040   -0.595977
    4         15             0        0.015899    1.443870    0.317210
    5         20             0        1.644270   -0.944096   -0.093532
    6         20             0       -1.667560   -0.914063   -0.091374
    7          1             0       -0.029400   -2.331710   -0.877531
 ---------------------------------------------------------------------
                    Distance matrix (angstroms):
                    1          2          3          4          5
     1  O    0.000000
     2  O    2.553837   0.000000
     3  O    2.557713   2.610261   0.000000
     4  P    1.780865   1.619835   1.618604   0.000000
     5  Ca   2.241745   3.656929   2.189985   2.919363   0.000000
     6  Ca   2.242868   2.190062   3.675486   2.925888   3.311967
     7  H    3.025965   3.740273   3.757669   3.960361   2.311125
                    6          7
     6  Ca   0.000000
     7  H    2.304633   0.000000
 Stoichiometry    Ca2HO3P
 Framework group  C1[X(Ca2HO3P)]
 Deg. of freedom    15
 Full point group                 C1
 Largest Abelian subgroup         C1      NOp   1
 Largest concise Abelian subgroup C1      NOp   1
                         Standard orientation:                         
 ---------------------------------------------------------------------
 Center     Atomic     Atomic              Coordinates (Angstroms)
 Number     Number      Type              X           Y           Z
 ---------------------------------------------------------------------
    1          8             0       -0.002660   -0.113609    1.180569
    2          8             0       -1.287714    1.180176   -0.607401
    3          8             0        1.322466    1.163035   -0.595978
    4         15             0        0.015906    1.443870    0.317209
    5         20             0        1.644267   -0.944103   -0.093533
    6         20             0       -1.667563   -0.914055   -0.091375
    7          1             0       -0.029410   -2.331709   -0.877532
 ---------------------------------------------------------------------
 Rotational constants (GHZ):      2.2812729      1.6192861      1.1063829
 Standard basis: 6-31G(d,p) (6D, 7F)
 There are   115 symmetry adapted basis functions of A   symmetry.
 Integral buffers will be    131072 words long.
 Raffenetti 2 integral format.
 Two-electron integral symmetry is turned on.
   115 basis functions,   295 primitive gaussians,   115 cartesian basis functions
    40 alpha electrons       40 beta electrons
       nuclear repulsion energy       539.9808072872 Hartrees.
 NAtoms=    7 NActive=    7 NUniq=    7 SFac= 7.50D-01 NAtFMM=   80 NAOKFM=F Big=F
 One-electron integrals computed using PRISM.
 NBasis=   115 RedAO= T  NBF=   115
 NBsUse=   115 1.00D-06 NBFU=   115
 Harris functional with IExCor=  402 diagonalized for initial guess.
 ExpMin= 2.60D-02 ExpMax= 3.53D+04 ExpMxC= 5.30D+03 IAcc=3 IRadAn=         5 AccDes= 0.00D+00
 HarFok:  IExCor= 402 AccDes= 0.00D+00 IRadAn=         5 IDoV=1
 ScaDFX=  1.000000  1.000000  1.000000  1.000000
 Initial guess orbital symmetries:
       Occupied  (A) (A) (A) (A) (A) (A) (A) (A) (A) (A) (A) (A)
                 (A) (A) (A) (A) (A) (A) (A) (A) (A) (A) (A) (A)
                 (A) (A) (A) (A) (A) (A) (A) (A) (A) (A) (A) (A)
                 (A) (A) (A) (A)
       Virtual   (A) (A) (A) (A) (A) (A) (A) (A) (A) (A) (A) (A)
                 (A) (A) (A) (A) (A) (A) (A) (A) (A) (A) (A) (A)
                 (A) (A) (A) (A) (A) (A) (A) (A) (A) (A) (A) (A)
                 (A) (A) (A) (A) (A) (A) (A) (A) (A) (A) (A) (A)
                 (A) (A) (A) (A) (A) (A) (A) (A) (A) (A) (A) (A)
                 (A) (A) (A) (A) (A) (A) (A) (A) (A) (A) (A) (A)
                 (A) (A) (A)
 The electronic state of the initial guess is 1-A.
 Requested convergence on RMS density matrix=1.00D-04 within 128 cycles.
 Requested convergence on MAX density matrix=1.00D-02.
 Requested convergence on             energy=1.00D-02.
 No special actions if energy rises.
 Keep R1 integrals in memory in canonical form, NReq=    24133950.
 SCF Done:  E(RB+HF-LYP) =  -1922.88577701     A.U. after    9 cycles
             Convg  =    0.5431D-04             -V/T =  2.0027
             S**2   =   0.0000

 **********************************************************************

            Population analysis using the SCF density.

 **********************************************************************

 Orbital symmetries:
       Occupied  (A) (A) (A) (A) (A) (A) (A) (A) (A) (A) (A) (A)
                 (A) (A) (A) (A) (A) (A) (A) (A) (A) (A) (A) (A)
                 (A) (A) (A) (A) (A) (A) (A) (A) (A) (A) (A) (A)
                 (A) (A) (A) (A)
       Virtual   (A) (A) (A) (A) (A) (A) (A) (A) (A) (A) (A) (A)
                 (A) (A) (A) (A) (A) (A) (A) (A) (A) (A) (A) (A)
                 (A) (A) (A) (A) (A) (A) (A) (A) (A) (A) (A) (A)
                 (A) (A) (A) (A) (A) (A) (A) (A) (A) (A) (A) (A)
                 (A) (A) (A) (A) (A) (A) (A) (A) (A) (A) (A) (A)
                 (A) (A) (A) (A) (A) (A) (A) (A) (A) (A) (A) (A)
                 (A) (A) (A)
 The electronic state is 1-A.
 Alpha  occ. eigenvalues -- -145.36210-145.36196 -77.08208 -19.05327 -19.04008
 Alpha  occ. eigenvalues --  -19.03758 -15.43312 -15.43298 -12.56519 -12.56504
 Alpha  occ. eigenvalues --  -12.56457 -12.56443 -12.56389 -12.56376  -6.53349
 Alpha  occ. eigenvalues --   -4.69763  -4.69641  -4.69189  -1.80841  -1.80774
 Alpha  occ. eigenvalues --   -1.09166  -1.08439  -1.08422  -1.08111  -1.08063
 Alpha  occ. eigenvalues --   -1.07854  -0.89974  -0.83825  -0.83109  -0.45446
 Alpha  occ. eigenvalues --   -0.33688  -0.32981  -0.31401  -0.27126  -0.26388
 Alpha  occ. eigenvalues --   -0.24003  -0.21656  -0.21493  -0.20124  -0.14343
 Alpha virt. eigenvalues --   -0.08018  -0.06877  -0.00882   0.00161   0.00899
 Alpha virt. eigenvalues --    0.01048   0.04218   0.05144   0.06569   0.09065
 Alpha virt. eigenvalues --    0.12429   0.12780   0.13994   0.14295   0.15127
 Alpha virt. eigenvalues --    0.17112   0.17603   0.18822   0.20111   0.20515
 Alpha virt. eigenvalues --    0.23870   0.25806   0.27362   0.29663   0.35541
 Alpha virt. eigenvalues --    0.35867   0.39930   0.41748   0.42634   0.43275
 Alpha virt. eigenvalues --    0.44823   0.45625   0.49997   0.57467   0.59764
 Alpha virt. eigenvalues --    0.78702   0.79308   0.81120   0.96184   0.99537
 Alpha virt. eigenvalues --    0.99683   1.05921   1.10310   1.14532   1.15925
 Alpha virt. eigenvalues --    1.18199   1.23202   1.25729   1.28432   1.29781
 Alpha virt. eigenvalues --    1.48903   1.51300   1.72560   1.88327   1.88593
 Alpha virt. eigenvalues --    1.91219   1.91375   1.93132   1.93250   1.97623
 Alpha virt. eigenvalues --    1.98231   2.02341   2.10694   2.12039   2.14145
 Alpha virt. eigenvalues --    2.20657   2.23280   2.26447   2.42233   2.68616
 Alpha virt. eigenvalues --    2.78709   3.65538   3.81720   3.82115   4.04480
          Condensed to atoms (all electrons):
              1          2          3          4          5          6
     1  O    8.576587  -0.038695  -0.038014   0.094286   0.140558   0.140625
     2  O   -0.038695   8.446096  -0.028589   0.198568  -0.009110   0.202956
     3  O   -0.038014  -0.028589   8.450994   0.197277   0.201773  -0.009703
     4  P    0.094286   0.198568   0.197277  13.526288   0.028938   0.028271
     5  Ca   0.140558  -0.009110   0.201773   0.028938  18.619713  -0.071257
     6  Ca   0.140625   0.202956  -0.009703   0.028271  -0.071257  18.618526
     7  H   -0.008768  -0.001178  -0.001097   0.003327   0.131265   0.132743
              7
     1  O   -0.008768
     2  O   -0.001178
     3  O   -0.001097
     4  P    0.003327
     5  Ca   0.131265
     6  Ca   0.132743
     7  H    1.173446
 Mulliken atomic charges:
              1
     1  O   -0.866578
     2  O   -0.770048
     3  O   -0.772642
     4  P    0.923046
     5  Ca   0.958120
     6  Ca   0.957839
     7  H   -0.429738
 Sum of Mulliken charges=   0.00000
 Atomic charges with hydrogens summed into heavy atoms:
              1
     1  O   -0.866578
     2  O   -0.770048
     3  O   -0.772642
     4  P    0.923046
     5  Ca   0.958120
     6  Ca   0.528101
     7  H    0.000000
 Sum of Mulliken charges=   0.00000
 Electronic spatial extent (au):  <R**2>=  1018.2908
 Charge=     0.0000 electrons
 Dipole moment (field-independent basis, Debye):
    X=    -0.1560    Y=   -10.1299    Z=     0.8039  Tot=    10.1629
 Quadrupole moment (field-independent basis, Debye-Ang):
   XX=   -30.9062   YY=   -70.5211   ZZ=   -68.2463
   XY=    -0.4580   XZ=    -0.0579   YZ=    -0.5834
 Traceless Quadrupole moment (field-independent basis, Debye-Ang):
   XX=    25.6517   YY=   -13.9632   ZZ=   -11.6885
   XY=    -0.4580   XZ=    -0.0579   YZ=    -0.5834
 Octapole moment (field-independent basis, Debye-Ang**2):
  XXX=    -2.4452  YYY=     1.2911  ZZZ=    -3.9699  XYY=     1.0978
  XXY=   -60.1362  XXZ=     5.8047  XZZ=     0.0269  YZZ=    -3.7837
  YYZ=    13.8186  XYZ=     0.1378
 Hexadecapole moment (field-independent basis, Debye-Ang**3):
 XXXX=  -459.3282 YYYY=  -651.2435 ZZZZ=  -204.5268 XXXY=    -1.2148
 XXXZ=     0.2006 YYYX=    -2.7587 YYYZ=   -47.5427 ZZZX=    -0.2814
 ZZZY=   -13.6719 XXYY=  -165.5184 XXZZ=  -127.5548 YYZZ=  -141.5816
 XXYZ=     8.4504 YYXZ=    -0.7309 ZZXY=    -0.4268
 N-N= 5.399808072872D+02 E-N=-5.638575846471D+03  KE= 1.917643619820D+03
 Merz-Kollman atomic radii used.
 Read replacement radii for each type of atom:
 Rad(20) =   1.188000000000D+00
 Atom Element Radius
    1     8    1.40
    2     8    1.40
    3     8    1.40
    4    15    1.80
    5    20    1.19
    6    20    1.19
    7     1    1.20

 **********************************************************************

            Electrostatic Properties Using The SCF Density

 **********************************************************************

       Atomic Center    1 is at  -0.002660 -0.113609  1.180569
       Atomic Center    2 is at  -1.287714  1.180176 -0.607401
       Atomic Center    3 is at   1.322466  1.163035 -0.595978
       Atomic Center    4 is at   0.015906  1.443870  0.317209
       Atomic Center    5 is at   1.644267 -0.944103 -0.093533
       Atomic Center    6 is at  -1.667563 -0.914055 -0.091375
       Atomic Center    7 is at  -0.029410 -2.331709 -0.877532
     652 points will be used for fitting atomic charges
 Fitting point charges to eletrostatic potential
 Charges from ESP fit, RMS=   0.00730 RRMS=   0.10010:
 Charge=   0.00000 Dipole=    -0.1585   -10.5149     0.8851 Tot=    10.5532
              1
     1  O   -1.016934
     2  O   -0.741697
     3  O   -0.741368
     4  P    0.281976
     5  Ca   1.495469
     6  Ca   1.497141
     7  H   -0.774586
 -----------------------------------------------------------------

              Electrostatic Properties (Atomic Units)

 -----------------------------------------------------------------
    Center     Electric         -------- Electric Field --------
               Potential          X             Y             Z
 -----------------------------------------------------------------
    1 Atom    -22.412079
    2 Atom    -22.426219
    3 Atom    -22.431252
    4 Atom    -54.134815
    5 Atom    -80.180960
    6 Atom    -80.180824
    7 Atom     -1.199928
 -----------------------------------------------------------------
 1\1\GINC-N030\SP\RB3LYP\6-31G(d,p)\Ca2H1O3P1\TIMN\04-May-2015\0\\# b3l
 yp/6-31G(d,p) pop=(ReadRadii,MK)\\Ca2PO3_23\\0,1\O,0,-0.00266,-0.11361
 ,1.18057\O,0,-1.28772,1.18017,-0.6074\O,0,1.32246,1.16304,-0.595977\P,
 0,0.015899,1.44387,0.31721\Ca,0,1.64427,-0.944096,-0.093532\Ca,0,-1.66
 756,-0.914063,-0.091374\H,0,-0.0294,-2.33171,-0.877531\\Version=EM64T-
 G03RevE.01\State=1-A\HF=-1922.885777\RMSD=5.431e-05\Thermal=0.\Dipole=
 -0.0613675,-3.985407,0.3162753\PG=C01 [X(Ca2H1O3P1)]\\@


 ONLY A FOOL KNOWS EVERYTHING.

               -- THE CHEMIST ANALYST, SEPTEMBER 1946
 Job cpu time:  0 days  0 hours  0 minutes 15.9 seconds.
 File lengths (MBytes):  RWF=     18 Int=      0 D2E=      0 Chk=     10 Scr=      1
 Normal termination of Gaussian 03 at Mon May  4 20:09:02 2015.
