 Entering Gaussian System, Link 0=/home/timn/tmp/g03.e01/g03
 Input=Ca2PO3_8.xyz.gjf
 Output=Ca2PO3_8.xyz.out
 Initial command:
 /home/timn/tmp/g03.e01/l1.exe /home/timn/tmp/g03.e01/Gau-20498.inp -scrdir=/home/timn/tmp/g03.e01/
 Default is to use a total of   2 processors:
                                2 via shared-memory
                                1 via Linda
 Entering Link 1 = /home/timn/tmp/g03.e01/l1.exe PID=     20499.
  
 Copyright (c) 1988,1990,1992,1993,1995,1998,2003,2004,2007, Gaussian, Inc.
                  All Rights Reserved.
  
 This is the Gaussian(R) 03 program.  It is based on the
 the Gaussian(R) 98 system (copyright 1998, Gaussian, Inc.),
 the Gaussian(R) 94 system (copyright 1995, Gaussian, Inc.),
 the Gaussian 92(TM) system (copyright 1992, Gaussian, Inc.),
 the Gaussian 90(TM) system (copyright 1990, Gaussian, Inc.),
 the Gaussian 88(TM) system (copyright 1988, Gaussian, Inc.),
 the Gaussian 86(TM) system (copyright 1986, Carnegie Mellon
 University), and the Gaussian 82(TM) system (copyright 1983,
 Carnegie Mellon University). Gaussian is a federally registered
 trademark of Gaussian, Inc.
  
 This software contains proprietary and confidential information,
 including trade secrets, belonging to Gaussian, Inc.
  
 This software is provided under written license and may be
 used, copied, transmitted, or stored only in accord with that
 written license.
  
 The following legend is applicable only to US Government
 contracts under FAR:
  
                    RESTRICTED RIGHTS LEGEND
  
 Use, reproduction and disclosure by the US Government is
 subject to restrictions as set forth in subparagraphs (a)
 and (c) of the Commercial Computer Software - Restricted
 Rights clause in FAR 52.227-19.
  
 Gaussian, Inc.
 340 Quinnipiac St., Bldg. 40, Wallingford CT 06492
  
  
 ---------------------------------------------------------------
 Warning -- This program may not be used in any manner that
 competes with the business of Gaussian, Inc. or will provide
 assistance to any competitor of Gaussian, Inc.  The licensee
 of this program is prohibited from giving any competitor of
 Gaussian, Inc. access to this program.  By using this program,
 the user acknowledges that Gaussian, Inc. is engaged in the
 business of creating and licensing software in the field of
 computational chemistry and represents and warrants to the
 licensee that it is not a competitor of Gaussian, Inc. and that
 it will not use this program in any manner prohibited above.
 ---------------------------------------------------------------
  

 Cite this work as:
 Gaussian 03, Revision E.01,
 M. J. Frisch, G. W. Trucks, H. B. Schlegel, G. E. Scuseria, 
 M. A. Robb, J. R. Cheeseman, J. A. Montgomery, Jr., T. Vreven, 
 K. N. Kudin, J. C. Burant, J. M. Millam, S. S. Iyengar, J. Tomasi, 
 V. Barone, B. Mennucci, M. Cossi, G. Scalmani, N. Rega, 
 G. A. Petersson, H. Nakatsuji, M. Hada, M. Ehara, K. Toyota, 
 R. Fukuda, J. Hasegawa, M. Ishida, T. Nakajima, Y. Honda, O. Kitao, 
 H. Nakai, M. Klene, X. Li, J. E. Knox, H. P. Hratchian, J. B. Cross, 
 V. Bakken, C. Adamo, J. Jaramillo, R. Gomperts, R. E. Stratmann, 
 O. Yazyev, A. J. Austin, R. Cammi, C. Pomelli, J. W. Ochterski, 
 P. Y. Ayala, K. Morokuma, G. A. Voth, P. Salvador, J. J. Dannenberg, 
 V. G. Zakrzewski, S. Dapprich, A. D. Daniels, M. C. Strain, 
 O. Farkas, D. K. Malick, A. D. Rabuck, K. Raghavachari, 
 J. B. Foresman, J. V. Ortiz, Q. Cui, A. G. Baboul, S. Clifford, 
 J. Cioslowski, B. B. Stefanov, G. Liu, A. Liashenko, P. Piskorz, 
 I. Komaromi, R. L. Martin, D. J. Fox, T. Keith, M. A. Al-Laham, 
 C. Y. Peng, A. Nanayakkara, M. Challacombe, P. M. W. Gill, 
 B. Johnson, W. Chen, M. W. Wong, C. Gonzalez, and J. A. Pople, 
 Gaussian, Inc., Wallingford CT, 2004.
 
 ******************************************
 Gaussian 03:  EM64T-G03RevE.01 11-Sep-2007
                 4-May-2015 
 ******************************************
 %nproc=2
 Will use up to    2 processors via shared memory.
 Default route:  MP2=Direct MaxDisk=2000MB
 -------------------------------------
 # b3lyp/6-31G(d,p) pop=(ReadRadii,MK)
 -------------------------------------
 1/38=1/1;
 2/17=6,18=5,40=1/2;
 3/5=1,6=6,7=101,11=2,16=1,25=1,30=1,74=-5/1,2,3;
 4//1;
 5/5=2,32=1,38=5/2;
 6/7=2,8=2,9=2,10=2,15=8,20=101,28=1/1,2;
 99/5=1,9=1/99;
 --------
 Ca2PO3_8
 --------
 Symbolic Z-matrix:
 Charge =  0 Multiplicity = 1
 O                     1.94027  -0.98933  -0.00088 
 O                    -0.15446  -0.15535   1.21002 
 O                    -0.1543   -0.15158  -1.20928 
 P                     0.37269  -1.2079   -0.00107 
 Ca                    1.41451   1.19461   0.00068 
 Ca                   -2.14689   0.17034   0.00047 
 H                    -3.99485   1.18944  -0.00573 
 
                          Input orientation:                          
 ---------------------------------------------------------------------
 Center     Atomic     Atomic              Coordinates (Angstroms)
 Number     Number      Type              X           Y           Z
 ---------------------------------------------------------------------
    1          8             0        1.940270   -0.989327   -0.000883
    2          8             0       -0.154461   -0.155354    1.210020
    3          8             0       -0.154301   -0.151581   -1.209280
    4         15             0        0.372693   -1.207900   -0.001071
    5         20             0        1.414510    1.194610    0.000680
    6         20             0       -2.146890    0.170343    0.000465
    7          1             0       -3.994850    1.189440   -0.005732
 ---------------------------------------------------------------------
                    Distance matrix (angstroms):
                    1          2          3          4          5
     1  O    0.000000
     2  O    2.559237   0.000000
     3  O    2.559154   2.419303   0.000000
     4  P    1.582742   1.688930   1.689172   0.000000
     5  Ca   2.246332   2.397202   2.395287   2.618671   0.000000
     6  Ca   4.248495   2.353481   2.353195   2.871908   3.705765
     7  H    6.322397   4.246777   4.242250   4.982238   5.409366
                    6          7
     6  Ca   0.000000
     7  H    2.110344   0.000000
 Stoichiometry    Ca2HO3P
 Framework group  C1[X(Ca2HO3P)]
 Deg. of freedom    15
 Full point group                 C1
 Largest Abelian subgroup         C1      NOp   1
 Largest concise Abelian subgroup C1      NOp   1
                         Standard orientation:                         
 ---------------------------------------------------------------------
 Center     Atomic     Atomic              Coordinates (Angstroms)
 Number     Number      Type              X           Y           Z
 ---------------------------------------------------------------------
    1          8             0        1.940271   -0.989325   -0.000882
    2          8             0       -0.154461   -0.155353    1.210021
    3          8             0       -0.154301   -0.151580   -1.209279
    4         15             0        0.372694   -1.207899   -0.001070
    5         20             0        1.414509    1.194612    0.000681
    6         20             0       -2.146890    0.170343    0.000466
    7          1             0       -3.994851    1.189439   -0.005731
 ---------------------------------------------------------------------
 Rotational constants (GHZ):      3.0098777      1.2882822      1.0831626
 Standard basis: 6-31G(d,p) (6D, 7F)
 There are   115 symmetry adapted basis functions of A   symmetry.
 Integral buffers will be    131072 words long.
 Raffenetti 2 integral format.
 Two-electron integral symmetry is turned on.
   115 basis functions,   295 primitive gaussians,   115 cartesian basis functions
    40 alpha electrons       40 beta electrons
       nuclear repulsion energy       540.2730264015 Hartrees.
 NAtoms=    7 NActive=    7 NUniq=    7 SFac= 7.50D-01 NAtFMM=   80 NAOKFM=F Big=F
 One-electron integrals computed using PRISM.
 NBasis=   115 RedAO= T  NBF=   115
 NBsUse=   115 1.00D-06 NBFU=   115
 Harris functional with IExCor=  402 diagonalized for initial guess.
 ExpMin= 2.60D-02 ExpMax= 3.53D+04 ExpMxC= 5.30D+03 IAcc=3 IRadAn=         5 AccDes= 0.00D+00
 HarFok:  IExCor= 402 AccDes= 0.00D+00 IRadAn=         5 IDoV=1
 ScaDFX=  1.000000  1.000000  1.000000  1.000000
 Initial guess orbital symmetries:
       Occupied  (A) (A) (A) (A) (A) (A) (A) (A) (A) (A) (A) (A)
                 (A) (A) (A) (A) (A) (A) (A) (A) (A) (A) (A) (A)
                 (A) (A) (A) (A) (A) (A) (A) (A) (A) (A) (A) (A)
                 (A) (A) (A) (A)
       Virtual   (A) (A) (A) (A) (A) (A) (A) (A) (A) (A) (A) (A)
                 (A) (A) (A) (A) (A) (A) (A) (A) (A) (A) (A) (A)
                 (A) (A) (A) (A) (A) (A) (A) (A) (A) (A) (A) (A)
                 (A) (A) (A) (A) (A) (A) (A) (A) (A) (A) (A) (A)
                 (A) (A) (A) (A) (A) (A) (A) (A) (A) (A) (A) (A)
                 (A) (A) (A) (A) (A) (A) (A) (A) (A) (A) (A) (A)
                 (A) (A) (A)
 The electronic state of the initial guess is 1-A.
 Requested convergence on RMS density matrix=1.00D-04 within 128 cycles.
 Requested convergence on MAX density matrix=1.00D-02.
 Requested convergence on             energy=1.00D-02.
 No special actions if energy rises.
 Keep R1 integrals in memory in canonical form, NReq=    24133811.
 SCF Done:  E(RB+HF-LYP) =  -1922.87975336     A.U. after    8 cycles
             Convg  =    0.7693D-04             -V/T =  2.0027
             S**2   =   0.0000

 **********************************************************************

            Population analysis using the SCF density.

 **********************************************************************

 Orbital symmetries:
       Occupied  (A) (A) (A) (A) (A) (A) (A) (A) (A) (A) (A) (A)
                 (A) (A) (A) (A) (A) (A) (A) (A) (A) (A) (A) (A)
                 (A) (A) (A) (A) (A) (A) (A) (A) (A) (A) (A) (A)
                 (A) (A) (A) (A)
       Virtual   (A) (A) (A) (A) (A) (A) (A) (A) (A) (A) (A) (A)
                 (A) (A) (A) (A) (A) (A) (A) (A) (A) (A) (A) (A)
                 (A) (A) (A) (A) (A) (A) (A) (A) (A) (A) (A) (A)
                 (A) (A) (A) (A) (A) (A) (A) (A) (A) (A) (A) (A)
                 (A) (A) (A) (A) (A) (A) (A) (A) (A) (A) (A) (A)
                 (A) (A) (A) (A) (A) (A) (A) (A) (A) (A) (A) (A)
                 (A) (A) (A)
 The electronic state is 1-A.
 Alpha  occ. eigenvalues -- -145.40618-145.35199 -77.12552 -19.08941 -19.08931
 Alpha  occ. eigenvalues --  -19.08289 -15.47624 -15.42466 -12.60782 -12.60782
 Alpha  occ. eigenvalues --  -12.60764 -12.55716 -12.55636 -12.55438  -6.57956
 Alpha  occ. eigenvalues --   -4.74289  -4.74255  -4.73877  -1.84911  -1.80119
 Alpha  occ. eigenvalues --   -1.12969  -1.12241  -1.12197  -1.08229  -1.07738
 Alpha  occ. eigenvalues --   -1.07163  -0.94989  -0.88593  -0.87034  -0.49592
 Alpha  occ. eigenvalues --   -0.37167  -0.36903  -0.36588  -0.30972  -0.29516
 Alpha  occ. eigenvalues --   -0.26400  -0.24809  -0.22835  -0.20950  -0.19937
 Alpha virt. eigenvalues --   -0.10855  -0.03557  -0.02217  -0.01994   0.00528
 Alpha virt. eigenvalues --    0.01120   0.02680   0.05144   0.06515   0.08345
 Alpha virt. eigenvalues --    0.09366   0.09538   0.11221   0.11394   0.13399
 Alpha virt. eigenvalues --    0.15436   0.16748   0.18817   0.19945   0.21690
 Alpha virt. eigenvalues --    0.21902   0.25772   0.26610   0.27946   0.29934
 Alpha virt. eigenvalues --    0.34301   0.35093   0.36641   0.38526   0.39873
 Alpha virt. eigenvalues --    0.41846   0.45740   0.46328   0.52832   0.54944
 Alpha virt. eigenvalues --    0.69663   0.79240   0.85607   0.92488   0.92796
 Alpha virt. eigenvalues --    1.02301   1.03970   1.04523   1.11243   1.13903
 Alpha virt. eigenvalues --    1.14767   1.19607   1.20565   1.24015   1.32434
 Alpha virt. eigenvalues --    1.40275   1.48173   1.74641   1.81857   1.86667
 Alpha virt. eigenvalues --    1.87525   1.88600   1.89557   1.91508   1.91751
 Alpha virt. eigenvalues --    1.94777   1.99115   2.04432   2.11770   2.15310
 Alpha virt. eigenvalues --    2.15687   2.18904   2.37571   2.48042   2.61725
 Alpha virt. eigenvalues --    2.76036   3.60024   3.76477   3.80855   4.10199
          Condensed to atoms (all electrons):
              1          2          3          4          5          6
     1  O    8.328657  -0.038478  -0.038487   0.290165   0.175278  -0.004510
     2  O   -0.038478   8.529945  -0.060680   0.129569   0.127550   0.119310
     3  O   -0.038487  -0.060680   8.530498   0.129443   0.127631   0.119240
     4  P    0.290165   0.129569   0.129443  13.498582  -0.042366   0.029580
     5  Ca   0.175278   0.127550   0.127631  -0.042366  18.731626   0.006315
     6  Ca  -0.004510   0.119310   0.119240   0.029580   0.006315  18.609399
     7  H    0.000000  -0.000201  -0.000203  -0.000012   0.002842   0.332278
              7
     1  O    0.000000
     2  O   -0.000201
     3  O   -0.000203
     4  P   -0.000012
     5  Ca   0.002842
     6  Ca   0.332278
     7  H    0.962769
 Mulliken atomic charges:
              1
     1  O   -0.712625
     2  O   -0.807013
     3  O   -0.807442
     4  P    0.965040
     5  Ca   0.871125
     6  Ca   0.788388
     7  H   -0.297473
 Sum of Mulliken charges=   0.00000
 Atomic charges with hydrogens summed into heavy atoms:
              1
     1  O   -0.712625
     2  O   -0.807013
     3  O   -0.807442
     4  P    0.965040
     5  Ca   0.871125
     6  Ca   0.490916
     7  H    0.000000
 Sum of Mulliken charges=   0.00000
 Electronic spatial extent (au):  <R**2>=  1095.8126
 Charge=     0.0000 electrons
 Dipole moment (field-independent basis, Debye):
    X=     4.3772    Y=     6.1326    Z=     0.0231  Tot=     7.5345
 Quadrupole moment (field-independent basis, Debye-Ang):
   XX=   -77.3149   YY=   -55.9524   ZZ=   -68.8370
   XY=    27.2400   XZ=    -0.0626   YZ=     0.0344
 Traceless Quadrupole moment (field-independent basis, Debye-Ang):
   XX=    -9.9468   YY=    11.4157   ZZ=    -1.4689
   XY=    27.2400   XZ=    -0.0626   YZ=     0.0344
 Octapole moment (field-independent basis, Debye-Ang**2):
  XXX=   145.3448  YYY=    17.4981  ZZZ=     0.0370  XYY=    31.6388
  XXY=   -22.1116  XXZ=     0.2844  XZZ=     9.1996  YZZ=     2.3985
  YYZ=     0.0434  XYZ=    -0.0695
 Hexadecapole moment (field-independent basis, Debye-Ang**3):
 XXXX= -1620.7911 YYYY=  -381.5557 ZZZZ=  -220.6161 XXXY=   294.4670
 XXXZ=    -1.0516 YYYX=    81.1842 YYYZ=     0.0341 ZZZX=    -0.1776
 ZZZY=     0.0748 XXYY=  -273.6102 XXZZ=  -201.8061 YYZZ=   -94.5697
 XXYZ=     0.2483 YYXZ=    -0.1152 ZZXY=    16.4479
 N-N= 5.402730264015D+02 E-N=-5.636728807831D+03  KE= 1.917623729841D+03
 Merz-Kollman atomic radii used.
 Read replacement radii for each type of atom:
 Rad(20) =   1.188000000000D+00
 Atom Element Radius
    1     8    1.40
    2     8    1.40
    3     8    1.40
    4    15    1.80
    5    20    1.19
    6    20    1.19
    7     1    1.20

 **********************************************************************

            Electrostatic Properties Using The SCF Density

 **********************************************************************

       Atomic Center    1 is at   1.940271 -0.989325 -0.000882
       Atomic Center    2 is at  -0.154461 -0.155353  1.210021
       Atomic Center    3 is at  -0.154301 -0.151580 -1.209279
       Atomic Center    4 is at   0.372694 -1.207899 -0.001070
       Atomic Center    5 is at   1.414509  1.194612  0.000681
       Atomic Center    6 is at  -2.146890  0.170343  0.000466
       Atomic Center    7 is at  -3.994851  1.189439 -0.005731
     712 points will be used for fitting atomic charges
 Fitting point charges to eletrostatic potential
 Charges from ESP fit, RMS=   0.00925 RRMS=   0.13658:
 Charge=   0.00000 Dipole=     4.5491     6.7956     0.0265 Tot=     8.1777
              1
     1  O   -0.591841
     2  O   -0.905217
     3  O   -0.905352
     4  P    0.337015
     5  Ca   1.333255
     6  Ca   1.476861
     7  H   -0.744722
 -----------------------------------------------------------------

              Electrostatic Properties (Atomic Units)

 -----------------------------------------------------------------
    Center     Electric         -------- Electric Field --------
               Potential          X             Y             Z
 -----------------------------------------------------------------
    1 Atom    -22.383448
    2 Atom    -22.375679
    3 Atom    -22.375970
    4 Atom    -54.088091
    5 Atom    -80.136986
    6 Atom    -80.191114
    7 Atom     -1.218607
 -----------------------------------------------------------------
 1\1\GINC-N036\SP\RB3LYP\6-31G(d,p)\Ca2H1O3P1\TIMN\04-May-2015\0\\# b3l
 yp/6-31G(d,p) pop=(ReadRadii,MK)\\Ca2PO3_8\\0,1\O,0,1.94027,-0.989327,
 -0.000883\O,0,-0.154461,-0.155354,1.21002\O,0,-0.154301,-0.151581,-1.2
 0928\P,0,0.372693,-1.2079,-0.001071\Ca,0,1.41451,1.19461,0.00068\Ca,0,
 -2.14689,0.170343,0.000465\H,0,-3.99485,1.18944,-0.005732\\Version=EM6
 4T-G03RevE.01\State=1-A\HF=-1922.8797534\RMSD=7.693e-05\Thermal=0.\Dip
 ole=1.7221254,2.4127428,0.0090963\PG=C01 [X(Ca2H1O3P1)]\\@


 READER, WHETHER YOU BE DILETTANTE OR PROFESSOR ... SHOW YOURSELF TO BE
 MORE HUMAN THAN CRITICAL, AND THEN YOUR PLEASURE WILL INCREASE.
                                           -- DOMENICO SCARLATTI (1738)
 Job cpu time:  0 days  0 hours  0 minutes 14.1 seconds.
 File lengths (MBytes):  RWF=     18 Int=      0 D2E=      0 Chk=     10 Scr=      1
 Normal termination of Gaussian 03 at Mon May  4 20:09:09 2015.
