 Entering Gaussian System, Link 0=/home/timn/tmp/g03.e01/g03
 Input=Ca2PO3_22.xyz.gjf
 Output=Ca2PO3_22.xyz.out
 Initial command:
 /home/timn/tmp/g03.e01/l1.exe /home/timn/tmp/g03.e01/Gau-20412.inp -scrdir=/home/timn/tmp/g03.e01/
 Default is to use a total of   2 processors:
                                2 via shared-memory
                                1 via Linda
 Entering Link 1 = /home/timn/tmp/g03.e01/l1.exe PID=     20413.
  
 Copyright (c) 1988,1990,1992,1993,1995,1998,2003,2004,2007, Gaussian, Inc.
                  All Rights Reserved.
  
 This is the Gaussian(R) 03 program.  It is based on the
 the Gaussian(R) 98 system (copyright 1998, Gaussian, Inc.),
 the Gaussian(R) 94 system (copyright 1995, Gaussian, Inc.),
 the Gaussian 92(TM) system (copyright 1992, Gaussian, Inc.),
 the Gaussian 90(TM) system (copyright 1990, Gaussian, Inc.),
 the Gaussian 88(TM) system (copyright 1988, Gaussian, Inc.),
 the Gaussian 86(TM) system (copyright 1986, Carnegie Mellon
 University), and the Gaussian 82(TM) system (copyright 1983,
 Carnegie Mellon University). Gaussian is a federally registered
 trademark of Gaussian, Inc.
  
 This software contains proprietary and confidential information,
 including trade secrets, belonging to Gaussian, Inc.
  
 This software is provided under written license and may be
 used, copied, transmitted, or stored only in accord with that
 written license.
  
 The following legend is applicable only to US Government
 contracts under FAR:
  
                    RESTRICTED RIGHTS LEGEND
  
 Use, reproduction and disclosure by the US Government is
 subject to restrictions as set forth in subparagraphs (a)
 and (c) of the Commercial Computer Software - Restricted
 Rights clause in FAR 52.227-19.
  
 Gaussian, Inc.
 340 Quinnipiac St., Bldg. 40, Wallingford CT 06492
  
  
 ---------------------------------------------------------------
 Warning -- This program may not be used in any manner that
 competes with the business of Gaussian, Inc. or will provide
 assistance to any competitor of Gaussian, Inc.  The licensee
 of this program is prohibited from giving any competitor of
 Gaussian, Inc. access to this program.  By using this program,
 the user acknowledges that Gaussian, Inc. is engaged in the
 business of creating and licensing software in the field of
 computational chemistry and represents and warrants to the
 licensee that it is not a competitor of Gaussian, Inc. and that
 it will not use this program in any manner prohibited above.
 ---------------------------------------------------------------
  

 Cite this work as:
 Gaussian 03, Revision E.01,
 M. J. Frisch, G. W. Trucks, H. B. Schlegel, G. E. Scuseria, 
 M. A. Robb, J. R. Cheeseman, J. A. Montgomery, Jr., T. Vreven, 
 K. N. Kudin, J. C. Burant, J. M. Millam, S. S. Iyengar, J. Tomasi, 
 V. Barone, B. Mennucci, M. Cossi, G. Scalmani, N. Rega, 
 G. A. Petersson, H. Nakatsuji, M. Hada, M. Ehara, K. Toyota, 
 R. Fukuda, J. Hasegawa, M. Ishida, T. Nakajima, Y. Honda, O. Kitao, 
 H. Nakai, M. Klene, X. Li, J. E. Knox, H. P. Hratchian, J. B. Cross, 
 V. Bakken, C. Adamo, J. Jaramillo, R. Gomperts, R. E. Stratmann, 
 O. Yazyev, A. J. Austin, R. Cammi, C. Pomelli, J. W. Ochterski, 
 P. Y. Ayala, K. Morokuma, G. A. Voth, P. Salvador, J. J. Dannenberg, 
 V. G. Zakrzewski, S. Dapprich, A. D. Daniels, M. C. Strain, 
 O. Farkas, D. K. Malick, A. D. Rabuck, K. Raghavachari, 
 J. B. Foresman, J. V. Ortiz, Q. Cui, A. G. Baboul, S. Clifford, 
 J. Cioslowski, B. B. Stefanov, G. Liu, A. Liashenko, P. Piskorz, 
 I. Komaromi, R. L. Martin, D. J. Fox, T. Keith, M. A. Al-Laham, 
 C. Y. Peng, A. Nanayakkara, M. Challacombe, P. M. W. Gill, 
 B. Johnson, W. Chen, M. W. Wong, C. Gonzalez, and J. A. Pople, 
 Gaussian, Inc., Wallingford CT, 2004.
 
 ******************************************
 Gaussian 03:  EM64T-G03RevE.01 11-Sep-2007
                 4-May-2015 
 ******************************************
 %nproc=2
 Will use up to    2 processors via shared memory.
 Default route:  MP2=Direct MaxDisk=2000MB
 -------------------------------------
 # b3lyp/6-31G(d,p) pop=(ReadRadii,MK)
 -------------------------------------
 1/38=1/1;
 2/17=6,18=5,40=1/2;
 3/5=1,6=6,7=101,11=2,16=1,25=1,30=1,74=-5/1,2,3;
 4//1;
 5/5=2,32=1,38=5/2;
 6/7=2,8=2,9=2,10=2,15=8,20=101,28=1/1,2;
 99/5=1,9=1/99;
 ---------
 Ca2PO3_22
 ---------
 Symbolic Z-matrix:
 Charge =  0 Multiplicity = 1
 O                    -2.36557  -0.5007    0.61389 
 O                    -1.95212   0.43295  -0.51444 
 O                     0.53313   0.59539   0.14148 
 P                    -0.78066   1.57057  -0.09787 
 Ca                   -0.52463  -1.47376  -0.12407 
 Ca                    2.6845   -0.0035    0.03827 
 H                    -1.21115   1.76538   1.25667 
 
                          Input orientation:                          
 ---------------------------------------------------------------------
 Center     Atomic     Atomic              Coordinates (Angstroms)
 Number     Number      Type              X           Y           Z
 ---------------------------------------------------------------------
    1          8             0       -2.365570   -0.500698    0.613891
    2          8             0       -1.952120    0.432954   -0.514437
    3          8             0        0.533134    0.595391    0.141475
    4         15             0       -0.780656    1.570570   -0.097872
    5         20             0       -0.524633   -1.473760   -0.124066
    6         20             0        2.684500   -0.003498    0.038265
    7          1             0       -1.211150    1.765380    1.256670
 ---------------------------------------------------------------------
                    Distance matrix (angstroms):
                    1          2          3          4          5
     1  O    0.000000
     2  O    1.521766   0.000000
     3  O    3.134816   2.575479   0.000000
     4  P    2.703463   1.685237   1.653573   0.000000
     5  Ca   2.209181   2.413642   2.338967   3.055189   0.000000
     6  Ca   5.107030   4.689799   2.235553   3.808350   3.533632
     7  H    2.623158   2.336924   2.378037   1.434594   3.587446
                    6          7
     6  Ca   0.000000
     7  H    4.448542   0.000000
 Stoichiometry    Ca2HO3P
 Framework group  C1[X(Ca2HO3P)]
 Deg. of freedom    15
 Full point group                 C1
 Largest Abelian subgroup         C1      NOp   1
 Largest concise Abelian subgroup C1      NOp   1
                         Standard orientation:                         
 ---------------------------------------------------------------------
 Center     Atomic     Atomic              Coordinates (Angstroms)
 Number     Number      Type              X           Y           Z
 ---------------------------------------------------------------------
    1          8             0       -2.365569   -0.500697    0.613891
    2          8             0       -1.952119    0.432955   -0.514437
    3          8             0        0.533135    0.595392    0.141475
    4         15             0       -0.780654    1.570571   -0.097872
    5         20             0       -0.524632   -1.473759   -0.124066
    6         20             0        2.684501   -0.003498    0.038265
    7          1             0       -1.211148    1.765381    1.256670
 ---------------------------------------------------------------------
 Rotational constants (GHZ):      2.6302210      1.0367786      0.7734496
 Standard basis: 6-31G(d,p) (6D, 7F)
 There are   115 symmetry adapted basis functions of A   symmetry.
 Integral buffers will be    131072 words long.
 Raffenetti 2 integral format.
 Two-electron integral symmetry is turned on.
   115 basis functions,   295 primitive gaussians,   115 cartesian basis functions
    40 alpha electrons       40 beta electrons
       nuclear repulsion energy       497.5079778075 Hartrees.
 NAtoms=    7 NActive=    7 NUniq=    7 SFac= 7.50D-01 NAtFMM=   80 NAOKFM=F Big=F
 One-electron integrals computed using PRISM.
 NBasis=   115 RedAO= T  NBF=   115
 NBsUse=   115 1.00D-06 NBFU=   115
 Harris functional with IExCor=  402 diagonalized for initial guess.
 ExpMin= 2.60D-02 ExpMax= 3.53D+04 ExpMxC= 5.30D+03 IAcc=3 IRadAn=         5 AccDes= 0.00D+00
 HarFok:  IExCor= 402 AccDes= 0.00D+00 IRadAn=         5 IDoV=1
 ScaDFX=  1.000000  1.000000  1.000000  1.000000
 Initial guess orbital symmetries:
       Occupied  (A) (A) (A) (A) (A) (A) (A) (A) (A) (A) (A) (A)
                 (A) (A) (A) (A) (A) (A) (A) (A) (A) (A) (A) (A)
                 (A) (A) (A) (A) (A) (A) (A) (A) (A) (A) (A) (A)
                 (A) (A) (A) (A)
       Virtual   (A) (A) (A) (A) (A) (A) (A) (A) (A) (A) (A) (A)
                 (A) (A) (A) (A) (A) (A) (A) (A) (A) (A) (A) (A)
                 (A) (A) (A) (A) (A) (A) (A) (A) (A) (A) (A) (A)
                 (A) (A) (A) (A) (A) (A) (A) (A) (A) (A) (A) (A)
                 (A) (A) (A) (A) (A) (A) (A) (A) (A) (A) (A) (A)
                 (A) (A) (A) (A) (A) (A) (A) (A) (A) (A) (A) (A)
                 (A) (A) (A)
 The electronic state of the initial guess is 1-A.
 Requested convergence on RMS density matrix=1.00D-04 within 128 cycles.
 Requested convergence on MAX density matrix=1.00D-02.
 Requested convergence on             energy=1.00D-02.
 No special actions if energy rises.
 Keep R1 integrals in memory in canonical form, NReq=    24133957.
 EnCoef did     5 forward-backward iterations
 EnCoef did     6 forward-backward iterations
 EnCoef did     5 forward-backward iterations
 EnCoef did     2 forward-backward iterations
 SCF Done:  E(RB+HF-LYP) =  -1922.73943310     A.U. after   11 cycles
             Convg  =    0.5843D-04             -V/T =  2.0027
             S**2   =   0.0000

 **********************************************************************

            Population analysis using the SCF density.

 **********************************************************************

 Orbital symmetries:
       Occupied  (A) (A) (A) (A) (A) (A) (A) (A) (A) (A) (A) (A)
                 (A) (A) (A) (A) (A) (A) (A) (A) (A) (A) (A) (A)
                 (A) (A) (A) (A) (A) (A) (A) (A) (A) (A) (A) (A)
                 (A) (A) (A) (A)
       Virtual   (A) (A) (A) (A) (A) (A) (A) (A) (A) (A) (A) (A)
                 (A) (A) (A) (A) (A) (A) (A) (A) (A) (A) (A) (A)
                 (A) (A) (A) (A) (A) (A) (A) (A) (A) (A) (A) (A)
                 (A) (A) (A) (A) (A) (A) (A) (A) (A) (A) (A) (A)
                 (A) (A) (A) (A) (A) (A) (A) (A) (A) (A) (A) (A)
                 (A) (A) (A) (A) (A) (A) (A) (A) (A) (A) (A) (A)
                 (A) (A) (A)
 The electronic state is 1-A.
 Alpha  occ. eigenvalues -- -145.39006-145.37700 -77.12149 -19.16963 -19.11705
 Alpha  occ. eigenvalues --  -19.10140 -15.46154 -15.44851 -12.59327 -12.59325
 Alpha  occ. eigenvalues --  -12.59206 -12.58068 -12.57996 -12.57913  -6.58133
 Alpha  occ. eigenvalues --   -4.74562  -4.74375  -4.73825  -1.83463  -1.82362
 Alpha  occ. eigenvalues --   -1.11072  -1.10945  -1.10784  -1.10452  -1.10053
 Alpha  occ. eigenvalues --   -1.09719  -1.00918  -0.93268  -0.78983  -0.56183
 Alpha  occ. eigenvalues --   -0.42429  -0.41746  -0.38483  -0.34195  -0.32480
 Alpha  occ. eigenvalues --   -0.30899  -0.22801  -0.21169  -0.20372  -0.15697
 Alpha virt. eigenvalues --   -0.09156  -0.04502  -0.03824  -0.01678  -0.01479
 Alpha virt. eigenvalues --    0.01535   0.02404   0.03123   0.04128   0.06733
 Alpha virt. eigenvalues --    0.08375   0.09070   0.10121   0.11307   0.12495
 Alpha virt. eigenvalues --    0.13028   0.14535   0.16710   0.17323   0.18097
 Alpha virt. eigenvalues --    0.19072   0.19502   0.20709   0.23660   0.25687
 Alpha virt. eigenvalues --    0.30839   0.32429   0.33821   0.36119   0.38481
 Alpha virt. eigenvalues --    0.39767   0.42097   0.43633   0.50747   0.51948
 Alpha virt. eigenvalues --    0.64087   0.67369   0.72696   0.78565   0.92636
 Alpha virt. eigenvalues --    0.95706   1.01562   1.07359   1.09387   1.11095
 Alpha virt. eigenvalues --    1.16550   1.17821   1.19995   1.24976   1.34460
 Alpha virt. eigenvalues --    1.35134   1.47444   1.58387   1.60875   1.71720
 Alpha virt. eigenvalues --    1.80106   1.82990   1.89024   1.90763   1.91356
 Alpha virt. eigenvalues --    1.94909   1.97355   2.04990   2.15035   2.20078
 Alpha virt. eigenvalues --    2.33776   2.34396   2.47825   2.63828   2.76169
 Alpha virt. eigenvalues --    3.08129   3.60710   3.62493   3.84428   3.91095
          Condensed to atoms (all electrons):
              1          2          3          4          5          6
     1  O    8.334846   0.012245  -0.000177  -0.016802   0.176756  -0.012342
     2  O    0.012245   8.253904  -0.032410   0.174827   0.065838  -0.007108
     3  O   -0.000177  -0.032410   8.557339   0.185400   0.080286   0.086153
     4  P   -0.016802   0.174827   0.185400  13.687347  -0.006981   0.012126
     5  Ca   0.176756   0.065838   0.080286  -0.006981  18.838409   0.079475
     6  Ca  -0.012342  -0.007108   0.086153   0.012126   0.079475  19.467183
     7  H   -0.005697  -0.014808  -0.033078   0.241382   0.016454  -0.010005
              7
     1  O   -0.005697
     2  O   -0.014808
     3  O   -0.033078
     4  P    0.241382
     5  Ca   0.016454
     6  Ca  -0.010005
     7  H    0.877906
 Mulliken atomic charges:
              1
     1  O   -0.488829
     2  O   -0.452488
     3  O   -0.843513
     4  P    0.722701
     5  Ca   0.749764
     6  Ca   0.384518
     7  H   -0.072153
 Sum of Mulliken charges=   0.00000
 Atomic charges with hydrogens summed into heavy atoms:
              1
     1  O   -0.488829
     2  O   -0.452488
     3  O   -0.843513
     4  P    0.650548
     5  Ca   0.749764
     6  Ca   0.384518
     7  H    0.000000
 Sum of Mulliken charges=   0.00000
 Electronic spatial extent (au):  <R**2>=  1351.0484
 Charge=     0.0000 electrons
 Dipole moment (field-independent basis, Debye):
    X=     4.5342    Y=    -2.3766    Z=    -0.5469  Tot=     5.1484
 Quadrupole moment (field-independent basis, Debye-Ang):
   XX=   -78.1591   YY=   -61.9184   ZZ=   -67.9540
   XY=    10.7902   XZ=     3.2670   YZ=     2.8111
 Traceless Quadrupole moment (field-independent basis, Debye-Ang):
   XX=    -8.8153   YY=     7.4255   ZZ=     1.3898
   XY=    10.7902   XZ=     3.2670   YZ=     2.8111
 Octapole moment (field-independent basis, Debye-Ang**2):
  XXX=   -10.7311  YYY=     4.0389  ZZZ=     1.4714  XYY=   -36.5044
  XXY=    29.9944  XXZ=    -1.4046  XZZ=   -17.8901  YZZ=     2.6891
  YYZ=     5.4827  XYZ=    -5.0090
 Hexadecapole moment (field-independent basis, Debye-Ang**3):
 XXXX= -1612.9734 YYYY=  -623.7717 ZZZZ=  -185.1021 XXXY=    91.1788
 XXXZ=    25.6960 YYYX=    85.4658 YYYZ=     8.3167 ZZZX=     7.7931
 ZZZY=    -1.7174 XXYY=  -363.0133 XXZZ=  -290.1280 YYZZ=  -134.8876
 XXYZ=     4.6968 YYXZ=     1.1632 ZZXY=    24.5248
 N-N= 4.975079778075D+02 E-N=-5.550105000451D+03  KE= 1.917572359881D+03
 Merz-Kollman atomic radii used.
 Read replacement radii for each type of atom:
 Rad(20) =   1.188000000000D+00
 Atom Element Radius
    1     8    1.40
    2     8    1.40
    3     8    1.40
    4    15    1.80
    5    20    1.19
    6    20    1.19
    7     1    1.20

 **********************************************************************

            Electrostatic Properties Using The SCF Density

 **********************************************************************

       Atomic Center    1 is at  -2.365569 -0.500697  0.613891
       Atomic Center    2 is at  -1.952119  0.432955 -0.514437
       Atomic Center    3 is at   0.533135  0.595392  0.141475
       Atomic Center    4 is at  -0.780654  1.570571 -0.097872
       Atomic Center    5 is at  -0.524632 -1.473759 -0.124066
       Atomic Center    6 is at   2.684501 -0.003498  0.038265
       Atomic Center    7 is at  -1.211148  1.765381  1.256670
     669 points will be used for fitting atomic charges
 Fitting point charges to eletrostatic potential
 Charges from ESP fit, RMS=   0.03108 RRMS=   0.50064:
 Charge=   0.00000 Dipole=     9.1694    -6.5669    -1.1079 Tot=    11.3327
              1
     1  O   -0.538526
     2  O   -0.138996
     3  O   -0.189192
     4  P   -0.293694
     5  Ca   0.787824
     6  Ca   0.282346
     7  H    0.090238
 -----------------------------------------------------------------

              Electrostatic Properties (Atomic Units)

 -----------------------------------------------------------------
    Center     Electric         -------- Electric Field --------
               Potential          X             Y             Z
 -----------------------------------------------------------------
    1 Atom    -22.370471
    2 Atom    -22.298953
    3 Atom    -22.345506
    4 Atom    -54.093707
    5 Atom    -80.165505
    6 Atom    -80.155968
    7 Atom     -1.134523
 -----------------------------------------------------------------
 1\1\GINC-N036\SP\RB3LYP\6-31G(d,p)\Ca2H1O3P1\TIMN\04-May-2015\0\\# b3l
 yp/6-31G(d,p) pop=(ReadRadii,MK)\\Ca2PO3_22\\0,1\O,0,-2.36557,-0.50069
 8,0.613891\O,0,-1.95212,0.432954,-0.514437\O,0,0.533134,0.595391,0.141
 475\P,0,-0.780656,1.57057,-0.097872\Ca,0,-0.524633,-1.47376,-0.124066\
 Ca,0,2.6845,-0.003498,0.038265\H,0,-1.21115,1.76538,1.25667\\Version=E
 M64T-G03RevE.01\State=1-A\HF=-1922.7394331\RMSD=5.843e-05\Thermal=0.\D
 ipole=1.7838953,-0.9350184,-0.2151695\PG=C01 [X(Ca2H1O3P1)]\\@


 ONLY A FOOL KNOWS EVERYTHING.

               -- THE CHEMIST ANALYST, SEPTEMBER 1946
 Job cpu time:  0 days  0 hours  0 minutes 18.5 seconds.
 File lengths (MBytes):  RWF=     18 Int=      0 D2E=      0 Chk=     10 Scr=      1
 Normal termination of Gaussian 03 at Mon May  4 20:09:02 2015.
