 Entering Gaussian System, Link 0=/home/timn/tmp/g03.e01/g03
 Input=Ca3PO4_8.xyz.gjf
 Output=Ca3PO4_8.xyz.out
 Initial command:
 /home/timn/tmp/g03.e01/l1.exe /home/timn/tmp/g03.e01/Gau-12655.inp -scrdir=/home/timn/tmp/g03.e01/
 Default is to use a total of   2 processors:
                                2 via shared-memory
                                1 via Linda
 Entering Link 1 = /home/timn/tmp/g03.e01/l1.exe PID=     12656.
  
 Copyright (c) 1988,1990,1992,1993,1995,1998,2003,2004,2007, Gaussian, Inc.
                  All Rights Reserved.
  
 This is the Gaussian(R) 03 program.  It is based on the
 the Gaussian(R) 98 system (copyright 1998, Gaussian, Inc.),
 the Gaussian(R) 94 system (copyright 1995, Gaussian, Inc.),
 the Gaussian 92(TM) system (copyright 1992, Gaussian, Inc.),
 the Gaussian 90(TM) system (copyright 1990, Gaussian, Inc.),
 the Gaussian 88(TM) system (copyright 1988, Gaussian, Inc.),
 the Gaussian 86(TM) system (copyright 1986, Carnegie Mellon
 University), and the Gaussian 82(TM) system (copyright 1983,
 Carnegie Mellon University). Gaussian is a federally registered
 trademark of Gaussian, Inc.
  
 This software contains proprietary and confidential information,
 including trade secrets, belonging to Gaussian, Inc.
  
 This software is provided under written license and may be
 used, copied, transmitted, or stored only in accord with that
 written license.
  
 The following legend is applicable only to US Government
 contracts under FAR:
  
                    RESTRICTED RIGHTS LEGEND
  
 Use, reproduction and disclosure by the US Government is
 subject to restrictions as set forth in subparagraphs (a)
 and (c) of the Commercial Computer Software - Restricted
 Rights clause in FAR 52.227-19.
  
 Gaussian, Inc.
 340 Quinnipiac St., Bldg. 40, Wallingford CT 06492
  
  
 ---------------------------------------------------------------
 Warning -- This program may not be used in any manner that
 competes with the business of Gaussian, Inc. or will provide
 assistance to any competitor of Gaussian, Inc.  The licensee
 of this program is prohibited from giving any competitor of
 Gaussian, Inc. access to this program.  By using this program,
 the user acknowledges that Gaussian, Inc. is engaged in the
 business of creating and licensing software in the field of
 computational chemistry and represents and warrants to the
 licensee that it is not a competitor of Gaussian, Inc. and that
 it will not use this program in any manner prohibited above.
 ---------------------------------------------------------------
  

 Cite this work as:
 Gaussian 03, Revision E.01,
 M. J. Frisch, G. W. Trucks, H. B. Schlegel, G. E. Scuseria, 
 M. A. Robb, J. R. Cheeseman, J. A. Montgomery, Jr., T. Vreven, 
 K. N. Kudin, J. C. Burant, J. M. Millam, S. S. Iyengar, J. Tomasi, 
 V. Barone, B. Mennucci, M. Cossi, G. Scalmani, N. Rega, 
 G. A. Petersson, H. Nakatsuji, M. Hada, M. Ehara, K. Toyota, 
 R. Fukuda, J. Hasegawa, M. Ishida, T. Nakajima, Y. Honda, O. Kitao, 
 H. Nakai, M. Klene, X. Li, J. E. Knox, H. P. Hratchian, J. B. Cross, 
 V. Bakken, C. Adamo, J. Jaramillo, R. Gomperts, R. E. Stratmann, 
 O. Yazyev, A. J. Austin, R. Cammi, C. Pomelli, J. W. Ochterski, 
 P. Y. Ayala, K. Morokuma, G. A. Voth, P. Salvador, J. J. Dannenberg, 
 V. G. Zakrzewski, S. Dapprich, A. D. Daniels, M. C. Strain, 
 O. Farkas, D. K. Malick, A. D. Rabuck, K. Raghavachari, 
 J. B. Foresman, J. V. Ortiz, Q. Cui, A. G. Baboul, S. Clifford, 
 J. Cioslowski, B. B. Stefanov, G. Liu, A. Liashenko, P. Piskorz, 
 I. Komaromi, R. L. Martin, D. J. Fox, T. Keith, M. A. Al-Laham, 
 C. Y. Peng, A. Nanayakkara, M. Challacombe, P. M. W. Gill, 
 B. Johnson, W. Chen, M. W. Wong, C. Gonzalez, and J. A. Pople, 
 Gaussian, Inc., Wallingford CT, 2004.
 
 ******************************************
 Gaussian 03:  EM64T-G03RevE.01 11-Sep-2007
                 4-May-2015 
 ******************************************
 %nproc=2
 Will use up to    2 processors via shared memory.
 Default route:  MP2=Direct MaxDisk=2000MB
 -------------------------------------
 # b3lyp/6-31G(d,p) pop=(ReadRadii,MK)
 -------------------------------------
 1/38=1/1;
 2/17=6,18=5,40=1/2;
 3/5=1,6=6,7=101,11=2,16=1,25=1,30=1,74=-5/1,2,3;
 4//1;
 5/5=2,32=1,38=5/2;
 6/7=2,8=2,9=2,10=2,15=8,20=101,28=1/1,2;
 99/5=1,9=1/99;
 --------
 Ca3PO4_8
 --------
 Symbolic Z-matrix:
 Charge =  0 Multiplicity = 1
 O                     0.86342  -1.85786  -0.39813 
 O                    -1.57053   1.25519  -0.0143 
 O                     0.99259   0.11244   1.12009 
 O                    -0.80281   0.184    -0.78119 
 P                    -0.02707  -0.97247   0.52016 
 Ca                    0.57192   2.09285  -0.04585 
 Ca                    2.84489  -0.61327  -0.25351 
 Ca                   -2.94342  -0.56462  -0.05611 
 H                    -4.92289  -1.26229  -0.10474 
 
                          Input orientation:                          
 ---------------------------------------------------------------------
 Center     Atomic     Atomic              Coordinates (Angstroms)
 Number     Number      Type              X           Y           Z
 ---------------------------------------------------------------------
    1          8             0        0.863415   -1.857860   -0.398131
    2          8             0       -1.570530    1.255190   -0.014297
    3          8             0        0.992590    0.112437    1.120090
    4          8             0       -0.802809    0.183995   -0.781191
    5         15             0       -0.027074   -0.972468    0.520162
    6         20             0        0.571916    2.092850   -0.045849
    7         20             0        2.844890   -0.613267   -0.253512
    8         20             0       -2.943420   -0.564617   -0.056112
    9          1             0       -4.922890   -1.262290   -0.104735
 ---------------------------------------------------------------------
                    Distance matrix (angstroms):
                    1          2          3          4          5
     1  O    0.000000
     2  O    3.970201   0.000000
     3  O    2.490733   3.026930   0.000000
     4  O    2.663120   1.524789   2.615998   0.000000
     5  P    1.555684   2.762311   1.605194   1.905962   0.000000
     6  Ca   3.977082   2.300597   2.336325   2.464614   3.174166
     7  Ca   2.344391   4.800447   2.417528   3.770912   2.995960
     8  Ca   4.035028   2.279972   4.163415   2.380835   3.000585
     9  H    5.824269   4.193352   6.195399   4.418642   4.944038
                    6          7          8          9
     6  Ca   0.000000
     7  Ca   3.540142   0.000000
     8  Ca   4.406793   5.791879   0.000000
     9  H    6.438426   7.796267   2.099384   0.000000
 Stoichiometry    Ca3HO4P
 Framework group  C1[X(Ca3HO4P)]
 Deg. of freedom    21
 Full point group                 C1
 Largest Abelian subgroup         C1      NOp   1
 Largest concise Abelian subgroup C1      NOp   1
                         Standard orientation:                         
 ---------------------------------------------------------------------
 Center     Atomic     Atomic              Coordinates (Angstroms)
 Number     Number      Type              X           Y           Z
 ---------------------------------------------------------------------
    1          8             0        0.863414   -1.857861   -0.398131
    2          8             0       -1.570530    1.255189   -0.014297
    3          8             0        0.992590    0.112436    1.120090
    4          8             0       -0.802809    0.183994   -0.781191
    5         15             0       -0.027075   -0.972469    0.520162
    6         20             0        0.571916    2.092849   -0.045849
    7         20             0        2.844889   -0.613269   -0.253512
    8         20             0       -2.943421   -0.564617   -0.056112
    9          1             0       -4.922891   -1.262290   -0.104735
 ---------------------------------------------------------------------
 Rotational constants (GHZ):      1.4104532      0.6102682      0.4596988
 Standard basis: 6-31G(d,p) (6D, 7F)
 There are   153 symmetry adapted basis functions of A   symmetry.
 Integral buffers will be    131072 words long.
 Raffenetti 2 integral format.
 Two-electron integral symmetry is turned on.
   153 basis functions,   399 primitive gaussians,   153 cartesian basis functions
    54 alpha electrons       54 beta electrons
       nuclear repulsion energy       885.1142963503 Hartrees.
 NAtoms=    9 NActive=    9 NUniq=    9 SFac= 7.50D-01 NAtFMM=   80 NAOKFM=F Big=F
 One-electron integrals computed using PRISM.
 NBasis=   153 RedAO= T  NBF=   153
 NBsUse=   153 1.00D-06 NBFU=   153
 Harris functional with IExCor=  402 diagonalized for initial guess.
 ExpMin= 2.60D-02 ExpMax= 3.53D+04 ExpMxC= 5.30D+03 IAcc=3 IRadAn=         5 AccDes= 0.00D+00
 HarFok:  IExCor= 402 AccDes= 0.00D+00 IRadAn=         5 IDoV=1
 ScaDFX=  1.000000  1.000000  1.000000  1.000000
 Initial guess orbital symmetries:
       Occupied  (A) (A) (A) (A) (A) (A) (A) (A) (A) (A) (A) (A)
                 (A) (A) (A) (A) (A) (A) (A) (A) (A) (A) (A) (A)
                 (A) (A) (A) (A) (A) (A) (A) (A) (A) (A) (A) (A)
                 (A) (A) (A) (A) (A) (A) (A) (A) (A) (A) (A) (A)
                 (A) (A) (A) (A) (A) (A)
       Virtual   (A) (A) (A) (A) (A) (A) (A) (A) (A) (A) (A) (A)
                 (A) (A) (A) (A) (A) (A) (A) (A) (A) (A) (A) (A)
                 (A) (A) (A) (A) (A) (A) (A) (A) (A) (A) (A) (A)
                 (A) (A) (A) (A) (A) (A) (A) (A) (A) (A) (A) (A)
                 (A) (A) (A) (A) (A) (A) (A) (A) (A) (A) (A) (A)
                 (A) (A) (A) (A) (A) (A) (A) (A) (A) (A) (A) (A)
                 (A) (A) (A) (A) (A) (A) (A) (A) (A) (A) (A) (A)
                 (A) (A) (A) (A) (A) (A) (A) (A) (A) (A) (A) (A)
                 (A) (A) (A)
 The electronic state of the initial guess is 1-A.
 Requested convergence on RMS density matrix=1.00D-04 within 128 cycles.
 Requested convergence on MAX density matrix=1.00D-02.
 Requested convergence on             energy=1.00D-02.
 No special actions if energy rises.
 EnCoef did    12 forward-backward iterations
 EnCoef did     9 forward-backward iterations
 EnCoef did    10 forward-backward iterations
 EnCoef did    10 forward-backward iterations
 SCF Done:  E(RB+HF-LYP) =  -2675.62638239     A.U. after   12 cycles
             Convg  =    0.3002D-04             -V/T =  2.0026
             S**2   =   0.0000

 **********************************************************************

            Population analysis using the SCF density.

 **********************************************************************

 Orbital symmetries:
       Occupied  (A) (A) (A) (A) (A) (A) (A) (A) (A) (A) (A) (A)
                 (A) (A) (A) (A) (A) (A) (A) (A) (A) (A) (A) (A)
                 (A) (A) (A) (A) (A) (A) (A) (A) (A) (A) (A) (A)
                 (A) (A) (A) (A) (A) (A) (A) (A) (A) (A) (A) (A)
                 (A) (A) (A) (A) (A) (A)
       Virtual   (A) (A) (A) (A) (A) (A) (A) (A) (A) (A) (A) (A)
                 (A) (A) (A) (A) (A) (A) (A) (A) (A) (A) (A) (A)
                 (A) (A) (A) (A) (A) (A) (A) (A) (A) (A) (A) (A)
                 (A) (A) (A) (A) (A) (A) (A) (A) (A) (A) (A) (A)
                 (A) (A) (A) (A) (A) (A) (A) (A) (A) (A) (A) (A)
                 (A) (A) (A) (A) (A) (A) (A) (A) (A) (A) (A) (A)
                 (A) (A) (A) (A) (A) (A) (A) (A) (A) (A) (A) (A)
                 (A) (A) (A) (A) (A) (A) (A) (A) (A) (A) (A) (A)
                 (A) (A) (A)
 The electronic state is 1-A.
 Alpha  occ. eigenvalues -- -145.38282-145.37812-145.37053 -77.15705 -19.19423
 Alpha  occ. eigenvalues --  -19.15815 -19.11851 -19.10818 -15.45393 -15.44925
 Alpha  occ. eigenvalues --  -15.44284 -12.58598 -12.58550 -12.58456 -12.58136
 Alpha  occ. eigenvalues --  -12.58072 -12.58002 -12.57513 -12.57480 -12.57265
 Alpha  occ. eigenvalues --   -6.61170  -4.77668  -4.77414  -4.76946  -1.82698
 Alpha  occ. eigenvalues --   -1.82318  -1.81848  -1.11094  -1.10480  -1.10243
 Alpha  occ. eigenvalues --   -1.09992  -1.09906  -1.09744  -1.09732  -1.09582
 Alpha  occ. eigenvalues --   -1.09028  -1.02495  -0.97511  -0.92000  -0.81741
 Alpha  occ. eigenvalues --   -0.53870  -0.44236  -0.42244  -0.41772  -0.39022
 Alpha  occ. eigenvalues --   -0.37220  -0.33293  -0.29713  -0.28677  -0.27785
 Alpha  occ. eigenvalues --   -0.26554  -0.23871  -0.21500  -0.13845
 Alpha virt. eigenvalues --   -0.08674  -0.04221  -0.02923  -0.02414  -0.02263
 Alpha virt. eigenvalues --   -0.00832  -0.00561   0.00128   0.01031   0.01992
 Alpha virt. eigenvalues --    0.02467   0.04109   0.05694   0.06106   0.07126
 Alpha virt. eigenvalues --    0.09001   0.09596   0.11425   0.12013   0.13384
 Alpha virt. eigenvalues --    0.13872   0.14521   0.14656   0.16480   0.17170
 Alpha virt. eigenvalues --    0.18396   0.18792   0.19837   0.20606   0.20748
 Alpha virt. eigenvalues --    0.21668   0.23047   0.25553   0.26981   0.27394
 Alpha virt. eigenvalues --    0.29670   0.30409   0.33318   0.33762   0.35730
 Alpha virt. eigenvalues --    0.37942   0.39607   0.41263   0.42905   0.44844
 Alpha virt. eigenvalues --    0.47213   0.50827   0.53492   0.56115   0.69933
 Alpha virt. eigenvalues --    0.72961   0.75096   0.87413   0.93055   0.95846
 Alpha virt. eigenvalues --    0.99886   1.00472   1.05041   1.06913   1.10506
 Alpha virt. eigenvalues --    1.14974   1.16372   1.21803   1.22356   1.25698
 Alpha virt. eigenvalues --    1.27630   1.35083   1.36608   1.46617   1.49275
 Alpha virt. eigenvalues --    1.55198   1.60678   1.70721   1.78459   1.82391
 Alpha virt. eigenvalues --    1.84070   1.85880   1.86505   1.89513   1.91025
 Alpha virt. eigenvalues --    1.92990   1.96432   2.00097   2.04274   2.14336
 Alpha virt. eigenvalues --    2.14723   2.15523   2.18199   2.30163   2.33312
 Alpha virt. eigenvalues --    2.38882   2.64652   2.77654   3.06495   3.54686
 Alpha virt. eigenvalues --    3.75455   3.79046   3.88844   4.00098
          Condensed to atoms (all electrons):
              1          2          3          4          5          6
     1  O    8.336482   0.000359  -0.047649  -0.016395   0.311328  -0.007876
     2  O    0.000359   8.397937  -0.001695  -0.011109  -0.000260   0.093766
     3  O   -0.047649  -0.001695   8.512941  -0.025325   0.198790   0.086917
     4  O   -0.016395  -0.011109  -0.025325   8.504625  -0.022307   0.043830
     5  P    0.311328  -0.000260   0.198790  -0.022307  13.548976   0.001705
     6  Ca  -0.007876   0.093766   0.086917   0.043830   0.001705  18.975087
     7  Ca   0.134646  -0.003261   0.076249  -0.002382  -0.006584   0.201392
     8  Ca  -0.002991   0.092384  -0.007167   0.048424   0.105535  -0.017711
     9  H    0.000000  -0.000213   0.000000  -0.000077  -0.000225   0.004518
              7          8          9
     1  O    0.134646  -0.002991   0.000000
     2  O   -0.003261   0.092384  -0.000213
     3  O    0.076249  -0.007167   0.000000
     4  O   -0.002382   0.048424  -0.000077
     5  P   -0.006584   0.105535  -0.000225
     6  Ca   0.201392  -0.017711   0.004518
     7  Ca  19.090680   0.003486   0.000073
     8  Ca   0.003486  18.558148   0.336201
     9  H    0.000073   0.336201   0.942372
 Mulliken atomic charges:
              1
     1  O   -0.707904
     2  O   -0.567907
     3  O   -0.793060
     4  O   -0.519284
     5  P    0.863042
     6  Ca   0.618372
     7  Ca   0.505701
     8  Ca   0.883689
     9  H   -0.282650
 Sum of Mulliken charges=   0.00000
 Atomic charges with hydrogens summed into heavy atoms:
              1
     1  O   -0.707904
     2  O   -0.567907
     3  O   -0.793060
     4  O   -0.519284
     5  P    0.863042
     6  Ca   0.618372
     7  Ca   0.505701
     8  Ca   0.601040
     9  H    0.000000
 Sum of Mulliken charges=   0.00000
 Electronic spatial extent (au):  <R**2>=  2307.6410
 Charge=     0.0000 electrons
 Dipole moment (field-independent basis, Debye):
    X=     2.5411    Y=     2.0959    Z=     0.8467  Tot=     3.4011
 Quadrupole moment (field-independent basis, Debye-Ang):
   XX=  -116.5128   YY=   -89.3328   ZZ=   -92.0798
   XY=   -17.0462   XZ=     0.9965   YZ=     0.8966
 Traceless Quadrupole moment (field-independent basis, Debye-Ang):
   XX=   -17.2043   YY=     9.9757   ZZ=     7.2286
   XY=   -17.0462   XZ=     0.9965   YZ=     0.8966
 Octapole moment (field-independent basis, Debye-Ang**2):
  XXX=   144.1807  YYY=    13.3956  ZZZ=     8.1689  XYY=    -6.2188
  XXY=     4.0224  XXZ=    16.6425  XZZ=   -24.2241  YZZ=    -7.5311
  YYZ=    13.8335  XYZ=     2.1464
 Hexadecapole moment (field-independent basis, Debye-Ang**3):
 XXXX= -3851.0544 YYYY= -1045.7496 ZZZZ=  -297.1089 XXXY=  -533.4231
 XXXZ=    43.5374 YYYX=  -139.2440 YYYZ=    22.2666 ZZZX=    34.2512
 ZZZY=    16.2133 XXYY=  -715.3583 XXZZ=  -483.8265 YYZZ=  -218.0947
 XXYZ=    10.6954 YYXZ=    22.5136 ZZXY=   -38.9862
 N-N= 8.851142963503D+02 E-N=-8.106625234182D+03  KE= 2.668772848513D+03
 Merz-Kollman atomic radii used.
 Read replacement radii for each type of atom:
 Rad(20) =   1.188000000000D+00
 Atom Element Radius
    1     8    1.40
    2     8    1.40
    3     8    1.40
    4     8    1.40
    5    15    1.80
    6    20    1.19
    7    20    1.19
    8    20    1.19
    9     1    1.20

 **********************************************************************

            Electrostatic Properties Using The SCF Density

 **********************************************************************

       Atomic Center    1 is at   0.863414 -1.857861 -0.398131
       Atomic Center    2 is at  -1.570530  1.255189 -0.014297
       Atomic Center    3 is at   0.992590  0.112436  1.120090
       Atomic Center    4 is at  -0.802809  0.183994 -0.781191
       Atomic Center    5 is at  -0.027075 -0.972469  0.520162
       Atomic Center    6 is at   0.571916  2.092849 -0.045849
       Atomic Center    7 is at   2.844889 -0.613269 -0.253512
       Atomic Center    8 is at  -2.943421 -0.564617 -0.056112
       Atomic Center    9 is at  -4.922891 -1.262290 -0.104735
     808 points will be used for fitting atomic charges
 Fitting point charges to eletrostatic potential
 Charges from ESP fit, RMS=   0.03126 RRMS=   0.53280:
 Charge=   0.00000 Dipole=     9.0754     6.0030    -1.1937 Tot=    10.9464
              1
     1  O   -0.362125
     2  O   -0.478210
     3  O   -0.476247
     4  O   -0.442846
     5  P   -0.096093
     6  Ca   0.640298
     7  Ca   0.535494
     8  Ca   1.526809
     9  H   -0.847080
 -----------------------------------------------------------------

              Electrostatic Properties (Atomic Units)

 -----------------------------------------------------------------
    Center     Electric         -------- Electric Field --------
               Potential          X             Y             Z
 -----------------------------------------------------------------
    1 Atom    -22.356827
    2 Atom    -22.310775
    3 Atom    -22.346697
    4 Atom    -22.277601
    5 Atom    -54.057415
    6 Atom    -80.165208
    7 Atom    -80.161671
    8 Atom    -80.172543
    9 Atom     -1.211748
 -----------------------------------------------------------------
 1\1\GINC-N038\SP\RB3LYP\6-31G(d,p)\Ca3H1O4P1\TIMN\04-May-2015\0\\# b3l
 yp/6-31G(d,p) pop=(ReadRadii,MK)\\Ca3PO4_8\\0,1\O,0,0.863415,-1.85786,
 -0.398131\O,0,-1.57053,1.25519,-0.014297\O,0,0.99259,0.112437,1.12009\
 O,0,-0.802809,0.183995,-0.781191\P,0,-0.027074,-0.972468,0.520162\Ca,0
 ,0.571916,2.09285,-0.045849\Ca,0,2.84489,-0.613267,-0.253512\Ca,0,-2.9
 4342,-0.564617,-0.056112\H,0,-4.92289,-1.26229,-0.104735\\Version=EM64
 T-G03RevE.01\State=1-A\HF=-2675.6263824\RMSD=3.002e-05\Thermal=0.\Dipo
 le=0.9997581,0.8245958,0.3331275\PG=C01 [X(Ca3H1O4P1)]\\@


 ...THOSE SCIENCES ARE VAIN AND FULL OF ERRORS WHICH 
 ARE NOT BORN FROM EXPERIMENT, THE MOTHER OF CERTAINTY...

                          -- LEONARDO DA VINCI, 1452-1519
 Job cpu time:  0 days  0 hours  1 minutes  5.7 seconds.
 File lengths (MBytes):  RWF=     27 Int=      0 D2E=      0 Chk=     10 Scr=      1
 Normal termination of Gaussian 03 at Mon May  4 20:13:50 2015.
