 Entering Gaussian System, Link 0=/home/timn/tmp/g03.e01/g03
 Input=Ca3PO4_36.xyz.gjf
 Output=Ca3PO4_36.xyz.out
 Initial command:
 /home/timn/tmp/g03.e01/l1.exe /home/timn/tmp/g03.e01/Gau-27508.inp -scrdir=/home/timn/tmp/g03.e01/
 Default is to use a total of   2 processors:
                                2 via shared-memory
                                1 via Linda
 Entering Link 1 = /home/timn/tmp/g03.e01/l1.exe PID=     27509.
  
 Copyright (c) 1988,1990,1992,1993,1995,1998,2003,2004,2007, Gaussian, Inc.
                  All Rights Reserved.
  
 This is the Gaussian(R) 03 program.  It is based on the
 the Gaussian(R) 98 system (copyright 1998, Gaussian, Inc.),
 the Gaussian(R) 94 system (copyright 1995, Gaussian, Inc.),
 the Gaussian 92(TM) system (copyright 1992, Gaussian, Inc.),
 the Gaussian 90(TM) system (copyright 1990, Gaussian, Inc.),
 the Gaussian 88(TM) system (copyright 1988, Gaussian, Inc.),
 the Gaussian 86(TM) system (copyright 1986, Carnegie Mellon
 University), and the Gaussian 82(TM) system (copyright 1983,
 Carnegie Mellon University). Gaussian is a federally registered
 trademark of Gaussian, Inc.
  
 This software contains proprietary and confidential information,
 including trade secrets, belonging to Gaussian, Inc.
  
 This software is provided under written license and may be
 used, copied, transmitted, or stored only in accord with that
 written license.
  
 The following legend is applicable only to US Government
 contracts under FAR:
  
                    RESTRICTED RIGHTS LEGEND
  
 Use, reproduction and disclosure by the US Government is
 subject to restrictions as set forth in subparagraphs (a)
 and (c) of the Commercial Computer Software - Restricted
 Rights clause in FAR 52.227-19.
  
 Gaussian, Inc.
 340 Quinnipiac St., Bldg. 40, Wallingford CT 06492
  
  
 ---------------------------------------------------------------
 Warning -- This program may not be used in any manner that
 competes with the business of Gaussian, Inc. or will provide
 assistance to any competitor of Gaussian, Inc.  The licensee
 of this program is prohibited from giving any competitor of
 Gaussian, Inc. access to this program.  By using this program,
 the user acknowledges that Gaussian, Inc. is engaged in the
 business of creating and licensing software in the field of
 computational chemistry and represents and warrants to the
 licensee that it is not a competitor of Gaussian, Inc. and that
 it will not use this program in any manner prohibited above.
 ---------------------------------------------------------------
  

 Cite this work as:
 Gaussian 03, Revision E.01,
 M. J. Frisch, G. W. Trucks, H. B. Schlegel, G. E. Scuseria, 
 M. A. Robb, J. R. Cheeseman, J. A. Montgomery, Jr., T. Vreven, 
 K. N. Kudin, J. C. Burant, J. M. Millam, S. S. Iyengar, J. Tomasi, 
 V. Barone, B. Mennucci, M. Cossi, G. Scalmani, N. Rega, 
 G. A. Petersson, H. Nakatsuji, M. Hada, M. Ehara, K. Toyota, 
 R. Fukuda, J. Hasegawa, M. Ishida, T. Nakajima, Y. Honda, O. Kitao, 
 H. Nakai, M. Klene, X. Li, J. E. Knox, H. P. Hratchian, J. B. Cross, 
 V. Bakken, C. Adamo, J. Jaramillo, R. Gomperts, R. E. Stratmann, 
 O. Yazyev, A. J. Austin, R. Cammi, C. Pomelli, J. W. Ochterski, 
 P. Y. Ayala, K. Morokuma, G. A. Voth, P. Salvador, J. J. Dannenberg, 
 V. G. Zakrzewski, S. Dapprich, A. D. Daniels, M. C. Strain, 
 O. Farkas, D. K. Malick, A. D. Rabuck, K. Raghavachari, 
 J. B. Foresman, J. V. Ortiz, Q. Cui, A. G. Baboul, S. Clifford, 
 J. Cioslowski, B. B. Stefanov, G. Liu, A. Liashenko, P. Piskorz, 
 I. Komaromi, R. L. Martin, D. J. Fox, T. Keith, M. A. Al-Laham, 
 C. Y. Peng, A. Nanayakkara, M. Challacombe, P. M. W. Gill, 
 B. Johnson, W. Chen, M. W. Wong, C. Gonzalez, and J. A. Pople, 
 Gaussian, Inc., Wallingford CT, 2004.
 
 ******************************************
 Gaussian 03:  EM64T-G03RevE.01 11-Sep-2007
                 4-May-2015 
 ******************************************
 %nproc=2
 Will use up to    2 processors via shared memory.
 Default route:  MP2=Direct MaxDisk=2000MB
 -------------------------------------
 # b3lyp/6-31G(d,p) pop=(ReadRadii,MK)
 -------------------------------------
 1/38=1/1;
 2/17=6,18=5,40=1/2;
 3/5=1,6=6,7=101,11=2,16=1,25=1,30=1,74=-5/1,2,3;
 4//1;
 5/5=2,32=1,38=5/2;
 6/7=2,8=2,9=2,10=2,15=8,20=101,28=1/1,2;
 99/5=1,9=1/99;
 ---------
 Ca3PO4_36
 ---------
 Symbolic Z-matrix:
 Charge =  0 Multiplicity = 1
 O                    -1.27493   1.1864   -0.33629 
 O                    -0.00017  -1.92731  -0.5018 
 O                    -0.00032  -1.31518   0.94187 
 O                     1.2758    1.18604  -0.33498 
 P                     0.00101   1.51236  -1.3464 
 Ca                    2.01196  -0.98     -0.23553 
 Ca                   -2.01217  -0.97938  -0.23643 
 Ca                   -0.00076   1.02517   1.63727 
 H                     0.00118   2.95905  -1.2607 
 
                          Input orientation:                          
 ---------------------------------------------------------------------
 Center     Atomic     Atomic              Coordinates (Angstroms)
 Number     Number      Type              X           Y           Z
 ---------------------------------------------------------------------
    1          8             0       -1.274930    1.186400   -0.336292
    2          8             0       -0.000168   -1.927310   -0.501796
    3          8             0       -0.000319   -1.315180    0.941874
    4          8             0        1.275800    1.186040   -0.334978
    5         15             0        0.001009    1.512360   -1.346400
    6         20             0        2.011960   -0.980004   -0.235527
    7         20             0       -2.012170   -0.979376   -0.236434
    8         20             0       -0.000762    1.025170    1.637270
    9          1             0        0.001182    2.959050   -1.260700
 ---------------------------------------------------------------------
                    Distance matrix (angstroms):
                    1          2          3          4          5
     1  O    0.000000
     2  O    3.368620   0.000000
     3  O    3.084841   1.568084   0.000000
     4  O    2.550730   3.368809   3.084628   0.000000
     5  P    1.659695   3.541848   3.637469   1.659684   0.000000
     6  Ca   3.937906   2.239854   2.355394   2.289884   3.389667
     7  Ca   2.289996   2.239899   2.355572   3.938208   3.390230
     8  Ca   2.354665   3.645921   2.441478   2.354836   3.023184
     9  H    2.371767   4.944942   4.808365   2.371746   1.449226
                    6          7          8          9
     6  Ca   0.000000
     7  Ca   4.024130   0.000000
     8  Ca   3.402814   3.402166   0.000000
     9  H    4.539863   4.540254   3.483981   0.000000
 Stoichiometry    Ca3HO4P
 Framework group  C1[X(Ca3HO4P)]
 Deg. of freedom    21
 Full point group                 C1
 Largest Abelian subgroup         C1      NOp   1
 Largest concise Abelian subgroup C1      NOp   1
                         Standard orientation:                         
 ---------------------------------------------------------------------
 Center     Atomic     Atomic              Coordinates (Angstroms)
 Number     Number      Type              X           Y           Z
 ---------------------------------------------------------------------
    1          8             0       -1.274921    1.186410   -0.336291
    2          8             0       -0.000181   -1.927309   -0.501795
    3          8             0       -0.000328   -1.315179    0.941875
    4          8             0        1.275809    1.186032   -0.334977
    5         15             0        0.001020    1.512361   -1.346399
    6         20             0        2.011954   -0.980017   -0.235526
    7         20             0       -2.012176   -0.979360   -0.236433
    8         20             0       -0.000754    1.025171    1.637271
    9          1             0        0.001203    2.959051   -1.260699
 ---------------------------------------------------------------------
 Rotational constants (GHZ):      0.9688792      0.8917431      0.7157470
 Standard basis: 6-31G(d,p) (6D, 7F)
 There are   153 symmetry adapted basis functions of A   symmetry.
 Integral buffers will be    131072 words long.
 Raffenetti 2 integral format.
 Two-electron integral symmetry is turned on.
   153 basis functions,   399 primitive gaussians,   153 cartesian basis functions
    54 alpha electrons       54 beta electrons
       nuclear repulsion energy       924.7811127666 Hartrees.
 NAtoms=    9 NActive=    9 NUniq=    9 SFac= 7.50D-01 NAtFMM=   80 NAOKFM=F Big=F
 One-electron integrals computed using PRISM.
 NBasis=   153 RedAO= T  NBF=   153
 NBsUse=   153 1.00D-06 NBFU=   153
 Harris functional with IExCor=  402 diagonalized for initial guess.
 ExpMin= 2.60D-02 ExpMax= 3.53D+04 ExpMxC= 5.30D+03 IAcc=3 IRadAn=         5 AccDes= 0.00D+00
 HarFok:  IExCor= 402 AccDes= 0.00D+00 IRadAn=         5 IDoV=1
 ScaDFX=  1.000000  1.000000  1.000000  1.000000
 Initial guess orbital symmetries:
       Occupied  (A) (A) (A) (A) (A) (A) (A) (A) (A) (A) (A) (A)
                 (A) (A) (A) (A) (A) (A) (A) (A) (A) (A) (A) (A)
                 (A) (A) (A) (A) (A) (A) (A) (A) (A) (A) (A) (A)
                 (A) (A) (A) (A) (A) (A) (A) (A) (A) (A) (A) (A)
                 (A) (A) (A) (A) (A) (A)
       Virtual   (A) (A) (A) (A) (A) (A) (A) (A) (A) (A) (A) (A)
                 (A) (A) (A) (A) (A) (A) (A) (A) (A) (A) (A) (A)
                 (A) (A) (A) (A) (A) (A) (A) (A) (A) (A) (A) (A)
                 (A) (A) (A) (A) (A) (A) (A) (A) (A) (A) (A) (A)
                 (A) (A) (A) (A) (A) (A) (A) (A) (A) (A) (A) (A)
                 (A) (A) (A) (A) (A) (A) (A) (A) (A) (A) (A) (A)
                 (A) (A) (A) (A) (A) (A) (A) (A) (A) (A) (A) (A)
                 (A) (A) (A) (A) (A) (A) (A) (A) (A) (A) (A) (A)
                 (A) (A) (A)
 The electronic state of the initial guess is 1-A.
 Requested convergence on RMS density matrix=1.00D-04 within 128 cycles.
 Requested convergence on MAX density matrix=1.00D-02.
 Requested convergence on             energy=1.00D-02.
 No special actions if energy rises.
 EnCoef did    10 forward-backward iterations
 EnCoef did     6 forward-backward iterations
 EnCoef did     4 forward-backward iterations
 SCF Done:  E(RB+HF-LYP) =  -2675.64625828     A.U. after   13 cycles
             Convg  =    0.1111D-04             -V/T =  2.0026
             S**2   =   0.0000

 **********************************************************************

            Population analysis using the SCF density.

 **********************************************************************

 Orbital symmetries:
       Occupied  (A) (A) (A) (A) (A) (A) (A) (A) (A) (A) (A) (A)
                 (A) (A) (A) (A) (A) (A) (A) (A) (A) (A) (A) (A)
                 (A) (A) (A) (A) (A) (A) (A) (A) (A) (A) (A) (A)
                 (A) (A) (A) (A) (A) (A) (A) (A) (A) (A) (A) (A)
                 (A) (A) (A) (A) (A) (A)
       Virtual   (A) (A) (A) (A) (A) (A) (A) (A) (A) (A) (A) (A)
                 (A) (A) (A) (A) (A) (A) (A) (A) (A) (A) (A) (A)
                 (A) (A) (A) (A) (A) (A) (A) (A) (A) (A) (A) (A)
                 (A) (A) (A) (A) (A) (A) (A) (A) (A) (A) (A) (A)
                 (A) (A) (A) (A) (A) (A) (A) (A) (A) (A) (A) (A)
                 (A) (A) (A) (A) (A) (A) (A) (A) (A) (A) (A) (A)
                 (A) (A) (A) (A) (A) (A) (A) (A) (A) (A) (A) (A)
                 (A) (A) (A) (A) (A) (A) (A) (A) (A) (A) (A) (A)
                 (A) (A) (A)
 The electronic state is 1-A.
 Alpha  occ. eigenvalues -- -145.36264-145.36264-145.36208 -77.10803 -19.12648
 Alpha  occ. eigenvalues --  -19.12121 -19.09313 -19.09308 -15.43362 -15.43362
 Alpha  occ. eigenvalues --  -15.43278 -12.56573 -12.56573 -12.56494 -12.56494
 Alpha  occ. eigenvalues --  -12.56462 -12.56462 -12.56457 -12.56452 -12.56372
 Alpha  occ. eigenvalues --   -6.56571  -4.72989  -4.72829  -4.72326  -1.80819
 Alpha  occ. eigenvalues --   -1.80796  -1.80653  -1.09466  -1.08703  -1.08682
 Alpha  occ. eigenvalues --   -1.08547  -1.08414  -1.08133  -1.08002  -1.07965
 Alpha  occ. eigenvalues --   -1.07789  -0.94944  -0.93480  -0.88635  -0.76476
 Alpha  occ. eigenvalues --   -0.53869  -0.39106  -0.37957  -0.36787  -0.35585
 Alpha  occ. eigenvalues --   -0.34759  -0.33239  -0.28867  -0.28375  -0.26315
 Alpha  occ. eigenvalues --   -0.23769  -0.20834  -0.18827  -0.11775
 Alpha virt. eigenvalues --   -0.08659  -0.07987  -0.02960  -0.02578  -0.00211
 Alpha virt. eigenvalues --   -0.00187   0.00649   0.01134   0.02010   0.02521
 Alpha virt. eigenvalues --    0.02637   0.06016   0.06219   0.07073   0.08430
 Alpha virt. eigenvalues --    0.11098   0.11167   0.11736   0.12436   0.13918
 Alpha virt. eigenvalues --    0.14404   0.15190   0.15887   0.16624   0.17531
 Alpha virt. eigenvalues --    0.18669   0.20619   0.21601   0.23541   0.24705
 Alpha virt. eigenvalues --    0.25234   0.26130   0.27025   0.28162   0.30599
 Alpha virt. eigenvalues --    0.31486   0.35434   0.35541   0.38503   0.41456
 Alpha virt. eigenvalues --    0.42099   0.42410   0.44083   0.46004   0.47489
 Alpha virt. eigenvalues --    0.48573   0.56317   0.56465   0.61372   0.70089
 Alpha virt. eigenvalues --    0.70187   0.76549   0.86332   0.97552   0.97770
 Alpha virt. eigenvalues --    1.03122   1.04678   1.10208   1.11356   1.13826
 Alpha virt. eigenvalues --    1.19887   1.21822   1.23188   1.25201   1.28760
 Alpha virt. eigenvalues --    1.30715   1.33619   1.44504   1.46502   1.47511
 Alpha virt. eigenvalues --    1.61124   1.65115   1.69624   1.82350   1.84411
 Alpha virt. eigenvalues --    1.86153   1.89232   1.91741   1.93918   1.94009
 Alpha virt. eigenvalues --    1.95484   1.96931   1.97341   1.98034   2.00141
 Alpha virt. eigenvalues --    2.09103   2.20230   2.22545   2.29842   2.30015
 Alpha virt. eigenvalues --    2.52693   2.67263   2.75698   3.07034   3.61834
 Alpha virt. eigenvalues --    3.81828   3.82660   3.88214   3.97185
          Condensed to atoms (all electrons):
              1          2          3          4          5          6
     1  O    8.532525  -0.001053  -0.003833  -0.036681   0.161443   0.005227
     2  O   -0.001053   8.366194   0.003875  -0.001051   0.006955   0.110514
     3  O   -0.003833   0.003875   8.408380  -0.003838  -0.003246   0.059762
     4  O   -0.036681  -0.001051  -0.003838   8.532610   0.161393   0.110650
     5  P    0.161443   0.006955  -0.003246   0.161393  13.683898   0.053525
     6  Ca   0.005227   0.110514   0.059762   0.110650   0.053525  18.871578
     7  Ca   0.110629   0.110510   0.059715   0.005236   0.053440  -0.087503
     8  Ca   0.107736  -0.011680   0.070353   0.107739  -0.043790   0.041218
     9  H   -0.032514   0.000023  -0.000034  -0.032510   0.242282  -0.022280
              7          8          9
     1  O    0.110629   0.107736  -0.032514
     2  O    0.110510  -0.011680   0.000023
     3  O    0.059715   0.070353  -0.000034
     4  O    0.005236   0.107739  -0.032510
     5  P    0.053440  -0.043790   0.242282
     6  Ca  -0.087503   0.041218  -0.022280
     7  Ca  18.872080   0.041396  -0.022265
     8  Ca   0.041396  19.080597   0.025934
     9  H   -0.022265   0.025934   0.957588
 Mulliken atomic charges:
              1
     1  O   -0.843479
     2  O   -0.584286
     3  O   -0.591133
     4  O   -0.843547
     5  P    0.684100
     6  Ca   0.857309
     7  Ca   0.856763
     8  Ca   0.580498
     9  H   -0.116224
 Sum of Mulliken charges=   0.00000
 Atomic charges with hydrogens summed into heavy atoms:
              1
     1  O   -0.843479
     2  O   -0.584286
     3  O   -0.591133
     4  O   -0.843547
     5  P    0.567876
     6  Ca   0.857309
     7  Ca   0.856763
     8  Ca   0.580498
     9  H    0.000000
 Sum of Mulliken charges=   0.00000
 Electronic spatial extent (au):  <R**2>=  1818.6333
 Charge=     0.0000 electrons
 Dipole moment (field-independent basis, Debye):
    X=     0.0084    Y=    -2.1466    Z=    -0.9284  Tot=     2.3388
 Quadrupole moment (field-independent basis, Debye-Ang):
   XX=   -82.6214   YY=   -96.6287   ZZ=   -95.6329
   XY=    -0.0129   XZ=     0.0111   YZ=     8.7310
 Traceless Quadrupole moment (field-independent basis, Debye-Ang):
   XX=     9.0063   YY=    -5.0010   ZZ=    -4.0053
   XY=    -0.0129   XZ=     0.0111   YZ=     8.7310
 Octapole moment (field-independent basis, Debye-Ang**2):
  XXX=     0.1412  YYY=     4.1684  ZZZ=   -49.3009  XYY=     0.0411
  XXY=   -32.2346  XXZ=   -26.6665  XZZ=     0.0361  YZZ=    -5.6265
  YYZ=   -12.0116  XYZ=    -0.0028
 Hexadecapole moment (field-independent basis, Debye-Ang**3):
 XXXX= -1422.6296 YYYY= -1061.2743 ZZZZ=  -943.0384 XXXY=    -0.0687
 XXXZ=     0.0634 YYYX=    -0.0186 YYYZ=   -10.9369 ZZZX=     0.1347
 ZZZY=   -21.4076 XXYY=  -394.6484 XXZZ=  -362.7169 YYZZ=  -316.6732
 XXYZ=     7.2593 YYXZ=     0.0172 ZZXY=     0.0141
 N-N= 9.247811127666D+02 E-N=-8.188587164538D+03  KE= 2.668730838016D+03
 Merz-Kollman atomic radii used.
 Read replacement radii for each type of atom:
 Rad(20) =   1.188000000000D+00
 Atom Element Radius
    1     8    1.40
    2     8    1.40
    3     8    1.40
    4     8    1.40
    5    15    1.80
    6    20    1.19
    7    20    1.19
    8    20    1.19
    9     1    1.20

 **********************************************************************

            Electrostatic Properties Using The SCF Density

 **********************************************************************

       Atomic Center    1 is at  -1.274921  1.186410 -0.336291
       Atomic Center    2 is at  -0.000181 -1.927309 -0.501795
       Atomic Center    3 is at  -0.000328 -1.315179  0.941875
       Atomic Center    4 is at   1.275809  1.186032 -0.334977
       Atomic Center    5 is at   0.001020  1.512361 -1.346399
       Atomic Center    6 is at   2.011954 -0.980017 -0.235526
       Atomic Center    7 is at  -2.012176 -0.979360 -0.236433
       Atomic Center    8 is at  -0.000754  1.025171  1.637271
       Atomic Center    9 is at   0.001203  2.959051 -1.260699
     741 points will be used for fitting atomic charges
 Fitting point charges to eletrostatic potential
 Charges from ESP fit, RMS=   0.03293 RRMS=   0.55634:
 Charge=   0.00000 Dipole=     0.2092    -3.5184     3.5291 Tot=     4.9877
              1
     1  O   -0.708506
     2  O   -0.468820
     3  O   -0.977590
     4  O   -0.697723
     5  P   -0.019210
     6  Ca   1.035512
     7  Ca   1.020136
     8  Ca   0.840748
     9  H   -0.024547
 -----------------------------------------------------------------

              Electrostatic Properties (Atomic Units)

 -----------------------------------------------------------------
    Center     Electric         -------- Electric Field --------
               Potential          X             Y             Z
 -----------------------------------------------------------------
    1 Atom    -22.369659
    2 Atom    -22.346991
    3 Atom    -22.342838
    4 Atom    -22.369729
    5 Atom    -54.106594
    6 Atom    -80.180194
    7 Atom    -80.180263
    8 Atom    -80.181286
    9 Atom     -1.157404
 -----------------------------------------------------------------
 1\1\GINC-N041\SP\RB3LYP\6-31G(d,p)\Ca3H1O4P1\TIMN\04-May-2015\0\\# b3l
 yp/6-31G(d,p) pop=(ReadRadii,MK)\\Ca3PO4_36\\0,1\O,0,-1.27493,1.1864,-
 0.336292\O,0,-0.000168,-1.92731,-0.501796\O,0,-0.000319,-1.31518,0.941
 874\O,0,1.2758,1.18604,-0.334978\P,0,0.001009,1.51236,-1.3464\Ca,0,2.0
 1196,-0.980004,-0.235527\Ca,0,-2.01217,-0.979376,-0.236434\Ca,0,-0.000
 762,1.02517,1.63727\H,0,0.001182,2.95905,-1.2607\\Version=EM64T-G03Rev
 E.01\State=1-A\HF=-2675.6462583\RMSD=1.111e-05\Thermal=0.\Dipole=0.003
 3034,-0.8445377,-0.365269\PG=C01 [X(Ca3H1O4P1)]\\@


 REALITY IS FOR PEOPLE WHO CAN'T FACE SCIENCE FICTION.
 Job cpu time:  0 days  0 hours  1 minutes 21.8 seconds.
 File lengths (MBytes):  RWF=     27 Int=      0 D2E=      0 Chk=     10 Scr=      1
 Normal termination of Gaussian 03 at Mon May  4 20:12:28 2015.
