 Entering Gaussian System, Link 0=/home/timn/tmp/g03.e01/g03
 Input=Ca3PO4_58.xyz.gjf
 Output=Ca3PO4_58.xyz.out
 Initial command:
 /home/timn/tmp/g03.e01/l1.exe /home/timn/tmp/g03.e01/Gau-31420.inp -scrdir=/home/timn/tmp/g03.e01/
 Default is to use a total of   2 processors:
                                2 via shared-memory
                                1 via Linda
 Entering Link 1 = /home/timn/tmp/g03.e01/l1.exe PID=     31421.
  
 Copyright (c) 1988,1990,1992,1993,1995,1998,2003,2004,2007, Gaussian, Inc.
                  All Rights Reserved.
  
 This is the Gaussian(R) 03 program.  It is based on the
 the Gaussian(R) 98 system (copyright 1998, Gaussian, Inc.),
 the Gaussian(R) 94 system (copyright 1995, Gaussian, Inc.),
 the Gaussian 92(TM) system (copyright 1992, Gaussian, Inc.),
 the Gaussian 90(TM) system (copyright 1990, Gaussian, Inc.),
 the Gaussian 88(TM) system (copyright 1988, Gaussian, Inc.),
 the Gaussian 86(TM) system (copyright 1986, Carnegie Mellon
 University), and the Gaussian 82(TM) system (copyright 1983,
 Carnegie Mellon University). Gaussian is a federally registered
 trademark of Gaussian, Inc.
  
 This software contains proprietary and confidential information,
 including trade secrets, belonging to Gaussian, Inc.
  
 This software is provided under written license and may be
 used, copied, transmitted, or stored only in accord with that
 written license.
  
 The following legend is applicable only to US Government
 contracts under FAR:
  
                    RESTRICTED RIGHTS LEGEND
  
 Use, reproduction and disclosure by the US Government is
 subject to restrictions as set forth in subparagraphs (a)
 and (c) of the Commercial Computer Software - Restricted
 Rights clause in FAR 52.227-19.
  
 Gaussian, Inc.
 340 Quinnipiac St., Bldg. 40, Wallingford CT 06492
  
  
 ---------------------------------------------------------------
 Warning -- This program may not be used in any manner that
 competes with the business of Gaussian, Inc. or will provide
 assistance to any competitor of Gaussian, Inc.  The licensee
 of this program is prohibited from giving any competitor of
 Gaussian, Inc. access to this program.  By using this program,
 the user acknowledges that Gaussian, Inc. is engaged in the
 business of creating and licensing software in the field of
 computational chemistry and represents and warrants to the
 licensee that it is not a competitor of Gaussian, Inc. and that
 it will not use this program in any manner prohibited above.
 ---------------------------------------------------------------
  

 Cite this work as:
 Gaussian 03, Revision E.01,
 M. J. Frisch, G. W. Trucks, H. B. Schlegel, G. E. Scuseria, 
 M. A. Robb, J. R. Cheeseman, J. A. Montgomery, Jr., T. Vreven, 
 K. N. Kudin, J. C. Burant, J. M. Millam, S. S. Iyengar, J. Tomasi, 
 V. Barone, B. Mennucci, M. Cossi, G. Scalmani, N. Rega, 
 G. A. Petersson, H. Nakatsuji, M. Hada, M. Ehara, K. Toyota, 
 R. Fukuda, J. Hasegawa, M. Ishida, T. Nakajima, Y. Honda, O. Kitao, 
 H. Nakai, M. Klene, X. Li, J. E. Knox, H. P. Hratchian, J. B. Cross, 
 V. Bakken, C. Adamo, J. Jaramillo, R. Gomperts, R. E. Stratmann, 
 O. Yazyev, A. J. Austin, R. Cammi, C. Pomelli, J. W. Ochterski, 
 P. Y. Ayala, K. Morokuma, G. A. Voth, P. Salvador, J. J. Dannenberg, 
 V. G. Zakrzewski, S. Dapprich, A. D. Daniels, M. C. Strain, 
 O. Farkas, D. K. Malick, A. D. Rabuck, K. Raghavachari, 
 J. B. Foresman, J. V. Ortiz, Q. Cui, A. G. Baboul, S. Clifford, 
 J. Cioslowski, B. B. Stefanov, G. Liu, A. Liashenko, P. Piskorz, 
 I. Komaromi, R. L. Martin, D. J. Fox, T. Keith, M. A. Al-Laham, 
 C. Y. Peng, A. Nanayakkara, M. Challacombe, P. M. W. Gill, 
 B. Johnson, W. Chen, M. W. Wong, C. Gonzalez, and J. A. Pople, 
 Gaussian, Inc., Wallingford CT, 2004.
 
 ******************************************
 Gaussian 03:  EM64T-G03RevE.01 11-Sep-2007
                 4-May-2015 
 ******************************************
 %nproc=2
 Will use up to    2 processors via shared memory.
 Default route:  MP2=Direct MaxDisk=2000MB
 -------------------------------------
 # b3lyp/6-31G(d,p) pop=(ReadRadii,MK)
 -------------------------------------
 1/38=1/1;
 2/17=6,18=5,40=1/2;
 3/5=1,6=6,7=101,11=2,16=1,25=1,30=1,74=-5/1,2,3;
 4//1;
 5/5=2,32=1,38=5/2;
 6/7=2,8=2,9=2,10=2,15=8,20=101,28=1/1,2;
 99/5=1,9=1/99;
 ---------
 Ca3PO4_58
 ---------
 Symbolic Z-matrix:
 Charge =  0 Multiplicity = 1
 O                     1.46916  -0.17274   0.977 
 O                    -4.39524  -0.11291  -0.31875 
 O                    -0.20206   0.33691  -0.91268 
 O                    -3.92169   0.27361   1.07343 
 P                     0.61597  -1.00651  -0.21894 
 Ca                   -2.20384  -0.49833  -0.28591 
 Ca                    3.52463  -0.77387   0.11715 
 Ca                    1.26606   1.90602  -0.07559 
 H                    -4.57781  -0.17768   1.61913 
 
                          Input orientation:                          
 ---------------------------------------------------------------------
 Center     Atomic     Atomic              Coordinates (Angstroms)
 Number     Number      Type              X           Y           Z
 ---------------------------------------------------------------------
    1          8             0        1.469160   -0.172744    0.976996
    2          8             0       -4.395240   -0.112907   -0.318754
    3          8             0       -0.202056    0.336912   -0.912677
    4          8             0       -3.921690    0.273607    1.073430
    5         15             0        0.615966   -1.006510   -0.218940
    6         20             0       -2.203840   -0.498328   -0.285909
    7         20             0        3.524630   -0.773872    0.117150
    8         20             0        1.266060    1.906020   -0.075591
    9          1             0       -4.577810   -0.177679    1.619130
 ---------------------------------------------------------------------
                    Distance matrix (angstroms):
                    1          2          3          4          5
     1  O    0.000000
     2  O    6.006142   0.000000
     3  O    2.573631   4.258858   0.000000
     4  O    5.410156   1.520467   4.217144   0.000000
     5  P    1.689192   5.091235   1.719073   4.888685   0.000000
     6  Ca   3.897674   2.225278   2.257787   2.322648   2.866015
     7  Ca   2.307736   7.959348   4.022757   7.580196   2.937244
     8  Ca   2.338899   6.015439   2.306117   5.558576   2.987642
     9  H    6.080971   1.947542   5.081542   0.965371   5.571425
                    6          7          8          9
     6  Ca   0.000000
     7  Ca   5.749239   0.000000
     8  Ca   4.226740   3.510001   0.000000
     9  H    3.060674   8.262017   6.431539   0.000000
 Stoichiometry    Ca3HO4P
 Framework group  C1[X(Ca3HO4P)]
 Deg. of freedom    21
 Full point group                 C1
 Largest Abelian subgroup         C1      NOp   1
 Largest concise Abelian subgroup C1      NOp   1
                         Standard orientation:                         
 ---------------------------------------------------------------------
 Center     Atomic     Atomic              Coordinates (Angstroms)
 Number     Number      Type              X           Y           Z
 ---------------------------------------------------------------------
    1          8             0        1.469159   -0.172744    0.976996
    2          8             0       -4.395241   -0.112907   -0.318754
    3          8             0       -0.202057    0.336912   -0.912677
    4          8             0       -3.921691    0.273607    1.073430
    5         15             0        0.615965   -1.006510   -0.218940
    6         20             0       -2.203841   -0.498328   -0.285909
    7         20             0        3.524629   -0.773872    0.117150
    8         20             0        1.266059    1.906020   -0.075591
    9          1             0       -4.577811   -0.177679    1.619130
 ---------------------------------------------------------------------
 Rotational constants (GHZ):      1.8655671      0.3523460      0.3175081
 Standard basis: 6-31G(d,p) (6D, 7F)
 There are   153 symmetry adapted basis functions of A   symmetry.
 Integral buffers will be    131072 words long.
 Raffenetti 2 integral format.
 Two-electron integral symmetry is turned on.
   153 basis functions,   399 primitive gaussians,   153 cartesian basis functions
    54 alpha electrons       54 beta electrons
       nuclear repulsion energy       804.4754961117 Hartrees.
 NAtoms=    9 NActive=    9 NUniq=    9 SFac= 7.50D-01 NAtFMM=   80 NAOKFM=F Big=F
 One-electron integrals computed using PRISM.
 NBasis=   153 RedAO= T  NBF=   153
 NBsUse=   153 1.00D-06 NBFU=   153
 Harris functional with IExCor=  402 diagonalized for initial guess.
 ExpMin= 2.60D-02 ExpMax= 3.53D+04 ExpMxC= 5.30D+03 IAcc=3 IRadAn=         5 AccDes= 0.00D+00
 HarFok:  IExCor= 402 AccDes= 0.00D+00 IRadAn=         5 IDoV=1
 ScaDFX=  1.000000  1.000000  1.000000  1.000000
 Initial guess orbital symmetries:
       Occupied  (A) (A) (A) (A) (A) (A) (A) (A) (A) (A) (A) (A)
                 (A) (A) (A) (A) (A) (A) (A) (A) (A) (A) (A) (A)
                 (A) (A) (A) (A) (A) (A) (A) (A) (A) (A) (A) (A)
                 (A) (A) (A) (A) (A) (A) (A) (A) (A) (A) (A) (A)
                 (A) (A) (A) (A) (A) (A)
       Virtual   (A) (A) (A) (A) (A) (A) (A) (A) (A) (A) (A) (A)
                 (A) (A) (A) (A) (A) (A) (A) (A) (A) (A) (A) (A)
                 (A) (A) (A) (A) (A) (A) (A) (A) (A) (A) (A) (A)
                 (A) (A) (A) (A) (A) (A) (A) (A) (A) (A) (A) (A)
                 (A) (A) (A) (A) (A) (A) (A) (A) (A) (A) (A) (A)
                 (A) (A) (A) (A) (A) (A) (A) (A) (A) (A) (A) (A)
                 (A) (A) (A) (A) (A) (A) (A) (A) (A) (A) (A) (A)
                 (A) (A) (A) (A) (A) (A) (A) (A) (A) (A) (A) (A)
                 (A) (A) (A)
 The electronic state of the initial guess is 1-A.
 Requested convergence on RMS density matrix=1.00D-04 within 128 cycles.
 Requested convergence on MAX density matrix=1.00D-02.
 Requested convergence on             energy=1.00D-02.
 No special actions if energy rises.
 EnCoef did     6 forward-backward iterations
 EnCoef did   100 forward-backward iterations
 EnCoef did   100 forward-backward iterations
 EnCoef did   100 forward-backward iterations
 SCF Done:  E(RB+HF-LYP) =  -2675.56867093     A.U. after   13 cycles
             Convg  =    0.7041D-04             -V/T =  2.0025
             S**2   =   0.0000

 **********************************************************************

            Population analysis using the SCF density.

 **********************************************************************

 Orbital symmetries:
       Occupied  (A) (A) (A) (A) (A) (A) (A) (A) (A) (A) (A) (A)
                 (A) (A) (A) (A) (A) (A) (A) (A) (A) (A) (A) (A)
                 (A) (A) (A) (A) (A) (A) (A) (A) (A) (A) (A) (A)
                 (A) (A) (A) (A) (A) (A) (A) (A) (A) (A) (A) (A)
                 (A) (A) (A) (A) (A) (A)
       Virtual   (A) (A) (A) (A) (A) (A) (A) (A) (A) (A) (A) (A)
                 (A) (A) (A) (A) (A) (A) (A) (A) (A) (A) (A) (A)
                 (A) (A) (A) (A) (A) (A) (A) (A) (A) (A) (A) (A)
                 (A) (A) (A) (A) (A) (A) (A) (A) (A) (A) (A) (A)
                 (A) (A) (A) (A) (A) (A) (A) (A) (A) (A) (A) (A)
                 (A) (A) (A) (A) (A) (A) (A) (A) (A) (A) (A) (A)
                 (A) (A) (A) (A) (A) (A) (A) (A) (A) (A) (A) (A)
                 (A) (A) (A) (A) (A) (A) (A) (A) (A) (A) (A) (A)
                 (A) (A) (A)
 The electronic state is 1-A.
 Alpha  occ. eigenvalues -- -145.37733-145.37341-145.34825 -77.08731 -19.18224
 Alpha  occ. eigenvalues --  -19.10634 -19.09951 -19.09284 -15.44864 -15.44467
 Alpha  occ. eigenvalues --  -15.42072 -12.58057 -12.58012 -12.57935 -12.57683
 Alpha  occ. eigenvalues --  -12.57608 -12.57530 -12.55300 -12.55264 -12.55064
 Alpha  occ. eigenvalues --   -6.54777  -4.71261  -4.70902  -4.70544  -1.82185
 Alpha  occ. eigenvalues --   -1.81851  -1.79777  -1.09962  -1.09638  -1.09535
 Alpha  occ. eigenvalues --   -1.09503  -1.09206  -1.09090  -1.08533  -1.07659
 Alpha  occ. eigenvalues --   -1.07503  -1.01935  -0.92295  -0.88041  -0.79391
 Alpha  occ. eigenvalues --   -0.50762  -0.48087  -0.38072  -0.36861  -0.35976
 Alpha  occ. eigenvalues --   -0.35106  -0.34538  -0.28641  -0.26822  -0.25982
 Alpha  occ. eigenvalues --   -0.23303  -0.20428  -0.14332  -0.13172
 Alpha virt. eigenvalues --   -0.08752  -0.04661  -0.03890  -0.02482  -0.01643
 Alpha virt. eigenvalues --   -0.01159  -0.00618   0.00440   0.02249   0.03028
 Alpha virt. eigenvalues --    0.03381   0.05610   0.06117   0.06549   0.08146
 Alpha virt. eigenvalues --    0.09010   0.09930   0.11707   0.12208   0.13859
 Alpha virt. eigenvalues --    0.14176   0.14485   0.15076   0.16247   0.16738
 Alpha virt. eigenvalues --    0.17802   0.19107   0.19828   0.21026   0.21393
 Alpha virt. eigenvalues --    0.21646   0.22613   0.23418   0.24752   0.27634
 Alpha virt. eigenvalues --    0.30171   0.31286   0.33631   0.36035   0.39975
 Alpha virt. eigenvalues --    0.40970   0.41163   0.41408   0.43226   0.44538
 Alpha virt. eigenvalues --    0.48449   0.50642   0.53534   0.61740   0.71732
 Alpha virt. eigenvalues --    0.76434   0.81766   0.84908   0.89386   0.91436
 Alpha virt. eigenvalues --    0.93397   0.97867   1.01700   1.03004   1.05387
 Alpha virt. eigenvalues --    1.08027   1.10608   1.15484   1.17052   1.21991
 Alpha virt. eigenvalues --    1.25350   1.32635   1.36364   1.42423   1.45665
 Alpha virt. eigenvalues --    1.51692   1.54027   1.58981   1.68853   1.85216
 Alpha virt. eigenvalues --    1.86217   1.87301   1.90431   1.90669   1.92567
 Alpha virt. eigenvalues --    1.94993   1.96507   1.99390   2.03991   2.06764
 Alpha virt. eigenvalues --    2.11941   2.33707   2.37448   2.43073   2.59624
 Alpha virt. eigenvalues --    2.65371   2.79137   3.01586   3.41616   3.58591
 Alpha virt. eigenvalues --    3.69888   3.80204   3.81972   3.89228
          Condensed to atoms (all electrons):
              1          2          3          4          5          6
     1  O    8.580456   0.000000  -0.035343   0.000000   0.077631  -0.011267
     2  O    0.000000   8.374382  -0.000069   0.009625  -0.000433   0.151472
     3  O   -0.035343  -0.000069   8.584648  -0.000010   0.054059   0.122087
     4  O    0.000000   0.009625  -0.000010   8.094637  -0.000421   0.066803
     5  P    0.077631  -0.000433   0.054059  -0.000421  14.338702   0.154785
     6  Ca  -0.011267   0.151472   0.122087   0.066803   0.154785  18.598016
     7  Ca   0.078697   0.000012  -0.010028  -0.000221   0.129937  -0.044377
     8  Ca   0.118604  -0.004290   0.132314   0.000012  -0.039296  -0.050972
     9  H    0.000000  -0.016958   0.000000   0.273654   0.000005  -0.010778
              7          8          9
     1  O    0.078697   0.118604   0.000000
     2  O    0.000012  -0.004290  -0.016958
     3  O   -0.010028   0.132314   0.000000
     4  O   -0.000221   0.000012   0.273654
     5  P    0.129937  -0.039296   0.000005
     6  Ca  -0.044377  -0.050972  -0.010778
     7  Ca  19.272137   0.173208   0.000011
     8  Ca   0.173208  19.111930  -0.000619
     9  H    0.000011  -0.000619   0.409421
 Mulliken atomic charges:
              1
     1  O   -0.808779
     2  O   -0.513741
     3  O   -0.847659
     4  O   -0.444079
     5  P    0.285031
     6  Ca   1.024230
     7  Ca   0.400623
     8  Ca   0.559109
     9  H    0.345264
 Sum of Mulliken charges=   0.00000
 Atomic charges with hydrogens summed into heavy atoms:
              1
     1  O   -0.808779
     2  O   -0.513741
     3  O   -0.847659
     4  O   -0.098815
     5  P    0.285031
     6  Ca   1.024230
     7  Ca   0.400623
     8  Ca   0.559109
     9  H    0.000000
 Sum of Mulliken charges=   0.00000
 Electronic spatial extent (au):  <R**2>=  3196.7616
 Charge=     0.0000 electrons
 Dipole moment (field-independent basis, Debye):
    X=     0.9218    Y=    -1.2301    Z=     1.5578  Tot=     2.1885
 Quadrupole moment (field-independent basis, Debye-Ang):
   XX=  -107.4387   YY=   -86.2814   ZZ=   -91.2593
   XY=    -1.2802   XZ=    -1.9880   YZ=     0.2502
 Traceless Quadrupole moment (field-independent basis, Debye-Ang):
   XX=   -12.4456   YY=     8.7117   ZZ=     3.7339
   XY=    -1.2802   XZ=    -1.9880   YZ=     0.2502
 Octapole moment (field-independent basis, Debye-Ang**2):
  XXX=   -17.0172  YYY=   -20.2575  ZZZ=    11.5008  XYY=   -44.9433
  XXY=   -74.9893  XXZ=    48.2248  XZZ=   -59.8414  YZZ=    -9.1100
  YYZ=     8.1723  XYZ=    -1.6051
 Hexadecapole moment (field-independent basis, Debye-Ang**3):
 XXXX= -4470.2417 YYYY=  -912.3550 ZZZZ=  -315.5928 XXXY=  -103.9800
 XXXZ=  -138.1771 YYYX=   -75.0239 YYYZ=     8.8055 ZZZX=    -8.5063
 ZZZY=     4.8304 XXYY=  -801.5283 XXZZ=  -624.4206 YYZZ=  -197.4451
 XXYZ=   -30.4072 YYXZ=    21.7803 ZZXY=     0.5544
 N-N= 8.044754961117D+02 E-N=-7.947646311410D+03  KE= 2.668831702547D+03
 Merz-Kollman atomic radii used.
 Read replacement radii for each type of atom:
 Rad(20) =   1.188000000000D+00
 Atom Element Radius
    1     8    1.40
    2     8    1.40
    3     8    1.40
    4     8    1.40
    5    15    1.80
    6    20    1.19
    7    20    1.19
    8    20    1.19
    9     1    1.20

 **********************************************************************

            Electrostatic Properties Using The SCF Density

 **********************************************************************

       Atomic Center    1 is at   1.469159 -0.172744  0.976996
       Atomic Center    2 is at  -4.395241 -0.112907 -0.318754
       Atomic Center    3 is at  -0.202057  0.336912 -0.912677
       Atomic Center    4 is at  -3.921691  0.273607  1.073430
       Atomic Center    5 is at   0.615965 -1.006510 -0.218940
       Atomic Center    6 is at  -2.203841 -0.498328 -0.285909
       Atomic Center    7 is at   3.524629 -0.773872  0.117150
       Atomic Center    8 is at   1.266059  1.906020 -0.075591
       Atomic Center    9 is at  -4.577811 -0.177679  1.619130
     868 points will be used for fitting atomic charges
 Fitting point charges to eletrostatic potential
 Charges from ESP fit, RMS=   0.03074 RRMS=   0.56207:
 Charge=   0.00000 Dipole=     9.1383     2.5883     0.3376 Tot=     9.5038
              1
     1  O   -0.361669
     2  O   -0.753297
     3  O   -0.503227
     4  O   -0.414061
     5  P   -0.773186
     6  Ca   1.511966
     7  Ca   0.476883
     8  Ca   0.558402
     9  H    0.258189
 -----------------------------------------------------------------

              Electrostatic Properties (Atomic Units)

 -----------------------------------------------------------------
    Center     Electric         -------- Electric Field --------
               Potential          X             Y             Z
 -----------------------------------------------------------------
    1 Atom    -22.372425
    2 Atom    -22.367683
    3 Atom    -22.365128
    4 Atom    -22.283260
    5 Atom    -54.128849
    6 Atom    -80.193729
    7 Atom    -80.167995
    8 Atom    -80.171027
    9 Atom     -0.999549
 -----------------------------------------------------------------
 1\1\GINC-N028\SP\RB3LYP\6-31G(d,p)\Ca3H1O4P1\TIMN\04-May-2015\0\\# b3l
 yp/6-31G(d,p) pop=(ReadRadii,MK)\\Ca3PO4_58\\0,1\O,0,1.46916,-0.172744
 ,0.976996\O,0,-4.39524,-0.112907,-0.318754\O,0,-0.202056,0.336912,-0.9
 12677\O,0,-3.92169,0.273607,1.07343\P,0,0.615966,-1.00651,-0.21894\Ca,
 0,-2.20384,-0.498328,-0.285909\Ca,0,3.52463,-0.773872,0.11715\Ca,0,1.2
 6606,1.90602,-0.075591\H,0,-4.57781,-0.177679,1.61913\\Version=EM64T-G
 03RevE.01\State=1-A\HF=-2675.5686709\RMSD=7.041e-05\Thermal=0.\Dipole=
 0.3626456,-0.4839538,0.612873\PG=C01 [X(Ca3H1O4P1)]\\@


 IT IS BY LOGIC THAT WE PROVE, BUT BY INTUITION THAT WE DISCOVER.
     -- J.H.POINCARE (1854-1912)
 Job cpu time:  0 days  0 hours  0 minutes 59.2 seconds.
 File lengths (MBytes):  RWF=     27 Int=      0 D2E=      0 Chk=     10 Scr=      1
 Normal termination of Gaussian 03 at Mon May  4 20:12:58 2015.
