 Entering Gaussian System, Link 0=/home/timn/tmp/g03.e01/g03
 Input=Ca3PO4_153.xyz.gjf
 Output=Ca3PO4_153.xyz.out
 Initial command:
 /home/timn/tmp/g03.e01/l1.exe /home/timn/tmp/g03.e01/Gau-13002.inp -scrdir=/home/timn/tmp/g03.e01/
 Default is to use a total of   2 processors:
                                2 via shared-memory
                                1 via Linda
 Entering Link 1 = /home/timn/tmp/g03.e01/l1.exe PID=     13003.
  
 Copyright (c) 1988,1990,1992,1993,1995,1998,2003,2004,2007, Gaussian, Inc.
                  All Rights Reserved.
  
 This is the Gaussian(R) 03 program.  It is based on the
 the Gaussian(R) 98 system (copyright 1998, Gaussian, Inc.),
 the Gaussian(R) 94 system (copyright 1995, Gaussian, Inc.),
 the Gaussian 92(TM) system (copyright 1992, Gaussian, Inc.),
 the Gaussian 90(TM) system (copyright 1990, Gaussian, Inc.),
 the Gaussian 88(TM) system (copyright 1988, Gaussian, Inc.),
 the Gaussian 86(TM) system (copyright 1986, Carnegie Mellon
 University), and the Gaussian 82(TM) system (copyright 1983,
 Carnegie Mellon University). Gaussian is a federally registered
 trademark of Gaussian, Inc.
  
 This software contains proprietary and confidential information,
 including trade secrets, belonging to Gaussian, Inc.
  
 This software is provided under written license and may be
 used, copied, transmitted, or stored only in accord with that
 written license.
  
 The following legend is applicable only to US Government
 contracts under FAR:
  
                    RESTRICTED RIGHTS LEGEND
  
 Use, reproduction and disclosure by the US Government is
 subject to restrictions as set forth in subparagraphs (a)
 and (c) of the Commercial Computer Software - Restricted
 Rights clause in FAR 52.227-19.
  
 Gaussian, Inc.
 340 Quinnipiac St., Bldg. 40, Wallingford CT 06492
  
  
 ---------------------------------------------------------------
 Warning -- This program may not be used in any manner that
 competes with the business of Gaussian, Inc. or will provide
 assistance to any competitor of Gaussian, Inc.  The licensee
 of this program is prohibited from giving any competitor of
 Gaussian, Inc. access to this program.  By using this program,
 the user acknowledges that Gaussian, Inc. is engaged in the
 business of creating and licensing software in the field of
 computational chemistry and represents and warrants to the
 licensee that it is not a competitor of Gaussian, Inc. and that
 it will not use this program in any manner prohibited above.
 ---------------------------------------------------------------
  

 Cite this work as:
 Gaussian 03, Revision E.01,
 M. J. Frisch, G. W. Trucks, H. B. Schlegel, G. E. Scuseria, 
 M. A. Robb, J. R. Cheeseman, J. A. Montgomery, Jr., T. Vreven, 
 K. N. Kudin, J. C. Burant, J. M. Millam, S. S. Iyengar, J. Tomasi, 
 V. Barone, B. Mennucci, M. Cossi, G. Scalmani, N. Rega, 
 G. A. Petersson, H. Nakatsuji, M. Hada, M. Ehara, K. Toyota, 
 R. Fukuda, J. Hasegawa, M. Ishida, T. Nakajima, Y. Honda, O. Kitao, 
 H. Nakai, M. Klene, X. Li, J. E. Knox, H. P. Hratchian, J. B. Cross, 
 V. Bakken, C. Adamo, J. Jaramillo, R. Gomperts, R. E. Stratmann, 
 O. Yazyev, A. J. Austin, R. Cammi, C. Pomelli, J. W. Ochterski, 
 P. Y. Ayala, K. Morokuma, G. A. Voth, P. Salvador, J. J. Dannenberg, 
 V. G. Zakrzewski, S. Dapprich, A. D. Daniels, M. C. Strain, 
 O. Farkas, D. K. Malick, A. D. Rabuck, K. Raghavachari, 
 J. B. Foresman, J. V. Ortiz, Q. Cui, A. G. Baboul, S. Clifford, 
 J. Cioslowski, B. B. Stefanov, G. Liu, A. Liashenko, P. Piskorz, 
 I. Komaromi, R. L. Martin, D. J. Fox, T. Keith, M. A. Al-Laham, 
 C. Y. Peng, A. Nanayakkara, M. Challacombe, P. M. W. Gill, 
 B. Johnson, W. Chen, M. W. Wong, C. Gonzalez, and J. A. Pople, 
 Gaussian, Inc., Wallingford CT, 2004.
 
 ******************************************
 Gaussian 03:  EM64T-G03RevE.01 11-Sep-2007
                 4-May-2015 
 ******************************************
 %nproc=2
 Will use up to    2 processors via shared memory.
 Default route:  MP2=Direct MaxDisk=2000MB
 -------------------------------------
 # b3lyp/6-31G(d,p) pop=(ReadRadii,MK)
 -------------------------------------
 1/38=1/1;
 2/17=6,18=5,40=1/2;
 3/5=1,6=6,7=101,11=2,16=1,25=1,30=1,74=-5/1,2,3;
 4//1;
 5/5=2,32=1,38=5/2;
 6/7=2,8=2,9=2,10=2,15=8,20=101,28=1/1,2;
 99/5=1,9=1/99;
 ----------
 Ca3PO4_153
 ----------
 Symbolic Z-matrix:
 Charge =  0 Multiplicity = 1
 O                     2.02919  -1.28873  -0.59432 
 O                     2.01469   1.28682  -0.59242 
 O                    -1.27552  -0.00791  -0.36598 
 O                     0.50681   0.00838   2.07038 
 P                     2.78269   0.00365  -0.95491 
 Ca                   -0.02395   1.58937   0.50122 
 Ca                   -3.42773  -0.00717  -0.64102 
 Ca                   -0.00497  -1.58543   0.51158 
 H                     1.19099   0.02142   2.74685 
 
                          Input orientation:                          
 ---------------------------------------------------------------------
 Center     Atomic     Atomic              Coordinates (Angstroms)
 Number     Number      Type              X           Y           Z
 ---------------------------------------------------------------------
    1          8             0        2.029190   -1.288730   -0.594324
    2          8             0        2.014690    1.286820   -0.592419
    3          8             0       -1.275520   -0.007906   -0.365979
    4          8             0        0.506808    0.008378    2.070380
    5         15             0        2.782690    0.003647   -0.954907
    6         20             0       -0.023946    1.589370    0.501217
    7         20             0       -3.427730   -0.007170   -0.641024
    8         20             0       -0.004967   -1.585430    0.511579
    9          1             0        1.190990    0.021417    2.746850
 ---------------------------------------------------------------------
                    Distance matrix (angstroms):
                    1          2          3          4          5
     1  O    0.000000
     2  O    2.575592   0.000000
     3  O    3.551586   3.543032   0.000000
     4  O    3.331784   3.316417   3.018742   0.000000
     5  P    1.538837   1.538751   4.100736   3.785766   0.000000
     6  Ca   3.701221   2.333155   2.206753   2.289871   3.537233
     7  Ca   5.605582   5.594346   2.169714   4.778341   6.218356
     8  Ca   2.334277   3.680713   2.207486   2.287356   3.527999
     9  H    3.685445   3.664757   3.971679   0.962230   4.029495
                    6          7          8          9
     6  Ca   0.000000
     7  Ca   3.929300   0.000000
     8  Ca   3.174874   3.941409   0.000000
     9  H    2.996233   5.728096   3.001451   0.000000
 Stoichiometry    Ca3HO4P
 Framework group  C1[X(Ca3HO4P)]
 Deg. of freedom    21
 Full point group                 C1
 Largest Abelian subgroup         C1      NOp   1
 Largest concise Abelian subgroup C1      NOp   1
                         Standard orientation:                         
 ---------------------------------------------------------------------
 Center     Atomic     Atomic              Coordinates (Angstroms)
 Number     Number      Type              X           Y           Z
 ---------------------------------------------------------------------
    1          8             0        2.029192   -1.288730   -0.594324
    2          8             0        2.014691    1.286820   -0.592419
    3          8             0       -1.275518   -0.007906   -0.365979
    4          8             0        0.506810    0.008378    2.070380
    5         15             0        2.782692    0.003647   -0.954907
    6         20             0       -0.023945    1.589370    0.501217
    7         20             0       -3.427728   -0.007171   -0.641024
    8         20             0       -0.004965   -1.585430    0.511579
    9          1             0        1.190992    0.021417    2.746850
 ---------------------------------------------------------------------
 Rotational constants (GHZ):      1.2354091      0.4923789      0.4487335
 Standard basis: 6-31G(d,p) (6D, 7F)
 There are   153 symmetry adapted basis functions of A   symmetry.
 Integral buffers will be    131072 words long.
 Raffenetti 2 integral format.
 Two-electron integral symmetry is turned on.
   153 basis functions,   399 primitive gaussians,   153 cartesian basis functions
    54 alpha electrons       54 beta electrons
       nuclear repulsion energy       843.0663745573 Hartrees.
 NAtoms=    9 NActive=    9 NUniq=    9 SFac= 7.50D-01 NAtFMM=   80 NAOKFM=F Big=F
 One-electron integrals computed using PRISM.
 NBasis=   153 RedAO= T  NBF=   153
 NBsUse=   153 1.00D-06 NBFU=   153
 Harris functional with IExCor=  402 diagonalized for initial guess.
 ExpMin= 2.60D-02 ExpMax= 3.53D+04 ExpMxC= 5.30D+03 IAcc=3 IRadAn=         5 AccDes= 0.00D+00
 HarFok:  IExCor= 402 AccDes= 0.00D+00 IRadAn=         5 IDoV=1
 ScaDFX=  1.000000  1.000000  1.000000  1.000000
 Initial guess orbital symmetries:
       Occupied  (A) (A) (A) (A) (A) (A) (A) (A) (A) (A) (A) (A)
                 (A) (A) (A) (A) (A) (A) (A) (A) (A) (A) (A) (A)
                 (A) (A) (A) (A) (A) (A) (A) (A) (A) (A) (A) (A)
                 (A) (A) (A) (A) (A) (A) (A) (A) (A) (A) (A) (A)
                 (A) (A) (A) (A) (A) (A)
       Virtual   (A) (A) (A) (A) (A) (A) (A) (A) (A) (A) (A) (A)
                 (A) (A) (A) (A) (A) (A) (A) (A) (A) (A) (A) (A)
                 (A) (A) (A) (A) (A) (A) (A) (A) (A) (A) (A) (A)
                 (A) (A) (A) (A) (A) (A) (A) (A) (A) (A) (A) (A)
                 (A) (A) (A) (A) (A) (A) (A) (A) (A) (A) (A) (A)
                 (A) (A) (A) (A) (A) (A) (A) (A) (A) (A) (A) (A)
                 (A) (A) (A) (A) (A) (A) (A) (A) (A) (A) (A) (A)
                 (A) (A) (A) (A) (A) (A) (A) (A) (A) (A) (A) (A)
                 (A) (A) (A)
 The electronic state of the initial guess is 1-A.
 Requested convergence on RMS density matrix=1.00D-04 within 128 cycles.
 Requested convergence on MAX density matrix=1.00D-02.
 Requested convergence on             energy=1.00D-02.
 No special actions if energy rises.
 SCF Done:  E(RB+HF-LYP) =  -2675.78821398     A.U. after   10 cycles
             Convg  =    0.4579D-04             -V/T =  2.0026
             S**2   =   0.0000

 **********************************************************************

            Population analysis using the SCF density.

 **********************************************************************

 Orbital symmetries:
       Occupied  (A) (A) (A) (A) (A) (A) (A) (A) (A) (A) (A) (A)
                 (A) (A) (A) (A) (A) (A) (A) (A) (A) (A) (A) (A)
                 (A) (A) (A) (A) (A) (A) (A) (A) (A) (A) (A) (A)
                 (A) (A) (A) (A) (A) (A) (A) (A) (A) (A) (A) (A)
                 (A) (A) (A) (A) (A) (A)
       Virtual   (A) (A) (A) (A) (A) (A) (A) (A) (A) (A) (A) (A)
                 (A) (A) (A) (A) (A) (A) (A) (A) (A) (A) (A) (A)
                 (A) (A) (A) (A) (A) (A) (A) (A) (A) (A) (A) (A)
                 (A) (A) (A) (A) (A) (A) (A) (A) (A) (A) (A) (A)
                 (A) (A) (A) (A) (A) (A) (A) (A) (A) (A) (A) (A)
                 (A) (A) (A) (A) (A) (A) (A) (A) (A) (A) (A) (A)
                 (A) (A) (A) (A) (A) (A) (A) (A) (A) (A) (A) (A)
                 (A) (A) (A) (A) (A) (A) (A) (A) (A) (A) (A) (A)
                 (A) (A) (A)
 The electronic state is 1-A.
 Alpha  occ. eigenvalues -- -145.33803-145.33759-145.33640 -77.15013 -19.13099
 Alpha  occ. eigenvalues --  -19.12937 -19.08590 -19.02797 -15.40945 -15.40902
 Alpha  occ. eigenvalues --  -15.40843 -12.54133 -12.54089 -12.54083 -12.54044
 Alpha  occ. eigenvalues --  -12.54041 -12.54026 -12.54021 -12.54002 -12.53860
 Alpha  occ. eigenvalues --   -6.60716  -4.77153  -4.76921  -4.76506  -1.78582
 Alpha  occ. eigenvalues --   -1.78469  -1.78313  -1.07091  -1.06392  -1.06241
 Alpha  occ. eigenvalues --   -1.06210  -1.05940  -1.05929  -1.05761  -1.05526
 Alpha  occ. eigenvalues --   -1.05278  -0.98973  -0.93768  -0.89991  -0.77990
 Alpha  occ. eigenvalues --   -0.52483  -0.41905  -0.41672  -0.38183  -0.37900
 Alpha  occ. eigenvalues --   -0.30637  -0.29324  -0.28043  -0.26781  -0.25461
 Alpha  occ. eigenvalues --   -0.24009  -0.23660  -0.21771  -0.12073
 Alpha virt. eigenvalues --   -0.06683  -0.06655  -0.04988  -0.02068  -0.01889
 Alpha virt. eigenvalues --   -0.00433   0.00740   0.00831   0.02076   0.02164
 Alpha virt. eigenvalues --    0.04585   0.04690   0.06393   0.09622   0.10342
 Alpha virt. eigenvalues --    0.12305   0.12380   0.13612   0.13782   0.14290
 Alpha virt. eigenvalues --    0.15539   0.16307   0.17692   0.17786   0.18298
 Alpha virt. eigenvalues --    0.21058   0.21783   0.22194   0.23211   0.24137
 Alpha virt. eigenvalues --    0.25204   0.25675   0.27083   0.27581   0.28202
 Alpha virt. eigenvalues --    0.30727   0.32798   0.34423   0.36554   0.39143
 Alpha virt. eigenvalues --    0.42413   0.43788   0.45962   0.46083   0.46926
 Alpha virt. eigenvalues --    0.48054   0.48181   0.53252   0.65804   0.68044
 Alpha virt. eigenvalues --    0.68592   0.73136   0.88398   0.90650   1.00156
 Alpha virt. eigenvalues --    1.00623   1.02153   1.04313   1.06043   1.14483
 Alpha virt. eigenvalues --    1.14598   1.16105   1.20327   1.22748   1.26962
 Alpha virt. eigenvalues --    1.29318   1.34218   1.35772   1.39266   1.46500
 Alpha virt. eigenvalues --    1.57561   1.70230   1.75002   1.79870   1.82695
 Alpha virt. eigenvalues --    1.83056   1.85695   1.90853   1.91446   1.93619
 Alpha virt. eigenvalues --    1.94664   1.95841   1.98632   2.00817   2.01934
 Alpha virt. eigenvalues --    2.02406   2.06214   2.22130   2.40824   2.67447
 Alpha virt. eigenvalues --    2.68994   2.69082   2.79794   3.44973   3.49206
 Alpha virt. eigenvalues --    3.70401   3.78854   3.88455   4.03963
          Condensed to atoms (all electrons):
              1          2          3          4          5          6
     1  O    8.321694  -0.029120  -0.000706  -0.001751   0.258892  -0.000682
     2  O   -0.029120   8.316301  -0.000734  -0.001840   0.260745   0.122373
     3  O   -0.000706  -0.000734   8.497597  -0.005015  -0.001448   0.164969
     4  O   -0.001751  -0.001840  -0.005015   8.321384   0.003634   0.137982
     5  P    0.258892   0.260745  -0.001448   0.003634  13.728987   0.009360
     6  Ca  -0.000682   0.122373   0.164969   0.137982   0.009360  18.821664
     7  Ca  -0.007758  -0.007878   0.119516  -0.020812   0.006479   0.011734
     8  Ca   0.122074  -0.000686   0.165158   0.137745   0.010663  -0.287139
     9  H   -0.000126  -0.000127   0.000183   0.264419   0.000878  -0.010040
              7          8          9
     1  O   -0.007758   0.122074  -0.000126
     2  O   -0.007878  -0.000686  -0.000127
     3  O    0.119516   0.165158   0.000183
     4  O   -0.020812   0.137745   0.264419
     5  P    0.006479   0.010663   0.000878
     6  Ca   0.011734  -0.287139  -0.010040
     7  Ca  19.849235   0.014070   0.004903
     8  Ca   0.014070  18.816965  -0.010005
     9  H    0.004903  -0.010005   0.466351
 Mulliken atomic charges:
              1
     1  O   -0.662516
     2  O   -0.659034
     3  O   -0.939521
     4  O   -0.835745
     5  P    0.721807
     6  Ca   1.029778
     7  Ca   0.030511
     8  Ca   1.031154
     9  H    0.283565
 Sum of Mulliken charges=   0.00000
 Atomic charges with hydrogens summed into heavy atoms:
              1
     1  O   -0.662516
     2  O   -0.659034
     3  O   -0.939521
     4  O   -0.552180
     5  P    0.721807
     6  Ca   1.029778
     7  Ca   0.030511
     8  Ca   1.031154
     9  H    0.000000
 Sum of Mulliken charges=   0.00000
 Electronic spatial extent (au):  <R**2>=  2495.7515
 Charge=     0.0000 electrons
 Dipole moment (field-independent basis, Debye):
    X=     1.8425    Y=    -0.0005    Z=     2.6152  Tot=     3.1991
 Quadrupole moment (field-independent basis, Debye-Ang):
   XX=  -111.3500   YY=   -74.5196   ZZ=   -91.7752
   XY=     0.0914   XZ=     5.5459   YZ=    -0.0799
 Traceless Quadrupole moment (field-independent basis, Debye-Ang):
   XX=   -18.8017   YY=    18.0286   ZZ=     0.7731
   XY=     0.0914   XZ=     5.5459   YZ=    -0.0799
 Octapole moment (field-independent basis, Debye-Ang**2):
  XXX=   147.7159  YYY=    -0.4256  ZZZ=    13.1386  XYY=    31.5769
  XXY=    -0.0736  XXZ=    14.3437  XZZ=    45.0893  YZZ=    -0.0295
  YYZ=    25.1295  XYZ=    -0.0819
 Hexadecapole moment (field-independent basis, Debye-Ang**3):
 XXXX= -3255.3025 YYYY=  -772.9662 ZZZZ=  -576.2807 XXXY=     1.6995
 XXXZ=     1.7218 YYYX=     0.2230 YYYZ=    -0.4417 ZZZX=   -13.0112
 ZZZY=     0.3455 XXYY=  -697.4369 XXZZ=  -584.4386 YYZZ=  -230.4971
 XXYZ=     0.1234 YYXZ=    -0.4629 ZZXY=     0.3232
 N-N= 8.430663745573D+02 E-N=-8.026329769275D+03  KE= 2.668909449009D+03
 Merz-Kollman atomic radii used.
 Read replacement radii for each type of atom:
 Rad(20) =   1.188000000000D+00
 Atom Element Radius
    1     8    1.40
    2     8    1.40
    3     8    1.40
    4     8    1.40
    5    15    1.80
    6    20    1.19
    7    20    1.19
    8    20    1.19
    9     1    1.20

 **********************************************************************

            Electrostatic Properties Using The SCF Density

 **********************************************************************

       Atomic Center    1 is at   2.029192 -1.288730 -0.594324
       Atomic Center    2 is at   2.014691  1.286820 -0.592419
       Atomic Center    3 is at  -1.275518 -0.007906 -0.365979
       Atomic Center    4 is at   0.506810  0.008378  2.070380
       Atomic Center    5 is at   2.782692  0.003647 -0.954907
       Atomic Center    6 is at  -0.023945  1.589370  0.501217
       Atomic Center    7 is at  -3.427728 -0.007171 -0.641024
       Atomic Center    8 is at  -0.004965 -1.585430  0.511579
       Atomic Center    9 is at   1.190992  0.021417  2.746850
     832 points will be used for fitting atomic charges
 Fitting point charges to eletrostatic potential
 Charges from ESP fit, RMS=   0.03056 RRMS=   0.59770:
 Charge=   0.00000 Dipole=    -6.6710     0.0270     2.5759 Tot=     7.1511
              1
     1  O   -0.354446
     2  O   -0.345665
     3  O   -0.928804
     4  O   -1.197086
     5  P   -0.095655
     6  Ca   1.136541
     7  Ca   0.219363
     8  Ca   1.146134
     9  H    0.419619
 -----------------------------------------------------------------

              Electrostatic Properties (Atomic Units)

 -----------------------------------------------------------------
    Center     Electric         -------- Electric Field --------
               Potential          X             Y             Z
 -----------------------------------------------------------------
    1 Atom    -22.336509
    2 Atom    -22.332042
    3 Atom    -22.434229
    4 Atom    -22.370623
    5 Atom    -54.067034
    6 Atom    -80.203877
    7 Atom    -80.209925
    8 Atom    -80.203952
    9 Atom     -1.049141
 -----------------------------------------------------------------
 1\1\GINC-N029\SP\RB3LYP\6-31G(d,p)\Ca3H1O4P1\TIMN\04-May-2015\0\\# b3l
 yp/6-31G(d,p) pop=(ReadRadii,MK)\\Ca3PO4_153\\0,1\O,0,2.02919,-1.28873
 ,-0.594324\O,0,2.01469,1.28682,-0.592419\O,0,-1.27552,-0.007906,-0.365
 979\O,0,0.506808,0.008378,2.07038\P,0,2.78269,0.003647,-0.954907\Ca,0,
 -0.023946,1.58937,0.501217\Ca,0,-3.42773,-0.00717,-0.641024\Ca,0,-0.00
 4967,-1.58543,0.511579\H,0,1.19099,0.021417,2.74685\\Version=EM64T-G03
 RevE.01\State=1-A\HF=-2675.788214\RMSD=4.579e-05\Thermal=0.\Dipole=0.7
 249121,-0.0002094,1.0288899\PG=C01 [X(Ca3H1O4P1)]\\@


 WHEN YOU'VE SEEN ONE NUCLEAR WAR YOU'VE SEEN THEM ALL.
 Job cpu time:  0 days  0 hours  0 minutes 53.3 seconds.
 File lengths (MBytes):  RWF=     27 Int=      0 D2E=      0 Chk=     10 Scr=      1
 Normal termination of Gaussian 03 at Mon May  4 20:10:26 2015.
