 Entering Gaussian System, Link 0=/home/timn/tmp/g03.e01/g03
 Input=Ca3PO4_213.xyz.gjf
 Output=Ca3PO4_213.xyz.out
 Initial command:
 /home/timn/tmp/g03.e01/l1.exe /home/timn/tmp/g03.e01/Gau-15367.inp -scrdir=/home/timn/tmp/g03.e01/
 Default is to use a total of   2 processors:
                                2 via shared-memory
                                1 via Linda
 Entering Link 1 = /home/timn/tmp/g03.e01/l1.exe PID=     15368.
  
 Copyright (c) 1988,1990,1992,1993,1995,1998,2003,2004,2007, Gaussian, Inc.
                  All Rights Reserved.
  
 This is the Gaussian(R) 03 program.  It is based on the
 the Gaussian(R) 98 system (copyright 1998, Gaussian, Inc.),
 the Gaussian(R) 94 system (copyright 1995, Gaussian, Inc.),
 the Gaussian 92(TM) system (copyright 1992, Gaussian, Inc.),
 the Gaussian 90(TM) system (copyright 1990, Gaussian, Inc.),
 the Gaussian 88(TM) system (copyright 1988, Gaussian, Inc.),
 the Gaussian 86(TM) system (copyright 1986, Carnegie Mellon
 University), and the Gaussian 82(TM) system (copyright 1983,
 Carnegie Mellon University). Gaussian is a federally registered
 trademark of Gaussian, Inc.
  
 This software contains proprietary and confidential information,
 including trade secrets, belonging to Gaussian, Inc.
  
 This software is provided under written license and may be
 used, copied, transmitted, or stored only in accord with that
 written license.
  
 The following legend is applicable only to US Government
 contracts under FAR:
  
                    RESTRICTED RIGHTS LEGEND
  
 Use, reproduction and disclosure by the US Government is
 subject to restrictions as set forth in subparagraphs (a)
 and (c) of the Commercial Computer Software - Restricted
 Rights clause in FAR 52.227-19.
  
 Gaussian, Inc.
 340 Quinnipiac St., Bldg. 40, Wallingford CT 06492
  
  
 ---------------------------------------------------------------
 Warning -- This program may not be used in any manner that
 competes with the business of Gaussian, Inc. or will provide
 assistance to any competitor of Gaussian, Inc.  The licensee
 of this program is prohibited from giving any competitor of
 Gaussian, Inc. access to this program.  By using this program,
 the user acknowledges that Gaussian, Inc. is engaged in the
 business of creating and licensing software in the field of
 computational chemistry and represents and warrants to the
 licensee that it is not a competitor of Gaussian, Inc. and that
 it will not use this program in any manner prohibited above.
 ---------------------------------------------------------------
  

 Cite this work as:
 Gaussian 03, Revision E.01,
 M. J. Frisch, G. W. Trucks, H. B. Schlegel, G. E. Scuseria, 
 M. A. Robb, J. R. Cheeseman, J. A. Montgomery, Jr., T. Vreven, 
 K. N. Kudin, J. C. Burant, J. M. Millam, S. S. Iyengar, J. Tomasi, 
 V. Barone, B. Mennucci, M. Cossi, G. Scalmani, N. Rega, 
 G. A. Petersson, H. Nakatsuji, M. Hada, M. Ehara, K. Toyota, 
 R. Fukuda, J. Hasegawa, M. Ishida, T. Nakajima, Y. Honda, O. Kitao, 
 H. Nakai, M. Klene, X. Li, J. E. Knox, H. P. Hratchian, J. B. Cross, 
 V. Bakken, C. Adamo, J. Jaramillo, R. Gomperts, R. E. Stratmann, 
 O. Yazyev, A. J. Austin, R. Cammi, C. Pomelli, J. W. Ochterski, 
 P. Y. Ayala, K. Morokuma, G. A. Voth, P. Salvador, J. J. Dannenberg, 
 V. G. Zakrzewski, S. Dapprich, A. D. Daniels, M. C. Strain, 
 O. Farkas, D. K. Malick, A. D. Rabuck, K. Raghavachari, 
 J. B. Foresman, J. V. Ortiz, Q. Cui, A. G. Baboul, S. Clifford, 
 J. Cioslowski, B. B. Stefanov, G. Liu, A. Liashenko, P. Piskorz, 
 I. Komaromi, R. L. Martin, D. J. Fox, T. Keith, M. A. Al-Laham, 
 C. Y. Peng, A. Nanayakkara, M. Challacombe, P. M. W. Gill, 
 B. Johnson, W. Chen, M. W. Wong, C. Gonzalez, and J. A. Pople, 
 Gaussian, Inc., Wallingford CT, 2004.
 
 ******************************************
 Gaussian 03:  EM64T-G03RevE.01 11-Sep-2007
                 4-May-2015 
 ******************************************
 %nproc=2
 Will use up to    2 processors via shared memory.
 Default route:  MP2=Direct MaxDisk=2000MB
 -------------------------------------
 # b3lyp/6-31G(d,p) pop=(ReadRadii,MK)
 -------------------------------------
 1/38=1/1;
 2/17=6,18=5,40=1/2;
 3/5=1,6=6,7=101,11=2,16=1,25=1,30=1,74=-5/1,2,3;
 4//1;
 5/5=2,32=1,38=5/2;
 6/7=2,8=2,9=2,10=2,15=8,20=101,28=1/1,2;
 99/5=1,9=1/99;
 ----------
 Ca3PO4_213
 ----------
 Symbolic Z-matrix:
 Charge =  0 Multiplicity = 1
 O                    -4.45439   1.24133   0.08811 
 O                    -4.46122  -1.23789  -0.08368 
 O                     3.44282  -0.77588   0.13745 
 O                     3.44127   0.77496  -0.1374 
 P                    -5.37397   0.00405   0.00561 
 Ca                    1.342    -0.00329  -0.00551 
 Ca                   -2.41473  -0.0036   -0.00497 
 Ca                    5.53346   0.00246   0.00409 
 H                     7.64707   0.00763   0.00767 
 
                          Input orientation:                          
 ---------------------------------------------------------------------
 Center     Atomic     Atomic              Coordinates (Angstroms)
 Number     Number      Type              X           Y           Z
 ---------------------------------------------------------------------
    1          8             0       -4.454390    1.241330    0.088114
    2          8             0       -4.461220   -1.237890   -0.083676
    3          8             0        3.442820   -0.775883    0.137448
    4          8             0        3.441270    0.774956   -0.137404
    5         15             0       -5.373970    0.004049    0.005613
    6         20             0        1.342000   -0.003287   -0.005506
    7         20             0       -2.414730   -0.003600   -0.004967
    8         20             0        5.533460    0.002463    0.004088
    9          1             0        7.647070    0.007626    0.007671
 ---------------------------------------------------------------------
                    Distance matrix (angstroms):
                    1          2          3          4          5
     1  O    0.000000
     2  O    2.485174   0.000000
     3  O    8.150921   7.920618   0.000000
     4  O    7.912636   8.154985   1.575007   0.000000
     5  P    1.543793   1.543858   8.852201   8.850040   0.000000
     6  Ca   5.929247   5.933609   2.242941   2.242765   6.715983
     7  Ca   2.391386   2.391190   5.909957   5.909012   2.959269
     8  Ca  10.064740  10.071733   2.234812   2.234731  10.907430
     9  H   12.164449  12.172524   4.278603   4.277686  13.021041
                    6          7          8          9
     6  Ca   0.000000
     7  Ca   3.756730   0.000000
     8  Ca   4.191475   7.948197   0.000000
     9  H    6.305093  10.061814   2.113619   0.000000
 Stoichiometry    Ca3HO4P
 Framework group  C1[X(Ca3HO4P)]
 Deg. of freedom    21
 Full point group                 C1
 Largest Abelian subgroup         C1      NOp   1
 Largest concise Abelian subgroup C1      NOp   1
                         Standard orientation:                         
 ---------------------------------------------------------------------
 Center     Atomic     Atomic              Coordinates (Angstroms)
 Number     Number      Type              X           Y           Z
 ---------------------------------------------------------------------
    1          8             0       -4.454390    1.241330    0.088114
    2          8             0       -4.461220   -1.237890   -0.083676
    3          8             0        3.442820   -0.775883    0.137448
    4          8             0        3.441270    0.774956   -0.137404
    5         15             0       -5.373970    0.004049    0.005613
    6         20             0        1.342000   -0.003287   -0.005506
    7         20             0       -2.414730   -0.003600   -0.004967
    8         20             0        5.533460    0.002463    0.004088
    9          1             0        7.647070    0.007626    0.007671
 ---------------------------------------------------------------------
 Rotational constants (GHZ):      7.2992185      0.1445250      0.1417861
 Standard basis: 6-31G(d,p) (6D, 7F)
 There are   153 symmetry adapted basis functions of A   symmetry.
 Integral buffers will be    131072 words long.
 Raffenetti 2 integral format.
 Two-electron integral symmetry is turned on.
   153 basis functions,   399 primitive gaussians,   153 cartesian basis functions
    54 alpha electrons       54 beta electrons
       nuclear repulsion energy       681.0566385830 Hartrees.
 NAtoms=    9 NActive=    9 NUniq=    9 SFac= 7.50D-01 NAtFMM=   80 NAOKFM=F Big=F
 One-electron integrals computed using PRISM.
 NBasis=   153 RedAO= T  NBF=   153
 NBsUse=   153 1.00D-06 NBFU=   153
 Harris functional with IExCor=  402 diagonalized for initial guess.
 ExpMin= 2.60D-02 ExpMax= 3.53D+04 ExpMxC= 5.30D+03 IAcc=3 IRadAn=         5 AccDes= 0.00D+00
 HarFok:  IExCor= 402 AccDes= 0.00D+00 IRadAn=         5 IDoV=1
 ScaDFX=  1.000000  1.000000  1.000000  1.000000
 Initial guess orbital symmetries:
       Occupied  (A) (A) (A) (A) (A) (A) (A) (A) (A) (A) (A) (A)
                 (A) (A) (A) (A) (A) (A) (A) (A) (A) (A) (A) (A)
                 (A) (A) (A) (A) (A) (A) (A) (A) (A) (A) (A) (A)
                 (A) (A) (A) (A) (A) (A) (A) (A) (A) (A) (A) (A)
                 (A) (A) (A) (A) (A) (A)
       Virtual   (A) (A) (A) (A) (A) (A) (A) (A) (A) (A) (A) (A)
                 (A) (A) (A) (A) (A) (A) (A) (A) (A) (A) (A) (A)
                 (A) (A) (A) (A) (A) (A) (A) (A) (A) (A) (A) (A)
                 (A) (A) (A) (A) (A) (A) (A) (A) (A) (A) (A) (A)
                 (A) (A) (A) (A) (A) (A) (A) (A) (A) (A) (A) (A)
                 (A) (A) (A) (A) (A) (A) (A) (A) (A) (A) (A) (A)
                 (A) (A) (A) (A) (A) (A) (A) (A) (A) (A) (A) (A)
                 (A) (A) (A) (A) (A) (A) (A) (A) (A) (A) (A) (A)
                 (A) (A) (A)
 The electronic state of the initial guess is 1-A.
 Requested convergence on RMS density matrix=1.00D-04 within 128 cycles.
 Requested convergence on MAX density matrix=1.00D-02.
 Requested convergence on             energy=1.00D-02.
 No special actions if energy rises.
 Rare condition: small coef for last iteration:  0.000D+00
 EnCoef did   100 forward-backward iterations
 EnCoef did   100 forward-backward iterations
 EnCoef did   100 forward-backward iterations
 SCF Done:  E(RB+HF-LYP) =  -2675.61663717     A.U. after   13 cycles
             Convg  =    0.8554D-04             -V/T =  2.0025
             S**2   =   0.0000

 **********************************************************************

            Population analysis using the SCF density.

 **********************************************************************

 Orbital symmetries:
       Occupied  (A) (A) (A) (A) (A) (A) (A) (A) (A) (A) (A) (A)
                 (A) (A) (A) (A) (A) (A) (A) (A) (A) (A) (A) (A)
                 (A) (A) (A) (A) (A) (A) (A) (A) (A) (A) (A) (A)
                 (A) (A) (A) (A) (A) (A) (A) (A) (A) (A) (A) (A)
                 (A) (A) (A) (A) (A) (A)
       Virtual   (A) (A) (A) (A) (A) (A) (A) (A) (A) (A) (A) (A)
                 (A) (A) (A) (A) (A) (A) (A) (A) (A) (A) (A) (A)
                 (A) (A) (A) (A) (A) (A) (A) (A) (A) (A) (A) (A)
                 (A) (A) (A) (A) (A) (A) (A) (A) (A) (A) (A) (A)
                 (A) (A) (A) (A) (A) (A) (A) (A) (A) (A) (A) (A)
                 (A) (A) (A) (A) (A) (A) (A) (A) (A) (A) (A) (A)
                 (A) (A) (A) (A) (A) (A) (A) (A) (A) (A) (A) (A)
                 (A) (A) (A) (A) (A) (A) (A) (A) (A) (A) (A) (A)
                 (A) (A) (A)
 The electronic state is 1-A.
 Alpha  occ. eigenvalues -- -145.38266-145.35745-145.34759 -77.15473 -19.13463
 Alpha  occ. eigenvalues --  -19.13458 -19.11374 -19.11343 -15.45458 -15.42984
 Alpha  occ. eigenvalues --  -15.42091 -12.58680 -12.58617 -12.58480 -12.56212
 Alpha  occ. eigenvalues --  -12.56157 -12.55977 -12.55338 -12.55281 -12.55026
 Alpha  occ. eigenvalues --   -6.61396  -4.77827  -4.77564  -4.77189  -1.82903
 Alpha  occ. eigenvalues --   -1.80596  -1.79843  -1.10716  -1.10356  -1.10314
 Alpha  occ. eigenvalues --   -1.08570  -1.08481  -1.08220  -1.07956  -1.07675
 Alpha  occ. eigenvalues --   -1.06823  -1.00014  -0.94034  -0.93596  -0.75481
 Alpha  occ. eigenvalues --   -0.52341  -0.41019  -0.39493  -0.38933  -0.35100
 Alpha  occ. eigenvalues --   -0.34263  -0.32164  -0.30541  -0.29386  -0.27349
 Alpha  occ. eigenvalues --   -0.23809  -0.21247  -0.19461  -0.16727
 Alpha virt. eigenvalues --   -0.06137  -0.04773  -0.04723  -0.04421  -0.02872
 Alpha virt. eigenvalues --   -0.01535  -0.00924   0.00632   0.01040   0.01925
 Alpha virt. eigenvalues --    0.04634   0.05613   0.06168   0.07342   0.08446
 Alpha virt. eigenvalues --    0.09634   0.10082   0.10743   0.12219   0.13565
 Alpha virt. eigenvalues --    0.13765   0.14421   0.14721   0.16060   0.16275
 Alpha virt. eigenvalues --    0.19493   0.19596   0.19798   0.20756   0.20962
 Alpha virt. eigenvalues --    0.21438   0.21965   0.23339   0.27630   0.28150
 Alpha virt. eigenvalues --    0.30022   0.31062   0.32448   0.32507   0.33986
 Alpha virt. eigenvalues --    0.34535   0.37187   0.40623   0.41775   0.42452
 Alpha virt. eigenvalues --    0.44133   0.46016   0.49080   0.51938   0.67245
 Alpha virt. eigenvalues --    0.67560   0.74969   0.86646   0.90984   0.96007
 Alpha virt. eigenvalues --    0.97868   1.01628   1.02503   1.02662   1.03753
 Alpha virt. eigenvalues --    1.05319   1.07198   1.14700   1.17213   1.22391
 Alpha virt. eigenvalues --    1.26331   1.27582   1.36842   1.39023   1.44690
 Alpha virt. eigenvalues --    1.47743   1.59570   1.63435   1.79384   1.81975
 Alpha virt. eigenvalues --    1.84339   1.84860   1.85815   1.86796   1.91006
 Alpha virt. eigenvalues --    1.91278   1.96815   1.96988   1.99697   2.02435
 Alpha virt. eigenvalues --    2.14452   2.15093   2.19338   2.29508   2.29997
 Alpha virt. eigenvalues --    2.43184   2.66524   2.77880   3.03542   3.47303
 Alpha virt. eigenvalues --    3.66237   3.70188   3.78500   3.81317
          Condensed to atoms (all electrons):
              1          2          3          4          5          6
     1  O    8.327461  -0.049620   0.000000   0.000000   0.262414  -0.004539
     2  O   -0.049620   8.327388   0.000000   0.000000   0.262306  -0.004497
     3  O    0.000000   0.000000   8.422252  -0.007750   0.000000   0.106729
     4  O    0.000000   0.000000  -0.007750   8.423289   0.000000   0.106621
     5  P    0.262414   0.262306   0.000000   0.000000  13.683907   0.000316
     6  Ca  -0.004539  -0.004497   0.106729   0.106621   0.000316  19.062987
     7  Ca   0.115363   0.115449  -0.001320  -0.001345   0.045828   0.321218
     8  Ca  -0.000009  -0.000009   0.097763   0.097733   0.000005  -0.022552
     9  H    0.000000   0.000000  -0.000205  -0.000205   0.000000   0.019005
              7          8          9
     1  O    0.115363  -0.000009   0.000000
     2  O    0.115449  -0.000009   0.000000
     3  O   -0.001320   0.097763  -0.000205
     4  O   -0.001345   0.097733  -0.000205
     5  P    0.045828   0.000005   0.000000
     6  Ca   0.321218  -0.022552   0.019005
     7  Ca  18.687509  -0.005705   0.000074
     8  Ca  -0.005705  18.580886   0.324093
     9  H    0.000074   0.324093   0.929999
 Mulliken atomic charges:
              1
     1  O   -0.651071
     2  O   -0.651016
     3  O   -0.617469
     4  O   -0.618343
     5  P    0.745223
     6  Ca   0.414712
     7  Ca   0.722928
     8  Ca   0.927796
     9  H   -0.272760
 Sum of Mulliken charges=   0.00000
 Atomic charges with hydrogens summed into heavy atoms:
              1
     1  O   -0.651071
     2  O   -0.651016
     3  O   -0.617469
     4  O   -0.618343
     5  P    0.745223
     6  Ca   0.414712
     7  Ca   0.722928
     8  Ca   0.655036
     9  H    0.000000
 Sum of Mulliken charges=   0.00000
 Electronic spatial extent (au):  <R**2>=  6667.3080
 Charge=     0.0000 electrons
 Dipole moment (field-independent basis, Debye):
    X=    -1.2486    Y=    -0.0232    Z=    -0.0211  Tot=     1.2490
 Quadrupole moment (field-independent basis, Debye-Ang):
   XX=  -151.6458   YY=   -94.9342   ZZ=   -80.9936
   XY=    -0.1008   XZ=    -0.0317   YZ=    -0.0352
 Traceless Quadrupole moment (field-independent basis, Debye-Ang):
   XX=   -42.4546   YY=    14.2570   ZZ=    28.1976
   XY=    -0.1008   XZ=    -0.0317   YZ=    -0.0352
 Octapole moment (field-independent basis, Debye-Ang**2):
  XXX=  -443.6455  YYY=     0.0038  ZZZ=     0.1055  XYY=    31.9375
  XXY=    -0.8091  XXZ=    -0.8959  XZZ=    -0.4673  YZZ=     0.0151
  YYZ=     0.0111  XYZ=     5.5692
 Hexadecapole moment (field-independent basis, Debye-Ang**3):
 XXXX=-14282.1660 YYYY=  -318.6837 ZZZZ=  -149.8716 XXXY=    -8.6266
 XXXZ=    -5.7506 YYYX=    -0.1849 YYYZ=    -1.5359 ZZZX=    -0.2985
 ZZZY=     0.3381 XXYY= -1624.0467 XXZZ= -1349.8116 YYZZ=   -76.6345
 XXYZ=    -5.4306 YYXZ=     0.0012 ZZXY=    -0.1073
 N-N= 6.810566385830D+02 E-N=-7.700159539779D+03  KE= 2.668897314862D+03
 Merz-Kollman atomic radii used.
 Read replacement radii for each type of atom:
 Rad(20) =   1.188000000000D+00
 Atom Element Radius
    1     8    1.40
    2     8    1.40
    3     8    1.40
    4     8    1.40
    5    15    1.80
    6    20    1.19
    7    20    1.19
    8    20    1.19
    9     1    1.20

 **********************************************************************

            Electrostatic Properties Using The SCF Density

 **********************************************************************

       Atomic Center    1 is at  -4.454390  1.241330  0.088114
       Atomic Center    2 is at  -4.461220 -1.237890 -0.083676
       Atomic Center    3 is at   3.442820 -0.775883  0.137448
       Atomic Center    4 is at   3.441270  0.774956 -0.137404
       Atomic Center    5 is at  -5.373970  0.004049  0.005613
       Atomic Center    6 is at   1.342000 -0.003287 -0.005506
       Atomic Center    7 is at  -2.414730 -0.003600 -0.004967
       Atomic Center    8 is at   5.533460  0.002463  0.004088
       Atomic Center    9 is at   7.647070  0.007626  0.007671
    1050 points will be used for fitting atomic charges
 Fitting point charges to eletrostatic potential
 Charges from ESP fit, RMS=   0.02220 RRMS=   0.43307:
 Charge=   0.00000 Dipole=    -0.9994     0.0039    -0.0267 Tot=     0.9998
              1
     1  O   -0.352253
     2  O   -0.358531
     3  O   -0.558943
     4  O   -0.560262
     5  P    0.162108
     6  Ca   0.528181
     7  Ca   0.515669
     8  Ca   1.366729
     9  H   -0.742698
 -----------------------------------------------------------------

              Electrostatic Properties (Atomic Units)

 -----------------------------------------------------------------
    Center     Electric         -------- Electric Field --------
               Potential          X             Y             Z
 -----------------------------------------------------------------
    1 Atom    -22.331443
    2 Atom    -22.331263
    3 Atom    -22.357392
    4 Atom    -22.358321
    5 Atom    -54.061370
    6 Atom    -80.187396
    7 Atom    -80.160312
    8 Atom    -80.196584
    9 Atom     -1.212489
 -----------------------------------------------------------------
 1\1\GINC-N023\SP\RB3LYP\6-31G(d,p)\Ca3H1O4P1\TIMN\04-May-2015\0\\# b3l
 yp/6-31G(d,p) pop=(ReadRadii,MK)\\Ca3PO4_213\\0,1\O,0,-4.45439,1.24133
 ,0.088114\O,0,-4.46122,-1.23789,-0.083676\O,0,3.44282,-0.775883,0.1374
 48\O,0,3.44127,0.774956,-0.137404\P,0,-5.37397,0.004049,0.005613\Ca,0,
 1.342,-0.003287,-0.005506\Ca,0,-2.41473,-0.0036,-0.004967\Ca,0,5.53346
 ,0.002463,0.004088\H,0,7.64707,0.007626,0.007671\\Version=EM64T-G03Rev
 E.01\State=1-A\HF=-2675.6166372\RMSD=8.554e-05\Thermal=0.\Dipole=-0.49
 12206,-0.0091101,-0.0083128\PG=C01 [X(Ca3H1O4P1)]\\@


 A leading authority is anyone who has guessed right more than once.
 -- Frank A. Clark
 Job cpu time:  0 days  0 hours  0 minutes 45.5 seconds.
 File lengths (MBytes):  RWF=     27 Int=      0 D2E=      0 Chk=     10 Scr=      1
 Normal termination of Gaussian 03 at Mon May  4 20:11:40 2015.
