 Entering Gaussian System, Link 0=/home/timn/tmp/g03.e01/g03
 Input=Ca3PO4_135.xyz.gjf
 Output=Ca3PO4_135.xyz.out
 Initial command:
 /home/timn/tmp/g03.e01/l1.exe /home/timn/tmp/g03.e01/Gau-30856.inp -scrdir=/home/timn/tmp/g03.e01/
 Default is to use a total of   2 processors:
                                2 via shared-memory
                                1 via Linda
 Entering Link 1 = /home/timn/tmp/g03.e01/l1.exe PID=     30857.
  
 Copyright (c) 1988,1990,1992,1993,1995,1998,2003,2004,2007, Gaussian, Inc.
                  All Rights Reserved.
  
 This is the Gaussian(R) 03 program.  It is based on the
 the Gaussian(R) 98 system (copyright 1998, Gaussian, Inc.),
 the Gaussian(R) 94 system (copyright 1995, Gaussian, Inc.),
 the Gaussian 92(TM) system (copyright 1992, Gaussian, Inc.),
 the Gaussian 90(TM) system (copyright 1990, Gaussian, Inc.),
 the Gaussian 88(TM) system (copyright 1988, Gaussian, Inc.),
 the Gaussian 86(TM) system (copyright 1986, Carnegie Mellon
 University), and the Gaussian 82(TM) system (copyright 1983,
 Carnegie Mellon University). Gaussian is a federally registered
 trademark of Gaussian, Inc.
  
 This software contains proprietary and confidential information,
 including trade secrets, belonging to Gaussian, Inc.
  
 This software is provided under written license and may be
 used, copied, transmitted, or stored only in accord with that
 written license.
  
 The following legend is applicable only to US Government
 contracts under FAR:
  
                    RESTRICTED RIGHTS LEGEND
  
 Use, reproduction and disclosure by the US Government is
 subject to restrictions as set forth in subparagraphs (a)
 and (c) of the Commercial Computer Software - Restricted
 Rights clause in FAR 52.227-19.
  
 Gaussian, Inc.
 340 Quinnipiac St., Bldg. 40, Wallingford CT 06492
  
  
 ---------------------------------------------------------------
 Warning -- This program may not be used in any manner that
 competes with the business of Gaussian, Inc. or will provide
 assistance to any competitor of Gaussian, Inc.  The licensee
 of this program is prohibited from giving any competitor of
 Gaussian, Inc. access to this program.  By using this program,
 the user acknowledges that Gaussian, Inc. is engaged in the
 business of creating and licensing software in the field of
 computational chemistry and represents and warrants to the
 licensee that it is not a competitor of Gaussian, Inc. and that
 it will not use this program in any manner prohibited above.
 ---------------------------------------------------------------
  

 Cite this work as:
 Gaussian 03, Revision E.01,
 M. J. Frisch, G. W. Trucks, H. B. Schlegel, G. E. Scuseria, 
 M. A. Robb, J. R. Cheeseman, J. A. Montgomery, Jr., T. Vreven, 
 K. N. Kudin, J. C. Burant, J. M. Millam, S. S. Iyengar, J. Tomasi, 
 V. Barone, B. Mennucci, M. Cossi, G. Scalmani, N. Rega, 
 G. A. Petersson, H. Nakatsuji, M. Hada, M. Ehara, K. Toyota, 
 R. Fukuda, J. Hasegawa, M. Ishida, T. Nakajima, Y. Honda, O. Kitao, 
 H. Nakai, M. Klene, X. Li, J. E. Knox, H. P. Hratchian, J. B. Cross, 
 V. Bakken, C. Adamo, J. Jaramillo, R. Gomperts, R. E. Stratmann, 
 O. Yazyev, A. J. Austin, R. Cammi, C. Pomelli, J. W. Ochterski, 
 P. Y. Ayala, K. Morokuma, G. A. Voth, P. Salvador, J. J. Dannenberg, 
 V. G. Zakrzewski, S. Dapprich, A. D. Daniels, M. C. Strain, 
 O. Farkas, D. K. Malick, A. D. Rabuck, K. Raghavachari, 
 J. B. Foresman, J. V. Ortiz, Q. Cui, A. G. Baboul, S. Clifford, 
 J. Cioslowski, B. B. Stefanov, G. Liu, A. Liashenko, P. Piskorz, 
 I. Komaromi, R. L. Martin, D. J. Fox, T. Keith, M. A. Al-Laham, 
 C. Y. Peng, A. Nanayakkara, M. Challacombe, P. M. W. Gill, 
 B. Johnson, W. Chen, M. W. Wong, C. Gonzalez, and J. A. Pople, 
 Gaussian, Inc., Wallingford CT, 2004.
 
 ******************************************
 Gaussian 03:  EM64T-G03RevE.01 11-Sep-2007
                 4-May-2015 
 ******************************************
 %nproc=2
 Will use up to    2 processors via shared memory.
 Default route:  MP2=Direct MaxDisk=2000MB
 -------------------------------------
 # b3lyp/6-31G(d,p) pop=(ReadRadii,MK)
 -------------------------------------
 1/38=1/1;
 2/17=6,18=5,40=1/2;
 3/5=1,6=6,7=101,11=2,16=1,25=1,30=1,74=-5/1,2,3;
 4//1;
 5/5=2,32=1,38=5/2;
 6/7=2,8=2,9=2,10=2,15=8,20=101,28=1/1,2;
 99/5=1,9=1/99;
 ----------
 Ca3PO4_135
 ----------
 Symbolic Z-matrix:
 Charge =  0 Multiplicity = 1
 O                    -1.65272   0.04619   1.08936 
 O                    -1.84218  -1.58429  -0.87446 
 O                     0.92215   1.10769  -0.41546 
 O                     2.40283  -1.54534   0.39956 
 P                    -2.60117  -0.38857  -0.1897 
 Ca                    2.98029   0.4155   -0.14774 
 Ca                   -1.00736   1.9353    0.03608 
 Ca                    0.23435  -1.22152   0.15204 
 H                    -3.76847  -0.9514    0.44603 
 
                          Input orientation:                          
 ---------------------------------------------------------------------
 Center     Atomic     Atomic              Coordinates (Angstroms)
 Number     Number      Type              X           Y           Z
 ---------------------------------------------------------------------
    1          8             0       -1.652720    0.046194    1.089360
    2          8             0       -1.842180   -1.584290   -0.874460
    3          8             0        0.922152    1.107690   -0.415462
    4          8             0        2.402830   -1.545340    0.399561
    5         15             0       -2.601170   -0.388565   -0.189704
    6         20             0        2.980290    0.415503   -0.147744
    7         20             0       -1.007360    1.935300    0.036078
    8         20             0        0.234348   -1.221520    0.152043
    9          1             0       -3.768470   -0.951404    0.446027
 ---------------------------------------------------------------------
                    Distance matrix (angstroms):
                    1          2          3          4          5
     1  O    0.000000
     2  O    2.559485   0.000000
     3  O    3.165632   3.885739   0.000000
     4  O    4.410928   4.432241   3.145670   0.000000
     5  P    1.650629   1.573123   3.834520   5.169659   0.000000
     6  Ca   4.809532   5.271006   2.187859   2.116107   5.639236
     7  Ca   2.257125   3.730083   2.147520   4.886345   2.826934
     8  Ca   2.459001   2.344628   2.494064   2.206454   2.975024
     9  H    2.426000   2.419674   5.194609   6.199989   1.443444
                    6          7          8          9
     6  Ca   0.000000
     7  Ca   4.271408   0.000000
     8  Ca   3.210905   3.394230   0.000000
     9  H    6.911350   4.015576   4.022678   0.000000
 Stoichiometry    Ca3HO4P
 Framework group  C1[X(Ca3HO4P)]
 Deg. of freedom    21
 Full point group                 C1
 Largest Abelian subgroup         C1      NOp   1
 Largest concise Abelian subgroup C1      NOp   1
                         Standard orientation:                         
 ---------------------------------------------------------------------
 Center     Atomic     Atomic              Coordinates (Angstroms)
 Number     Number      Type              X           Y           Z
 ---------------------------------------------------------------------
    1          8             0       -1.652722    0.046197    1.089360
    2          8             0       -1.842183   -1.584286   -0.874460
    3          8             0        0.922151    1.107691   -0.415462
    4          8             0        2.402827   -1.545341    0.399561
    5         15             0       -2.601172   -0.388561   -0.189704
    6         20             0        2.980289    0.415502   -0.147744
    7         20             0       -1.007360    1.935303    0.036078
    8         20             0        0.234345   -1.221519    0.152043
    9          1             0       -3.768473   -0.951399    0.446027
 ---------------------------------------------------------------------
 Rotational constants (GHZ):      1.4059257      0.5841191      0.4412636
 Standard basis: 6-31G(d,p) (6D, 7F)
 There are   153 symmetry adapted basis functions of A   symmetry.
 Integral buffers will be    131072 words long.
 Raffenetti 2 integral format.
 Two-electron integral symmetry is turned on.
   153 basis functions,   399 primitive gaussians,   153 cartesian basis functions
    54 alpha electrons       54 beta electrons
       nuclear repulsion energy       871.4196314547 Hartrees.
 NAtoms=    9 NActive=    9 NUniq=    9 SFac= 7.50D-01 NAtFMM=   80 NAOKFM=F Big=F
 One-electron integrals computed using PRISM.
 NBasis=   153 RedAO= T  NBF=   153
 NBsUse=   153 1.00D-06 NBFU=   153
 Harris functional with IExCor=  402 diagonalized for initial guess.
 ExpMin= 2.60D-02 ExpMax= 3.53D+04 ExpMxC= 5.30D+03 IAcc=3 IRadAn=         5 AccDes= 0.00D+00
 HarFok:  IExCor= 402 AccDes= 0.00D+00 IRadAn=         5 IDoV=1
 ScaDFX=  1.000000  1.000000  1.000000  1.000000
 Initial guess orbital symmetries:
       Occupied  (A) (A) (A) (A) (A) (A) (A) (A) (A) (A) (A) (A)
                 (A) (A) (A) (A) (A) (A) (A) (A) (A) (A) (A) (A)
                 (A) (A) (A) (A) (A) (A) (A) (A) (A) (A) (A) (A)
                 (A) (A) (A) (A) (A) (A) (A) (A) (A) (A) (A) (A)
                 (A) (A) (A) (A) (A) (A)
       Virtual   (A) (A) (A) (A) (A) (A) (A) (A) (A) (A) (A) (A)
                 (A) (A) (A) (A) (A) (A) (A) (A) (A) (A) (A) (A)
                 (A) (A) (A) (A) (A) (A) (A) (A) (A) (A) (A) (A)
                 (A) (A) (A) (A) (A) (A) (A) (A) (A) (A) (A) (A)
                 (A) (A) (A) (A) (A) (A) (A) (A) (A) (A) (A) (A)
                 (A) (A) (A) (A) (A) (A) (A) (A) (A) (A) (A) (A)
                 (A) (A) (A) (A) (A) (A) (A) (A) (A) (A) (A) (A)
                 (A) (A) (A) (A) (A) (A) (A) (A) (A) (A) (A) (A)
                 (A) (A) (A)
 The electronic state of the initial guess is 1-A.
 Requested convergence on RMS density matrix=1.00D-04 within 128 cycles.
 Requested convergence on MAX density matrix=1.00D-02.
 Requested convergence on             energy=1.00D-02.
 No special actions if energy rises.
 EnCoef did     4 forward-backward iterations
 EnCoef did     6 forward-backward iterations
 EnCoef did     5 forward-backward iterations
 SCF Done:  E(RB+HF-LYP) =  -2675.71573214     A.U. after   11 cycles
             Convg  =    0.3750D-04             -V/T =  2.0025
             S**2   =   0.0000

 **********************************************************************

            Population analysis using the SCF density.

 **********************************************************************

 Orbital symmetries:
       Occupied  (A) (A) (A) (A) (A) (A) (A) (A) (A) (A) (A) (A)
                 (A) (A) (A) (A) (A) (A) (A) (A) (A) (A) (A) (A)
                 (A) (A) (A) (A) (A) (A) (A) (A) (A) (A) (A) (A)
                 (A) (A) (A) (A) (A) (A) (A) (A) (A) (A) (A) (A)
                 (A) (A) (A) (A) (A) (A)
       Virtual   (A) (A) (A) (A) (A) (A) (A) (A) (A) (A) (A) (A)
                 (A) (A) (A) (A) (A) (A) (A) (A) (A) (A) (A) (A)
                 (A) (A) (A) (A) (A) (A) (A) (A) (A) (A) (A) (A)
                 (A) (A) (A) (A) (A) (A) (A) (A) (A) (A) (A) (A)
                 (A) (A) (A) (A) (A) (A) (A) (A) (A) (A) (A) (A)
                 (A) (A) (A) (A) (A) (A) (A) (A) (A) (A) (A) (A)
                 (A) (A) (A) (A) (A) (A) (A) (A) (A) (A) (A) (A)
                 (A) (A) (A) (A) (A) (A) (A) (A) (A) (A) (A) (A)
                 (A) (A) (A)
 The electronic state is 1-A.
 Alpha  occ. eigenvalues -- -145.35791-145.32668-145.27295 -77.09325 -19.07195
 Alpha  occ. eigenvalues --  -19.05457 -19.02347 -18.98230 -15.42912 -15.39813
 Alpha  occ. eigenvalues --  -15.34522 -12.56134 -12.56057 -12.55971 -12.53031
 Alpha  occ. eigenvalues --  -12.52962 -12.52847 -12.47751 -12.47705 -12.47523
 Alpha  occ. eigenvalues --   -6.55179  -4.71568  -4.71425  -4.71075  -1.80475
 Alpha  occ. eigenvalues --   -1.77473  -1.72324  -1.08440  -1.08139  -1.07543
 Alpha  occ. eigenvalues --   -1.05456  -1.05089  -1.04461  -1.00408  -1.00157
 Alpha  occ. eigenvalues --   -0.99903  -0.91384  -0.86365  -0.76829  -0.71798
 Alpha  occ. eigenvalues --   -0.51137  -0.37357  -0.34338  -0.33110  -0.26895
 Alpha  occ. eigenvalues --   -0.24943  -0.23342  -0.23105  -0.21750  -0.20781
 Alpha  occ. eigenvalues --   -0.17279  -0.16208  -0.15747  -0.15573
 Alpha virt. eigenvalues --   -0.08670  -0.07458  -0.01627  -0.00472  -0.00196
 Alpha virt. eigenvalues --    0.00799   0.01463   0.02761   0.03298   0.04628
 Alpha virt. eigenvalues --    0.06026   0.06699   0.07373   0.09266   0.10014
 Alpha virt. eigenvalues --    0.11626   0.13576   0.14152   0.14989   0.15394
 Alpha virt. eigenvalues --    0.16612   0.18515   0.19681   0.20055   0.20782
 Alpha virt. eigenvalues --    0.23133   0.24078   0.24462   0.25252   0.27232
 Alpha virt. eigenvalues --    0.28668   0.30108   0.31898   0.33805   0.34714
 Alpha virt. eigenvalues --    0.35675   0.37627   0.41075   0.41975   0.43229
 Alpha virt. eigenvalues --    0.44813   0.46372   0.46986   0.48946   0.50235
 Alpha virt. eigenvalues --    0.50771   0.51886   0.61954   0.67078   0.73685
 Alpha virt. eigenvalues --    0.77780   0.81600   0.88995   0.96849   1.02855
 Alpha virt. eigenvalues --    1.09630   1.10614   1.13151   1.14800   1.15491
 Alpha virt. eigenvalues --    1.18856   1.22030   1.23839   1.24025   1.27247
 Alpha virt. eigenvalues --    1.32471   1.37396   1.41363   1.49517   1.52201
 Alpha virt. eigenvalues --    1.61685   1.86893   1.87987   1.89286   1.91415
 Alpha virt. eigenvalues --    1.91907   1.94276   1.95361   1.95917   1.96775
 Alpha virt. eigenvalues --    1.99290   1.99961   2.00596   2.03316   2.03707
 Alpha virt. eigenvalues --    2.06920   2.08366   2.14339   2.23371   2.26304
 Alpha virt. eigenvalues --    2.29434   2.58840   2.75611   2.83171   3.60374
 Alpha virt. eigenvalues --    3.79254   3.83951   3.87309   3.94790
          Condensed to atoms (all electrons):
              1          2          3          4          5          6
     1  O    8.541786  -0.039534  -0.004015  -0.000039   0.102087  -0.000564
     2  O   -0.039534   8.357303  -0.000215  -0.000060   0.293868  -0.004343
     3  O   -0.004015  -0.000215   8.465313  -0.004898  -0.001599   0.174839
     4  O   -0.000039  -0.000060  -0.004898   8.431412  -0.000098   0.253389
     5  P    0.102087   0.293868  -0.001599  -0.000098  13.653969   0.000253
     6  Ca  -0.000564  -0.004343   0.174839   0.253389   0.000253  19.045952
     7  Ca   0.126320  -0.015178   0.220527  -0.015514   0.192536   0.010676
     8  Ca   0.099916   0.154655   0.105119   0.216918  -0.033174  -0.363362
     9  H   -0.019297  -0.034207  -0.000001   0.000000   0.145391  -0.000857
              7          8          9
     1  O    0.126320   0.099916  -0.019297
     2  O   -0.015178   0.154655  -0.034207
     3  O    0.220527   0.105119  -0.000001
     4  O   -0.015514   0.216918   0.000000
     5  P    0.192536  -0.033174   0.145391
     6  Ca   0.010676  -0.363362  -0.000857
     7  Ca  18.845908  -0.353732  -0.027291
     8  Ca  -0.353732  19.241795  -0.000942
     9  H   -0.027291  -0.000942   1.061413
 Mulliken atomic charges:
              1
     1  O   -0.806660
     2  O   -0.712289
     3  O   -0.955070
     4  O   -0.881109
     5  P    0.646765
     6  Ca   0.884019
     7  Ca   1.015747
     8  Ca   0.932807
     9  H   -0.124209
 Sum of Mulliken charges=   0.00000
 Atomic charges with hydrogens summed into heavy atoms:
              1
     1  O   -0.806660
     2  O   -0.712289
     3  O   -0.955070
     4  O   -0.881109
     5  P    0.522556
     6  Ca   0.884019
     7  Ca   1.015747
     8  Ca   0.932807
     9  H    0.000000
 Sum of Mulliken charges=   0.00000
 Electronic spatial extent (au):  <R**2>=  2304.9128
 Charge=     0.0000 electrons
 Dipole moment (field-independent basis, Debye):
    X=     4.0082    Y=    11.1887    Z=     0.0917  Tot=    11.8854
 Quadrupole moment (field-independent basis, Debye-Ang):
   XX=   -75.1324   YY=   -71.3665   ZZ=   -85.9610
   XY=     5.1084   XZ=    -6.6830   YZ=     1.5875
 Traceless Quadrupole moment (field-independent basis, Debye-Ang):
   XX=     2.3542   YY=     6.1201   ZZ=    -8.4743
   XY=     5.1084   XZ=    -6.6830   YZ=     1.5875
 Octapole moment (field-independent basis, Debye-Ang**2):
  XXX=   117.1554  YYY=    69.0709  ZZZ=    -0.5590  XYY=   -38.2293
  XXY=    83.2264  XXZ=   -16.1676  XZZ=    16.7350  YZZ=     6.7075
  YYZ=    10.8908  XYZ=    14.8531
 Hexadecapole moment (field-independent basis, Debye-Ang**3):
 XXXX= -1765.9748 YYYY=  -730.8521 ZZZZ=  -235.6250 XXXY=   195.4229
 XXXZ=   -75.9050 YYYX=   -35.5412 YYYZ=     7.8283 ZZZX=   -10.5841
 ZZZY=     4.8610 XXYY=  -553.9196 XXZZ=  -399.2626 YYZZ=  -176.4807
 XXYZ=    16.1553 YYXZ=   -27.1817 ZZXY=    -0.4912
 N-N= 8.714196314547D+02 E-N=-8.087124533242D+03  KE= 2.668940016143D+03
 Merz-Kollman atomic radii used.
 Read replacement radii for each type of atom:
 Rad(20) =   1.188000000000D+00
 Atom Element Radius
    1     8    1.40
    2     8    1.40
    3     8    1.40
    4     8    1.40
    5    15    1.80
    6    20    1.19
    7    20    1.19
    8    20    1.19
    9     1    1.20

 **********************************************************************

            Electrostatic Properties Using The SCF Density

 **********************************************************************

       Atomic Center    1 is at  -1.652722  0.046197  1.089360
       Atomic Center    2 is at  -1.842183 -1.584286 -0.874460
       Atomic Center    3 is at   0.922151  1.107691 -0.415462
       Atomic Center    4 is at   2.402827 -1.545341  0.399561
       Atomic Center    5 is at  -2.601172 -0.388561 -0.189704
       Atomic Center    6 is at   2.980289  0.415502 -0.147744
       Atomic Center    7 is at  -1.007360  1.935303  0.036078
       Atomic Center    8 is at   0.234345 -1.221519  0.152043
       Atomic Center    9 is at  -3.768473 -0.951399  0.446027
     813 points will be used for fitting atomic charges
 Fitting point charges to eletrostatic potential
 Charges from ESP fit, RMS=   0.01035 RRMS=   0.16040:
 Charge=   0.00000 Dipole=     5.0049    12.3112     0.0675 Tot=    13.2898
              1
     1  O   -0.737266
     2  O   -0.514300
     3  O   -1.471848
     4  O   -1.383304
     5  P   -0.546440
     6  Ca   1.370019
     7  Ca   1.405968
     8  Ca   1.634626
     9  H    0.242544
 -----------------------------------------------------------------

              Electrostatic Properties (Atomic Units)

 -----------------------------------------------------------------
    Center     Electric         -------- Electric Field --------
               Potential          X             Y             Z
 -----------------------------------------------------------------
    1 Atom    -22.393410
    2 Atom    -22.409359
    3 Atom    -22.442934
    4 Atom    -22.489775
    5 Atom    -54.116995
    6 Atom    -80.218038
    7 Atom    -80.185584
    8 Atom    -80.270634
    9 Atom     -1.161330
 -----------------------------------------------------------------
 1\1\GINC-N028\SP\RB3LYP\6-31G(d,p)\Ca3H1O4P1\TIMN\04-May-2015\0\\# b3l
 yp/6-31G(d,p) pop=(ReadRadii,MK)\\Ca3PO4_135\\0,1\O,0,-1.65272,0.04619
 4,1.08936\O,0,-1.84218,-1.58429,-0.87446\O,0,0.922152,1.10769,-0.41546
 2\O,0,2.40283,-1.54534,0.399561\P,0,-2.60117,-0.388565,-0.189704\Ca,0,
 2.98029,0.415503,-0.147744\Ca,0,-1.00736,1.9353,0.036078\Ca,0,0.234348
 ,-1.22152,0.152043\H,0,-3.76847,-0.951404,0.446027\\Version=EM64T-G03R
 evE.01\State=1-A\HF=-2675.7157321\RMSD=3.750e-05\Thermal=0.\Dipole=1.5
 769461,4.4019846,0.0360747\PG=C01 [X(Ca3H1O4P1)]\\@


 SIGN SEEN IN A RESTAURANT-
 WE RESERVE THE RIGHT TO SERVE REFUSE TO ANYONE.
 Job cpu time:  0 days  0 hours  0 minutes 58.7 seconds.
 File lengths (MBytes):  RWF=     27 Int=      0 D2E=      0 Chk=     10 Scr=      1
 Normal termination of Gaussian 03 at Mon May  4 20:10:03 2015.
