 Entering Gaussian System, Link 0=/home/timn/tmp/g03.e01/g03
 Input=Ca3PO4_40.xyz.gjf
 Output=Ca3PO4_40.xyz.out
 Initial command:
 /home/timn/tmp/g03.e01/l1.exe /home/timn/tmp/g03.e01/Gau-13387.inp -scrdir=/home/timn/tmp/g03.e01/
 Default is to use a total of   2 processors:
                                2 via shared-memory
                                1 via Linda
 Entering Link 1 = /home/timn/tmp/g03.e01/l1.exe PID=     13388.
  
 Copyright (c) 1988,1990,1992,1993,1995,1998,2003,2004,2007, Gaussian, Inc.
                  All Rights Reserved.
  
 This is the Gaussian(R) 03 program.  It is based on the
 the Gaussian(R) 98 system (copyright 1998, Gaussian, Inc.),
 the Gaussian(R) 94 system (copyright 1995, Gaussian, Inc.),
 the Gaussian 92(TM) system (copyright 1992, Gaussian, Inc.),
 the Gaussian 90(TM) system (copyright 1990, Gaussian, Inc.),
 the Gaussian 88(TM) system (copyright 1988, Gaussian, Inc.),
 the Gaussian 86(TM) system (copyright 1986, Carnegie Mellon
 University), and the Gaussian 82(TM) system (copyright 1983,
 Carnegie Mellon University). Gaussian is a federally registered
 trademark of Gaussian, Inc.
  
 This software contains proprietary and confidential information,
 including trade secrets, belonging to Gaussian, Inc.
  
 This software is provided under written license and may be
 used, copied, transmitted, or stored only in accord with that
 written license.
  
 The following legend is applicable only to US Government
 contracts under FAR:
  
                    RESTRICTED RIGHTS LEGEND
  
 Use, reproduction and disclosure by the US Government is
 subject to restrictions as set forth in subparagraphs (a)
 and (c) of the Commercial Computer Software - Restricted
 Rights clause in FAR 52.227-19.
  
 Gaussian, Inc.
 340 Quinnipiac St., Bldg. 40, Wallingford CT 06492
  
  
 ---------------------------------------------------------------
 Warning -- This program may not be used in any manner that
 competes with the business of Gaussian, Inc. or will provide
 assistance to any competitor of Gaussian, Inc.  The licensee
 of this program is prohibited from giving any competitor of
 Gaussian, Inc. access to this program.  By using this program,
 the user acknowledges that Gaussian, Inc. is engaged in the
 business of creating and licensing software in the field of
 computational chemistry and represents and warrants to the
 licensee that it is not a competitor of Gaussian, Inc. and that
 it will not use this program in any manner prohibited above.
 ---------------------------------------------------------------
  

 Cite this work as:
 Gaussian 03, Revision E.01,
 M. J. Frisch, G. W. Trucks, H. B. Schlegel, G. E. Scuseria, 
 M. A. Robb, J. R. Cheeseman, J. A. Montgomery, Jr., T. Vreven, 
 K. N. Kudin, J. C. Burant, J. M. Millam, S. S. Iyengar, J. Tomasi, 
 V. Barone, B. Mennucci, M. Cossi, G. Scalmani, N. Rega, 
 G. A. Petersson, H. Nakatsuji, M. Hada, M. Ehara, K. Toyota, 
 R. Fukuda, J. Hasegawa, M. Ishida, T. Nakajima, Y. Honda, O. Kitao, 
 H. Nakai, M. Klene, X. Li, J. E. Knox, H. P. Hratchian, J. B. Cross, 
 V. Bakken, C. Adamo, J. Jaramillo, R. Gomperts, R. E. Stratmann, 
 O. Yazyev, A. J. Austin, R. Cammi, C. Pomelli, J. W. Ochterski, 
 P. Y. Ayala, K. Morokuma, G. A. Voth, P. Salvador, J. J. Dannenberg, 
 V. G. Zakrzewski, S. Dapprich, A. D. Daniels, M. C. Strain, 
 O. Farkas, D. K. Malick, A. D. Rabuck, K. Raghavachari, 
 J. B. Foresman, J. V. Ortiz, Q. Cui, A. G. Baboul, S. Clifford, 
 J. Cioslowski, B. B. Stefanov, G. Liu, A. Liashenko, P. Piskorz, 
 I. Komaromi, R. L. Martin, D. J. Fox, T. Keith, M. A. Al-Laham, 
 C. Y. Peng, A. Nanayakkara, M. Challacombe, P. M. W. Gill, 
 B. Johnson, W. Chen, M. W. Wong, C. Gonzalez, and J. A. Pople, 
 Gaussian, Inc., Wallingford CT, 2004.
 
 ******************************************
 Gaussian 03:  EM64T-G03RevE.01 11-Sep-2007
                 4-May-2015 
 ******************************************
 %nproc=2
 Will use up to    2 processors via shared memory.
 Default route:  MP2=Direct MaxDisk=2000MB
 -------------------------------------
 # b3lyp/6-31G(d,p) pop=(ReadRadii,MK)
 -------------------------------------
 1/38=1/1;
 2/17=6,18=5,40=1/2;
 3/5=1,6=6,7=101,11=2,16=1,25=1,30=1,74=-5/1,2,3;
 4//1;
 5/5=2,32=1,38=5/2;
 6/7=2,8=2,9=2,10=2,15=8,20=101,28=1/1,2;
 99/5=1,9=1/99;
 ---------
 Ca3PO4_40
 ---------
 Symbolic Z-matrix:
 Charge =  0 Multiplicity = 1
 O                     2.43282  -0.92367   0.91681 
 O                     1.36747   0.41866  -0.93268 
 O                    -2.06809   1.66103   0.18352 
 O                    -1.4812   -1.98609  -0.08468 
 P                     2.65438   0.42198   0.12446 
 Ca                   -0.00108   2.02878  -0.09643 
 Ca                   -2.82219  -0.34653   0.16815 
 Ca                    0.63259  -1.74455  -0.25107 
 H                     1.9901    1.55701   1.05635 
 
                          Input orientation:                          
 ---------------------------------------------------------------------
 Center     Atomic     Atomic              Coordinates (Angstroms)
 Number     Number      Type              X           Y           Z
 ---------------------------------------------------------------------
    1          8             0        2.432820   -0.923669    0.916807
    2          8             0        1.367470    0.418661   -0.932676
    3          8             0       -2.068090    1.661030    0.183518
    4          8             0       -1.481200   -1.986090   -0.084676
    5         15             0        2.654380    0.421978    0.124463
    6         20             0       -0.001084    2.028780   -0.096432
    7         20             0       -2.822190   -0.346530    0.168145
    8         20             0        0.632589   -1.744550   -0.251067
    9          1             0        1.990100    1.557010    1.056350
 ---------------------------------------------------------------------
                    Distance matrix (angstroms):
                    1          2          3          4          5
     1  O    0.000000
     2  O    2.521390   0.000000
     3  O    5.241810   3.820006   0.000000
     4  O    4.177470   3.823199   3.703762   0.000000
     5  P    1.577233   1.665440   4.882669   4.790152   0.000000
     6  Ca   3.958219   2.272604   2.118048   4.279026   3.111607
     7  Ca   5.339355   4.398929   2.144575   2.133150   5.530401
     8  Ca   2.297522   2.384140   4.368124   2.134041   2.987056
     9  H    2.523736   2.374812   4.152296   5.089737   1.611825
                    6          7          8          9
     6  Ca   0.000000
     7  Ca   3.697396   0.000000
     8  Ca   3.829291   3.750426   0.000000
     9  H    2.348678   5.250763   3.801641   0.000000
 Stoichiometry    Ca3HO4P
 Framework group  C1[X(Ca3HO4P)]
 Deg. of freedom    21
 Full point group                 C1
 Largest Abelian subgroup         C1      NOp   1
 Largest concise Abelian subgroup C1      NOp   1
                         Standard orientation:                         
 ---------------------------------------------------------------------
 Center     Atomic     Atomic              Coordinates (Angstroms)
 Number     Number      Type              X           Y           Z
 ---------------------------------------------------------------------
    1          8             0        2.432819   -0.923670    0.916807
    2          8             0        1.367469    0.418660   -0.932676
    3          8             0       -2.068091    1.661028    0.183518
    4          8             0       -1.481200   -1.986092   -0.084676
    5         15             0        2.654379    0.421977    0.124463
    6         20             0       -0.001085    2.028779   -0.096432
    7         20             0       -2.822191   -0.346532    0.168145
    8         20             0        0.632588   -1.744551   -0.251067
    9          1             0        1.990099    1.557009    1.056350
 ---------------------------------------------------------------------
 Rotational constants (GHZ):      1.1079216      0.6176545      0.4186617
 Standard basis: 6-31G(d,p) (6D, 7F)
 There are   153 symmetry adapted basis functions of A   symmetry.
 Integral buffers will be    131072 words long.
 Raffenetti 2 integral format.
 Two-electron integral symmetry is turned on.
   153 basis functions,   399 primitive gaussians,   153 cartesian basis functions
    54 alpha electrons       54 beta electrons
       nuclear repulsion energy       845.0075578526 Hartrees.
 NAtoms=    9 NActive=    9 NUniq=    9 SFac= 7.50D-01 NAtFMM=   80 NAOKFM=F Big=F
 One-electron integrals computed using PRISM.
 NBasis=   153 RedAO= T  NBF=   153
 NBsUse=   153 1.00D-06 NBFU=   153
 Harris functional with IExCor=  402 diagonalized for initial guess.
 ExpMin= 2.60D-02 ExpMax= 3.53D+04 ExpMxC= 5.30D+03 IAcc=3 IRadAn=         5 AccDes= 0.00D+00
 HarFok:  IExCor= 402 AccDes= 0.00D+00 IRadAn=         5 IDoV=1
 ScaDFX=  1.000000  1.000000  1.000000  1.000000
 Initial guess orbital symmetries:
       Occupied  (A) (A) (A) (A) (A) (A) (A) (A) (A) (A) (A) (A)
                 (A) (A) (A) (A) (A) (A) (A) (A) (A) (A) (A) (A)
                 (A) (A) (A) (A) (A) (A) (A) (A) (A) (A) (A) (A)
                 (A) (A) (A) (A) (A) (A) (A) (A) (A) (A) (A) (A)
                 (A) (A) (A) (A) (A) (A)
       Virtual   (A) (A) (A) (A) (A) (A) (A) (A) (A) (A) (A) (A)
                 (A) (A) (A) (A) (A) (A) (A) (A) (A) (A) (A) (A)
                 (A) (A) (A) (A) (A) (A) (A) (A) (A) (A) (A) (A)
                 (A) (A) (A) (A) (A) (A) (A) (A) (A) (A) (A) (A)
                 (A) (A) (A) (A) (A) (A) (A) (A) (A) (A) (A) (A)
                 (A) (A) (A) (A) (A) (A) (A) (A) (A) (A) (A) (A)
                 (A) (A) (A) (A) (A) (A) (A) (A) (A) (A) (A) (A)
                 (A) (A) (A) (A) (A) (A) (A) (A) (A) (A) (A) (A)
                 (A) (A) (A)
 The electronic state of the initial guess is 1-A.
 Requested convergence on RMS density matrix=1.00D-04 within 128 cycles.
 Requested convergence on MAX density matrix=1.00D-02.
 Requested convergence on             energy=1.00D-02.
 No special actions if energy rises.
 EnCoef did     2 forward-backward iterations
 SCF Done:  E(RB+HF-LYP) =  -2675.71749171     A.U. after    9 cycles
             Convg  =    0.6065D-04             -V/T =  2.0025
             S**2   =   0.0000

 **********************************************************************

            Population analysis using the SCF density.

 **********************************************************************

 Orbital symmetries:
       Occupied  (A) (A) (A) (A) (A) (A) (A) (A) (A) (A) (A) (A)
                 (A) (A) (A) (A) (A) (A) (A) (A) (A) (A) (A) (A)
                 (A) (A) (A) (A) (A) (A) (A) (A) (A) (A) (A) (A)
                 (A) (A) (A) (A) (A) (A) (A) (A) (A) (A) (A) (A)
                 (A) (A) (A) (A) (A) (A)
       Virtual   (A) (A) (A) (A) (A) (A) (A) (A) (A) (A) (A) (A)
                 (A) (A) (A) (A) (A) (A) (A) (A) (A) (A) (A) (A)
                 (A) (A) (A) (A) (A) (A) (A) (A) (A) (A) (A) (A)
                 (A) (A) (A) (A) (A) (A) (A) (A) (A) (A) (A) (A)
                 (A) (A) (A) (A) (A) (A) (A) (A) (A) (A) (A) (A)
                 (A) (A) (A) (A) (A) (A) (A) (A) (A) (A) (A) (A)
                 (A) (A) (A) (A) (A) (A) (A) (A) (A) (A) (A) (A)
                 (A) (A) (A) (A) (A) (A) (A) (A) (A) (A) (A) (A)
                 (A) (A) (A)
 The electronic state is 1-A.
 Alpha  occ. eigenvalues -- -145.33546-145.30893-145.30448 -77.10628 -19.08896
 Alpha  occ. eigenvalues --  -19.07185 -18.99720 -18.99260 -15.40739 -15.38150
 Alpha  occ. eigenvalues --  -15.37708 -12.53975 -12.53914 -12.53741 -12.51383
 Alpha  occ. eigenvalues --  -12.51335 -12.51126 -12.50938 -12.50893 -12.50672
 Alpha  occ. eigenvalues --   -6.56311  -4.72670  -4.72598  -4.72069  -1.78421
 Alpha  occ. eigenvalues --   -1.75971  -1.75556  -1.06515  -1.06225  -1.05553
 Alpha  occ. eigenvalues --   -1.04197  -1.03813  -1.03680  -1.03560  -1.03175
 Alpha  occ. eigenvalues --   -1.02335  -0.92969  -0.87783  -0.73811  -0.72916
 Alpha  occ. eigenvalues --   -0.51389  -0.38543  -0.36166  -0.33782  -0.27963
 Alpha  occ. eigenvalues --   -0.26445  -0.24732  -0.20363  -0.18632  -0.18519
 Alpha  occ. eigenvalues --   -0.18042  -0.17794  -0.17177  -0.17085
 Alpha virt. eigenvalues --   -0.06460  -0.05049  -0.03357  -0.00020   0.00741
 Alpha virt. eigenvalues --    0.01137   0.02294   0.03001   0.03410   0.03736
 Alpha virt. eigenvalues --    0.04816   0.05858   0.07227   0.08560   0.10049
 Alpha virt. eigenvalues --    0.10785   0.12113   0.13164   0.14909   0.15740
 Alpha virt. eigenvalues --    0.17386   0.18008   0.20148   0.20502   0.20983
 Alpha virt. eigenvalues --    0.21888   0.22818   0.23418   0.24104   0.27417
 Alpha virt. eigenvalues --    0.28068   0.29146   0.30646   0.32773   0.33925
 Alpha virt. eigenvalues --    0.35001   0.38263   0.38719   0.39324   0.41505
 Alpha virt. eigenvalues --    0.42108   0.43839   0.46698   0.47261   0.50548
 Alpha virt. eigenvalues --    0.54271   0.54374   0.55572   0.56404   0.72898
 Alpha virt. eigenvalues --    0.74528   0.77142   0.87823   0.96911   1.00237
 Alpha virt. eigenvalues --    1.08698   1.09412   1.10618   1.11034   1.12399
 Alpha virt. eigenvalues --    1.13992   1.17001   1.23564   1.26569   1.29875
 Alpha virt. eigenvalues --    1.31580   1.37300   1.39466   1.46095   1.48712
 Alpha virt. eigenvalues --    1.57543   1.86387   1.87484   1.88406   1.91365
 Alpha virt. eigenvalues --    1.93368   1.95033   1.95450   1.96318   1.96886
 Alpha virt. eigenvalues --    1.97281   1.97937   2.00586   2.01145   2.03541
 Alpha virt. eigenvalues --    2.06538   2.08932   2.12130   2.16566   2.19035
 Alpha virt. eigenvalues --    2.23840   2.50591   2.60086   2.77859   3.59179
 Alpha virt. eigenvalues --    3.77674   3.79850   3.84340   3.90245
          Condensed to atoms (all electrons):
              1          2          3          4          5          6
     1  O    8.371553  -0.045206   0.000000  -0.000136   0.277332  -0.000577
     2  O   -0.045206   8.556822  -0.000290  -0.000403   0.135391   0.136061
     3  O    0.000000  -0.000290   8.442395  -0.000752  -0.000367   0.257759
     4  O   -0.000136  -0.000403  -0.000752   8.456255  -0.000338  -0.005105
     5  P    0.277332   0.135391  -0.000367  -0.000338  13.878398  -0.076033
     6  Ca  -0.000577   0.136061   0.257759  -0.005105  -0.076033  18.647732
     7  Ca  -0.009439  -0.002676   0.225517   0.233558   0.000448  -0.080592
     8  Ca   0.163835   0.110436  -0.006935   0.245239   0.024722  -0.043446
     9  H   -0.025968  -0.040672  -0.000230   0.000000  -0.009456   0.151639
              7          8          9
     1  O   -0.009439   0.163835  -0.025968
     2  O   -0.002676   0.110436  -0.040672
     3  O    0.225517  -0.006935  -0.000230
     4  O    0.233558   0.245239   0.000000
     5  P    0.000448   0.024722  -0.009456
     6  Ca  -0.080592  -0.043446   0.151639
     7  Ca  18.794833  -0.112140   0.000655
     8  Ca  -0.112140  18.657422  -0.030255
     9  H    0.000655  -0.030255   1.251439
 Mulliken atomic charges:
              1
     1  O   -0.731395
     2  O   -0.849464
     3  O   -0.917098
     4  O   -0.928317
     5  P    0.769904
     6  Ca   1.012563
     7  Ca   0.949837
     8  Ca   0.991122
     9  H   -0.297152
 Sum of Mulliken charges=   0.00000
 Atomic charges with hydrogens summed into heavy atoms:
              1
     1  O   -0.731395
     2  O   -0.849464
     3  O   -0.917098
     4  O   -0.928317
     5  P    0.472752
     6  Ca   1.012563
     7  Ca   0.949837
     8  Ca   0.991122
     9  H    0.000000
 Sum of Mulliken charges=   0.00000
 Electronic spatial extent (au):  <R**2>=  2395.0730
 Charge=     0.0000 electrons
 Dipole moment (field-independent basis, Debye):
    X=    -4.0267    Y=     1.2660    Z=    -2.0933  Tot=     4.7116
 Quadrupole moment (field-independent basis, Debye-Ang):
   XX=   -83.4751   YY=   -72.8849   ZZ=   -82.6273
   XY=     3.0170   XZ=    -6.3529   YZ=     1.0016
 Traceless Quadrupole moment (field-independent basis, Debye-Ang):
   XX=    -3.8127   YY=     6.7775   ZZ=    -2.9649
   XY=     3.0170   XZ=    -6.3529   YZ=     1.0016
 Octapole moment (field-independent basis, Debye-Ang**2):
  XXX=  -159.6357  YYY=    33.8366  ZZZ=    -6.1000  XYY=    63.2777
  XXY=   -37.2830  XXZ=    -5.7693  XZZ=   -17.6018  YZZ=    -3.9621
  YYZ=   -18.9205  XYZ=    15.5512
 Hexadecapole moment (field-independent basis, Debye-Ang**3):
 XXXX= -1675.5021 YYYY=  -927.5379 ZZZZ=  -214.9300 XXXY=   101.2455
 XXXZ=   -55.3709 YYYX=   -55.5788 YYYZ=   -15.1941 ZZZX=   -15.3920
 ZZZY=    -2.7175 XXYY=  -613.9003 XXZZ=  -360.3545 YYZZ=  -205.5930
 XXYZ=     5.5247 YYXZ=   -20.5568 ZZXY=    -3.9230
 N-N= 8.450075578526D+02 E-N=-8.034135146906D+03  KE= 2.669000193020D+03
 Merz-Kollman atomic radii used.
 Read replacement radii for each type of atom:
 Rad(20) =   1.188000000000D+00
 Atom Element Radius
    1     8    1.40
    2     8    1.40
    3     8    1.40
    4     8    1.40
    5    15    1.80
    6    20    1.19
    7    20    1.19
    8    20    1.19
    9     1    1.20

 **********************************************************************

            Electrostatic Properties Using The SCF Density

 **********************************************************************

       Atomic Center    1 is at   2.432819 -0.923670  0.916807
       Atomic Center    2 is at   1.367469  0.418660 -0.932676
       Atomic Center    3 is at  -2.068091  1.661028  0.183518
       Atomic Center    4 is at  -1.481200 -1.986092 -0.084676
       Atomic Center    5 is at   2.654379  0.421977  0.124463
       Atomic Center    6 is at  -0.001085  2.028779 -0.096432
       Atomic Center    7 is at  -2.822191 -0.346532  0.168145
       Atomic Center    8 is at   0.632588 -1.744551 -0.251067
       Atomic Center    9 is at   1.990099  1.557009  1.056350
     854 points will be used for fitting atomic charges
 Fitting point charges to eletrostatic potential
 Charges from ESP fit, RMS=   0.00828 RRMS=   0.14535:
 Charge=   0.00000 Dipole=    -4.3742     1.3199    -2.1238 Tot=     5.0385
              1
     1  O   -0.694724
     2  O   -0.968014
     3  O   -1.483206
     4  O   -1.514380
     5  P    0.244953
     6  Ca   1.559990
     7  Ca   1.528331
     8  Ca   1.608494
     9  H   -0.281444
 -----------------------------------------------------------------

              Electrostatic Properties (Atomic Units)

 -----------------------------------------------------------------
    Center     Electric         -------- Electric Field --------
               Potential          X             Y             Z
 -----------------------------------------------------------------
    1 Atom    -22.393485
    2 Atom    -22.376261
    3 Atom    -22.461980
    4 Atom    -22.481353
    5 Atom    -54.109966
    6 Atom    -80.206661
    7 Atom    -80.239422
    8 Atom    -80.234139
    9 Atom     -1.161433
 -----------------------------------------------------------------
 1\1\GINC-N029\SP\RB3LYP\6-31G(d,p)\Ca3H1O4P1\TIMN\04-May-2015\0\\# b3l
 yp/6-31G(d,p) pop=(ReadRadii,MK)\\Ca3PO4_40\\0,1\O,0,2.43282,-0.923669
 ,0.916807\O,0,1.36747,0.418661,-0.932676\O,0,-2.06809,1.66103,0.183518
 \O,0,-1.4812,-1.98609,-0.084676\P,0,2.65438,0.421978,0.124463\Ca,0,-0.
 001084,2.02878,-0.096432\Ca,0,-2.82219,-0.34653,0.168145\Ca,0,0.632589
 ,-1.74455,-0.251067\H,0,1.9901,1.55701,1.05635\\Version=EM64T-G03RevE.
 01\State=1-A\HF=-2675.7174917\RMSD=6.065e-05\Thermal=0.\Dipole=-1.5842
 253,0.4980747,-0.8235763\PG=C01 [X(Ca3H1O4P1)]\\@


 IT IS A PROFOUNDLY ERRONEOUS TRUISM ... THAT WE SHOULD CULTIVATE
 THE HABIT OF THINKING OF WHAT WE ARE DOING.
 THE PRECISE OPPOSITE IS THE CASE.
 CIVILIZATION ADVANCES BY EXTENDING THE NUMBER OF IMPORTANT OPERATIONS
 WHICH WE CAN PERFORM WITHOUT THINKING ABOUT THEM.

                                    -- ALFRED NORTH WHITEHEAD
 Job cpu time:  0 days  0 hours  0 minutes 48.4 seconds.
 File lengths (MBytes):  RWF=     27 Int=      0 D2E=      0 Chk=     10 Scr=      1
 Normal termination of Gaussian 03 at Mon May  4 20:12:24 2015.
