 Entering Gaussian System, Link 0=/home/timn/tmp/g03.e01/g03
 Input=Ca3PO4_117.xyz.gjf
 Output=Ca3PO4_117.xyz.out
 Initial command:
 /home/timn/tmp/g03.e01/l1.exe /home/timn/tmp/g03.e01/Gau-10411.inp -scrdir=/home/timn/tmp/g03.e01/
 Default is to use a total of   2 processors:
                                2 via shared-memory
                                1 via Linda
 Entering Link 1 = /home/timn/tmp/g03.e01/l1.exe PID=     10412.
  
 Copyright (c) 1988,1990,1992,1993,1995,1998,2003,2004,2007, Gaussian, Inc.
                  All Rights Reserved.
  
 This is the Gaussian(R) 03 program.  It is based on the
 the Gaussian(R) 98 system (copyright 1998, Gaussian, Inc.),
 the Gaussian(R) 94 system (copyright 1995, Gaussian, Inc.),
 the Gaussian 92(TM) system (copyright 1992, Gaussian, Inc.),
 the Gaussian 90(TM) system (copyright 1990, Gaussian, Inc.),
 the Gaussian 88(TM) system (copyright 1988, Gaussian, Inc.),
 the Gaussian 86(TM) system (copyright 1986, Carnegie Mellon
 University), and the Gaussian 82(TM) system (copyright 1983,
 Carnegie Mellon University). Gaussian is a federally registered
 trademark of Gaussian, Inc.
  
 This software contains proprietary and confidential information,
 including trade secrets, belonging to Gaussian, Inc.
  
 This software is provided under written license and may be
 used, copied, transmitted, or stored only in accord with that
 written license.
  
 The following legend is applicable only to US Government
 contracts under FAR:
  
                    RESTRICTED RIGHTS LEGEND
  
 Use, reproduction and disclosure by the US Government is
 subject to restrictions as set forth in subparagraphs (a)
 and (c) of the Commercial Computer Software - Restricted
 Rights clause in FAR 52.227-19.
  
 Gaussian, Inc.
 340 Quinnipiac St., Bldg. 40, Wallingford CT 06492
  
  
 ---------------------------------------------------------------
 Warning -- This program may not be used in any manner that
 competes with the business of Gaussian, Inc. or will provide
 assistance to any competitor of Gaussian, Inc.  The licensee
 of this program is prohibited from giving any competitor of
 Gaussian, Inc. access to this program.  By using this program,
 the user acknowledges that Gaussian, Inc. is engaged in the
 business of creating and licensing software in the field of
 computational chemistry and represents and warrants to the
 licensee that it is not a competitor of Gaussian, Inc. and that
 it will not use this program in any manner prohibited above.
 ---------------------------------------------------------------
  

 Cite this work as:
 Gaussian 03, Revision E.01,
 M. J. Frisch, G. W. Trucks, H. B. Schlegel, G. E. Scuseria, 
 M. A. Robb, J. R. Cheeseman, J. A. Montgomery, Jr., T. Vreven, 
 K. N. Kudin, J. C. Burant, J. M. Millam, S. S. Iyengar, J. Tomasi, 
 V. Barone, B. Mennucci, M. Cossi, G. Scalmani, N. Rega, 
 G. A. Petersson, H. Nakatsuji, M. Hada, M. Ehara, K. Toyota, 
 R. Fukuda, J. Hasegawa, M. Ishida, T. Nakajima, Y. Honda, O. Kitao, 
 H. Nakai, M. Klene, X. Li, J. E. Knox, H. P. Hratchian, J. B. Cross, 
 V. Bakken, C. Adamo, J. Jaramillo, R. Gomperts, R. E. Stratmann, 
 O. Yazyev, A. J. Austin, R. Cammi, C. Pomelli, J. W. Ochterski, 
 P. Y. Ayala, K. Morokuma, G. A. Voth, P. Salvador, J. J. Dannenberg, 
 V. G. Zakrzewski, S. Dapprich, A. D. Daniels, M. C. Strain, 
 O. Farkas, D. K. Malick, A. D. Rabuck, K. Raghavachari, 
 J. B. Foresman, J. V. Ortiz, Q. Cui, A. G. Baboul, S. Clifford, 
 J. Cioslowski, B. B. Stefanov, G. Liu, A. Liashenko, P. Piskorz, 
 I. Komaromi, R. L. Martin, D. J. Fox, T. Keith, M. A. Al-Laham, 
 C. Y. Peng, A. Nanayakkara, M. Challacombe, P. M. W. Gill, 
 B. Johnson, W. Chen, M. W. Wong, C. Gonzalez, and J. A. Pople, 
 Gaussian, Inc., Wallingford CT, 2004.
 
 ******************************************
 Gaussian 03:  EM64T-G03RevE.01 11-Sep-2007
                 4-May-2015 
 ******************************************
 %nproc=2
 Will use up to    2 processors via shared memory.
 Default route:  MP2=Direct MaxDisk=2000MB
 -------------------------------------
 # b3lyp/6-31G(d,p) pop=(ReadRadii,MK)
 -------------------------------------
 1/38=1/1;
 2/17=6,18=5,40=1/2;
 3/5=1,6=6,7=101,11=2,16=1,25=1,30=1,74=-5/1,2,3;
 4//1;
 5/5=2,32=1,38=5/2;
 6/7=2,8=2,9=2,10=2,15=8,20=101,28=1/1,2;
 99/5=1,9=1/99;
 ----------
 Ca3PO4_117
 ----------
 Symbolic Z-matrix:
 Charge =  0 Multiplicity = 1
 O                    -0.80444   1.17224  -0.99859 
 O                    -1.58696   1.1621    0.29359 
 O                     1.50922   0.85094   0.1812 
 O                    -0.18554  -1.60765   0.63235 
 P                     0.73348   1.93123  -0.74439 
 Ca                   -0.04099   0.25209   1.85238 
 Ca                   -1.84162  -0.97284  -0.70623 
 Ca                    1.70489  -1.43287  -0.52713 
 H                     1.09371   1.48279  -2.0829 
 
                          Input orientation:                          
 ---------------------------------------------------------------------
 Center     Atomic     Atomic              Coordinates (Angstroms)
 Number     Number      Type              X           Y           Z
 ---------------------------------------------------------------------
    1          8             0       -0.804437    1.172240   -0.998586
    2          8             0       -1.586960    1.162100    0.293587
    3          8             0        1.509220    0.850942    0.181203
    4          8             0       -0.185543   -1.607650    0.632350
    5         15             0        0.733484    1.931230   -0.744390
    6         20             0       -0.040985    0.252092    1.852380
    7         20             0       -1.841620   -0.972843   -0.706234
    8         20             0        1.704890   -1.432870   -0.527133
    9          1             0        1.093710    1.482790   -2.082900
 ---------------------------------------------------------------------
                    Distance matrix (angstroms):
                    1          2          3          4          5
     1  O    0.000000
     2  O    1.510681   0.000000
     3  O    2.616896   3.113805   0.000000
     4  O    3.281885   3.122538   3.020005   0.000000
     5  P    1.733748   2.655827   1.620343   3.906878   0.000000
     6  Ca   3.091527   2.376550   2.356818   2.228903   3.187871
     7  Ca   2.400541   2.371176   3.916869   2.222021   3.881528
     8  Ca   3.647683   4.271268   2.399130   2.224564   3.508276
     9  H    2.207972   3.596738   2.387057   4.308119   1.456870
                    6          7          8          9
     6  Ca   0.000000
     7  Ca   3.359949   0.000000
     8  Ca   3.398420   3.580703   0.000000
     9  H    4.276515   4.067125   3.360807   0.000000
 Stoichiometry    Ca3HO4P
 Framework group  C1[X(Ca3HO4P)]
 Deg. of freedom    21
 Full point group                 C1
 Largest Abelian subgroup         C1      NOp   1
 Largest concise Abelian subgroup C1      NOp   1
                         Standard orientation:                         
 ---------------------------------------------------------------------
 Center     Atomic     Atomic              Coordinates (Angstroms)
 Number     Number      Type              X           Y           Z
 ---------------------------------------------------------------------
    1          8             0       -0.804415    1.172256   -0.998585
    2          8             0       -1.586938    1.162130    0.293588
    3          8             0        1.509236    0.850916    0.181204
    4          8             0       -0.185571   -1.607646    0.632351
    5         15             0        0.733519    1.931218   -0.744389
    6         20             0       -0.040980    0.252094    1.852381
    7         20             0       -1.841637   -0.972809   -0.706233
    8         20             0        1.704865   -1.432899   -0.527132
    9          1             0        1.093737    1.482772   -2.082899
 ---------------------------------------------------------------------
 Rotational constants (GHZ):      0.9179332      0.8848249      0.7282823
 Standard basis: 6-31G(d,p) (6D, 7F)
 There are   153 symmetry adapted basis functions of A   symmetry.
 Integral buffers will be    131072 words long.
 Raffenetti 2 integral format.
 Two-electron integral symmetry is turned on.
   153 basis functions,   399 primitive gaussians,   153 cartesian basis functions
    54 alpha electrons       54 beta electrons
       nuclear repulsion energy       918.4797011140 Hartrees.
 NAtoms=    9 NActive=    9 NUniq=    9 SFac= 7.50D-01 NAtFMM=   80 NAOKFM=F Big=F
 One-electron integrals computed using PRISM.
 NBasis=   153 RedAO= T  NBF=   153
 NBsUse=   153 1.00D-06 NBFU=   153
 Harris functional with IExCor=  402 diagonalized for initial guess.
 ExpMin= 2.60D-02 ExpMax= 3.53D+04 ExpMxC= 5.30D+03 IAcc=3 IRadAn=         5 AccDes= 0.00D+00
 HarFok:  IExCor= 402 AccDes= 0.00D+00 IRadAn=         5 IDoV=1
 ScaDFX=  1.000000  1.000000  1.000000  1.000000
 Initial guess orbital symmetries:
       Occupied  (A) (A) (A) (A) (A) (A) (A) (A) (A) (A) (A) (A)
                 (A) (A) (A) (A) (A) (A) (A) (A) (A) (A) (A) (A)
                 (A) (A) (A) (A) (A) (A) (A) (A) (A) (A) (A) (A)
                 (A) (A) (A) (A) (A) (A) (A) (A) (A) (A) (A) (A)
                 (A) (A) (A) (A) (A) (A)
       Virtual   (A) (A) (A) (A) (A) (A) (A) (A) (A) (A) (A) (A)
                 (A) (A) (A) (A) (A) (A) (A) (A) (A) (A) (A) (A)
                 (A) (A) (A) (A) (A) (A) (A) (A) (A) (A) (A) (A)
                 (A) (A) (A) (A) (A) (A) (A) (A) (A) (A) (A) (A)
                 (A) (A) (A) (A) (A) (A) (A) (A) (A) (A) (A) (A)
                 (A) (A) (A) (A) (A) (A) (A) (A) (A) (A) (A) (A)
                 (A) (A) (A) (A) (A) (A) (A) (A) (A) (A) (A) (A)
                 (A) (A) (A) (A) (A) (A) (A) (A) (A) (A) (A) (A)
                 (A) (A) (A)
 The electronic state of the initial guess is 1-A.
 Requested convergence on RMS density matrix=1.00D-04 within 128 cycles.
 Requested convergence on MAX density matrix=1.00D-02.
 Requested convergence on             energy=1.00D-02.
 No special actions if energy rises.
 EnCoef did     7 forward-backward iterations
 EnCoef did     5 forward-backward iterations
 EnCoef did     1 forward-backward iterations
 EnCoef did     4 forward-backward iterations
 SCF Done:  E(RB+HF-LYP) =  -2675.62467468     A.U. after   13 cycles
             Convg  =    0.6109D-04             -V/T =  2.0026
             S**2   =   0.0000

 **********************************************************************

            Population analysis using the SCF density.

 **********************************************************************

 Orbital symmetries:
       Occupied  (A) (A) (A) (A) (A) (A) (A) (A) (A) (A) (A) (A)
                 (A) (A) (A) (A) (A) (A) (A) (A) (A) (A) (A) (A)
                 (A) (A) (A) (A) (A) (A) (A) (A) (A) (A) (A) (A)
                 (A) (A) (A) (A) (A) (A) (A) (A) (A) (A) (A) (A)
                 (A) (A) (A) (A) (A) (A)
       Virtual   (A) (A) (A) (A) (A) (A) (A) (A) (A) (A) (A) (A)
                 (A) (A) (A) (A) (A) (A) (A) (A) (A) (A) (A) (A)
                 (A) (A) (A) (A) (A) (A) (A) (A) (A) (A) (A) (A)
                 (A) (A) (A) (A) (A) (A) (A) (A) (A) (A) (A) (A)
                 (A) (A) (A) (A) (A) (A) (A) (A) (A) (A) (A) (A)
                 (A) (A) (A) (A) (A) (A) (A) (A) (A) (A) (A) (A)
                 (A) (A) (A) (A) (A) (A) (A) (A) (A) (A) (A) (A)
                 (A) (A) (A) (A) (A) (A) (A) (A) (A) (A) (A) (A)
                 (A) (A) (A)
 The electronic state is 1-A.
 Alpha  occ. eigenvalues -- -145.35405-145.35303-145.35262 -77.12993 -19.18605
 Alpha  occ. eigenvalues --  -19.13867 -19.11140 -19.03592 -15.42490 -15.42387
 Alpha  occ. eigenvalues --  -15.42364 -12.55701 -12.55617 -12.55592 -12.55586
 Alpha  occ. eigenvalues --  -12.55558 -12.55538 -12.55505 -12.55491 -12.55440
 Alpha  occ. eigenvalues --   -6.58862  -4.75301  -4.75070  -4.74570  -1.79945
 Alpha  occ. eigenvalues --   -1.79879  -1.79752  -1.08817  -1.07917  -1.07737
 Alpha  occ. eigenvalues --   -1.07655  -1.07543  -1.07260  -1.07087  -1.06802
 Alpha  occ. eigenvalues --   -1.06662  -1.02670  -0.93671  -0.81420  -0.78504
 Alpha  occ. eigenvalues --   -0.56977  -0.43516  -0.43007  -0.39672  -0.37190
 Alpha  occ. eigenvalues --   -0.32666  -0.30567  -0.26585  -0.24580  -0.24010
 Alpha  occ. eigenvalues --   -0.23554  -0.22023  -0.21270  -0.12175
 Alpha virt. eigenvalues --   -0.07911  -0.07599  -0.03160  -0.02656  -0.00769
 Alpha virt. eigenvalues --    0.00155   0.00629   0.01259   0.01353   0.01713
 Alpha virt. eigenvalues --    0.03808   0.04028   0.05747   0.07126   0.07396
 Alpha virt. eigenvalues --    0.10677   0.10811   0.11560   0.12860   0.14752
 Alpha virt. eigenvalues --    0.14945   0.15320   0.15839   0.16880   0.17130
 Alpha virt. eigenvalues --    0.18890   0.19738   0.20341   0.22499   0.24117
 Alpha virt. eigenvalues --    0.24540   0.27139   0.28164   0.28461   0.29677
 Alpha virt. eigenvalues --    0.32832   0.33871   0.36293   0.37250   0.37946
 Alpha virt. eigenvalues --    0.41315   0.42227   0.43910   0.45920   0.46374
 Alpha virt. eigenvalues --    0.46732   0.55223   0.60908   0.62563   0.65805
 Alpha virt. eigenvalues --    0.69428   0.72574   0.79589   0.94956   0.96539
 Alpha virt. eigenvalues --    1.01252   1.05522   1.08656   1.10663   1.11251
 Alpha virt. eigenvalues --    1.15416   1.21211   1.23386   1.25374   1.26737
 Alpha virt. eigenvalues --    1.28430   1.32062   1.41737   1.44910   1.52618
 Alpha virt. eigenvalues --    1.57638   1.62356   1.70284   1.82740   1.85346
 Alpha virt. eigenvalues --    1.87433   1.90579   1.90630   1.94567   1.95445
 Alpha virt. eigenvalues --    1.97185   1.98279   2.01443   2.03527   2.06058
 Alpha virt. eigenvalues --    2.06560   2.12980   2.20023   2.31764   2.33415
 Alpha virt. eigenvalues --    2.43597   2.64752   2.72302   3.08069   3.59199
 Alpha virt. eigenvalues --    3.72535   3.88199   3.94467   3.96473
          Condensed to atoms (all electrons):
              1          2          3          4          5          6
     1  O    8.341306   0.013787  -0.026500  -0.001202   0.117495   0.002127
     2  O    0.013787   8.356870  -0.000273  -0.004427  -0.022032   0.102252
     3  O   -0.026500  -0.000273   8.508798  -0.006220   0.185860   0.096103
     4  O   -0.001202  -0.004427  -0.006220   8.481116   0.000454   0.159646
     5  P    0.117495  -0.022032   0.185860   0.000454  13.730207   0.067654
     6  Ca   0.002127   0.102252   0.096103   0.159646   0.067654  18.966708
     7  Ca   0.056792   0.074170   0.015914   0.149173  -0.016692  -0.138007
     8  Ca  -0.005698   0.004036   0.070887   0.131883  -0.039848  -0.096009
     9  H   -0.022204   0.001889  -0.030916  -0.000060   0.220138  -0.027633
              7          8          9
     1  O    0.056792  -0.005698  -0.022204
     2  O    0.074170   0.004036   0.001889
     3  O    0.015914   0.070887  -0.030916
     4  O    0.149173   0.131883  -0.000060
     5  P   -0.016692  -0.039848   0.220138
     6  Ca  -0.138007  -0.096009  -0.027633
     7  Ca  19.058059   0.042051   0.008729
     8  Ca   0.042051  19.384855   0.037529
     9  H    0.008729   0.037529   0.930380
 Mulliken atomic charges:
              1
     1  O   -0.475904
     2  O   -0.526273
     3  O   -0.813653
     4  O   -0.910364
     5  P    0.756763
     6  Ca   0.867160
     7  Ca   0.749810
     8  Ca   0.470314
     9  H   -0.117853
 Sum of Mulliken charges=   0.00000
 Atomic charges with hydrogens summed into heavy atoms:
              1
     1  O   -0.475904
     2  O   -0.526273
     3  O   -0.813653
     4  O   -0.910364
     5  P    0.638910
     6  Ca   0.867160
     7  Ca   0.749810
     8  Ca   0.470314
     9  H    0.000000
 Sum of Mulliken charges=   0.00000
 Electronic spatial extent (au):  <R**2>=  1831.5440
 Charge=     0.0000 electrons
 Dipole moment (field-independent basis, Debye):
    X=    -0.6256    Y=    -1.0587    Z=     2.2486  Tot=     2.5629
 Quadrupole moment (field-independent basis, Debye-Ang):
   XX=   -85.9041   YY=  -104.9884   ZZ=   -83.8009
   XY=     2.2171   XZ=     1.9701   YZ=     4.5697
 Traceless Quadrupole moment (field-independent basis, Debye-Ang):
   XX=     5.6603   YY=   -13.4239   ZZ=     7.7636
   XY=     2.2171   XZ=     1.9701   YZ=     4.5697
 Octapole moment (field-independent basis, Debye-Ang**2):
  XXX=   -30.4565  YYY=    42.3699  ZZZ=    40.4770  XYY=     2.2783
  XXY=   -11.0414  XXZ=     5.6852  XZZ=    -8.4775  YZZ=    27.8654
  YYZ=     2.5924  XYZ=    -7.2089
 Hexadecapole moment (field-independent basis, Debye-Ang**3):
 XXXX= -1202.7186 YYYY= -1227.6297 ZZZZ=  -875.8048 XXXY=    35.4712
 XXXZ=    22.2746 YYYX=     9.2695 YYYZ=   -41.7010 ZZZX=    13.1514
 ZZZY=   -42.9349 XXYY=  -398.2323 XXZZ=  -355.0745 YYZZ=  -349.1306
 XXYZ=   -30.5968 YYXZ=     8.7199 ZZXY=     9.7112
 N-N= 9.184797011140D+02 E-N=-8.175975282832D+03  KE= 2.668723596095D+03
 Merz-Kollman atomic radii used.
 Read replacement radii for each type of atom:
 Rad(20) =   1.188000000000D+00
 Atom Element Radius
    1     8    1.40
    2     8    1.40
    3     8    1.40
    4     8    1.40
    5    15    1.80
    6    20    1.19
    7    20    1.19
    8    20    1.19
    9     1    1.20

 **********************************************************************

            Electrostatic Properties Using The SCF Density

 **********************************************************************

       Atomic Center    1 is at  -0.804415  1.172256 -0.998585
       Atomic Center    2 is at  -1.586938  1.162130  0.293588
       Atomic Center    3 is at   1.509236  0.850916  0.181204
       Atomic Center    4 is at  -0.185571 -1.607646  0.632351
       Atomic Center    5 is at   0.733519  1.931218 -0.744389
       Atomic Center    6 is at  -0.040980  0.252094  1.852381
       Atomic Center    7 is at  -1.841637 -0.972809 -0.706233
       Atomic Center    8 is at   1.704865 -1.432899 -0.527132
       Atomic Center    9 is at   1.093737  1.482772 -2.082899
     743 points will be used for fitting atomic charges
 Fitting point charges to eletrostatic potential
 Charges from ESP fit, RMS=   0.03007 RRMS=   0.51388:
 Charge=   0.00000 Dipole=    -0.3904    -5.8367     1.9421 Tot=     6.1637
              1
     1  O   -0.077838
     2  O   -0.618327
     3  O   -0.485916
     4  O   -1.379648
     5  P   -0.250981
     6  Ca   1.200117
     7  Ca   0.899828
     8  Ca   0.757703
     9  H   -0.044939
 -----------------------------------------------------------------

              Electrostatic Properties (Atomic Units)

 -----------------------------------------------------------------
    Center     Electric         -------- Electric Field --------
               Potential          X             Y             Z
 -----------------------------------------------------------------
    1 Atom    -22.282135
    2 Atom    -22.333218
    3 Atom    -22.351855
    4 Atom    -22.428842
    5 Atom    -54.086443
    6 Atom    -80.190604
    7 Atom    -80.189953
    8 Atom    -80.190894
    9 Atom     -1.121768
 -----------------------------------------------------------------
 1\1\GINC-N032\SP\RB3LYP\6-31G(d,p)\Ca3H1O4P1\TIMN\04-May-2015\0\\# b3l
 yp/6-31G(d,p) pop=(ReadRadii,MK)\\Ca3PO4_117\\0,1\O,0,-0.804437,1.1722
 4,-0.998586\O,0,-1.58696,1.1621,0.293587\O,0,1.50922,0.850942,0.181203
 \O,0,-0.185543,-1.60765,0.63235\P,0,0.733484,1.93123,-0.74439\Ca,0,-0.
 040985,0.252092,1.85238\Ca,0,-1.84162,-0.972843,-0.706234\Ca,0,1.70489
 ,-1.43287,-0.527133\H,0,1.09371,1.48279,-2.0829\\Version=EM64T-G03RevE
 .01\State=1-A\HF=-2675.6246747\RMSD=6.109e-05\Thermal=0.\Dipole=-0.246
 119,-0.416517,0.8846761\PG=C01 [X(Ca3H1O4P1)]\\@


 Children are likely to live up to what you believe of them.
 -- Lady Bird Johnson
 Job cpu time:  0 days  0 hours  1 minutes 16.1 seconds.
 File lengths (MBytes):  RWF=     27 Int=      0 D2E=      0 Chk=     10 Scr=      1
 Normal termination of Gaussian 03 at Mon May  4 20:09:44 2015.
