 Entering Gaussian System, Link 0=/home/timn/tmp/g03.e01/g03
 Input=Ca3PO4_99.xyz.gjf
 Output=Ca3PO4_99.xyz.out
 Initial command:
 /home/timn/tmp/g03.e01/l1.exe /home/timn/tmp/g03.e01/Gau-12701.inp -scrdir=/home/timn/tmp/g03.e01/
 Default is to use a total of   2 processors:
                                2 via shared-memory
                                1 via Linda
 Entering Link 1 = /home/timn/tmp/g03.e01/l1.exe PID=     12702.
  
 Copyright (c) 1988,1990,1992,1993,1995,1998,2003,2004,2007, Gaussian, Inc.
                  All Rights Reserved.
  
 This is the Gaussian(R) 03 program.  It is based on the
 the Gaussian(R) 98 system (copyright 1998, Gaussian, Inc.),
 the Gaussian(R) 94 system (copyright 1995, Gaussian, Inc.),
 the Gaussian 92(TM) system (copyright 1992, Gaussian, Inc.),
 the Gaussian 90(TM) system (copyright 1990, Gaussian, Inc.),
 the Gaussian 88(TM) system (copyright 1988, Gaussian, Inc.),
 the Gaussian 86(TM) system (copyright 1986, Carnegie Mellon
 University), and the Gaussian 82(TM) system (copyright 1983,
 Carnegie Mellon University). Gaussian is a federally registered
 trademark of Gaussian, Inc.
  
 This software contains proprietary and confidential information,
 including trade secrets, belonging to Gaussian, Inc.
  
 This software is provided under written license and may be
 used, copied, transmitted, or stored only in accord with that
 written license.
  
 The following legend is applicable only to US Government
 contracts under FAR:
  
                    RESTRICTED RIGHTS LEGEND
  
 Use, reproduction and disclosure by the US Government is
 subject to restrictions as set forth in subparagraphs (a)
 and (c) of the Commercial Computer Software - Restricted
 Rights clause in FAR 52.227-19.
  
 Gaussian, Inc.
 340 Quinnipiac St., Bldg. 40, Wallingford CT 06492
  
  
 ---------------------------------------------------------------
 Warning -- This program may not be used in any manner that
 competes with the business of Gaussian, Inc. or will provide
 assistance to any competitor of Gaussian, Inc.  The licensee
 of this program is prohibited from giving any competitor of
 Gaussian, Inc. access to this program.  By using this program,
 the user acknowledges that Gaussian, Inc. is engaged in the
 business of creating and licensing software in the field of
 computational chemistry and represents and warrants to the
 licensee that it is not a competitor of Gaussian, Inc. and that
 it will not use this program in any manner prohibited above.
 ---------------------------------------------------------------
  

 Cite this work as:
 Gaussian 03, Revision E.01,
 M. J. Frisch, G. W. Trucks, H. B. Schlegel, G. E. Scuseria, 
 M. A. Robb, J. R. Cheeseman, J. A. Montgomery, Jr., T. Vreven, 
 K. N. Kudin, J. C. Burant, J. M. Millam, S. S. Iyengar, J. Tomasi, 
 V. Barone, B. Mennucci, M. Cossi, G. Scalmani, N. Rega, 
 G. A. Petersson, H. Nakatsuji, M. Hada, M. Ehara, K. Toyota, 
 R. Fukuda, J. Hasegawa, M. Ishida, T. Nakajima, Y. Honda, O. Kitao, 
 H. Nakai, M. Klene, X. Li, J. E. Knox, H. P. Hratchian, J. B. Cross, 
 V. Bakken, C. Adamo, J. Jaramillo, R. Gomperts, R. E. Stratmann, 
 O. Yazyev, A. J. Austin, R. Cammi, C. Pomelli, J. W. Ochterski, 
 P. Y. Ayala, K. Morokuma, G. A. Voth, P. Salvador, J. J. Dannenberg, 
 V. G. Zakrzewski, S. Dapprich, A. D. Daniels, M. C. Strain, 
 O. Farkas, D. K. Malick, A. D. Rabuck, K. Raghavachari, 
 J. B. Foresman, J. V. Ortiz, Q. Cui, A. G. Baboul, S. Clifford, 
 J. Cioslowski, B. B. Stefanov, G. Liu, A. Liashenko, P. Piskorz, 
 I. Komaromi, R. L. Martin, D. J. Fox, T. Keith, M. A. Al-Laham, 
 C. Y. Peng, A. Nanayakkara, M. Challacombe, P. M. W. Gill, 
 B. Johnson, W. Chen, M. W. Wong, C. Gonzalez, and J. A. Pople, 
 Gaussian, Inc., Wallingford CT, 2004.
 
 ******************************************
 Gaussian 03:  EM64T-G03RevE.01 11-Sep-2007
                 4-May-2015 
 ******************************************
 %nproc=2
 Will use up to    2 processors via shared memory.
 Default route:  MP2=Direct MaxDisk=2000MB
 -------------------------------------
 # b3lyp/6-31G(d,p) pop=(ReadRadii,MK)
 -------------------------------------
 1/38=1/1;
 2/17=6,18=5,40=1/2;
 3/5=1,6=6,7=101,11=2,16=1,25=1,30=1,74=-5/1,2,3;
 4//1;
 5/5=2,32=1,38=5/2;
 6/7=2,8=2,9=2,10=2,15=8,20=101,28=1/1,2;
 99/5=1,9=1/99;
 ---------
 Ca3PO4_99
 ---------
 Symbolic Z-matrix:
 Charge =  0 Multiplicity = 1
 O                    -0.71062  -1.48314  -0.84607 
 O                     1.28823  -1.33258   0.84496 
 O                    -0.94867   0.12401   1.03928 
 O                     0.84948   0.64311  -0.63246 
 P                     0.13981  -0.61198   0.11337 
 Ca                   -2.77595  -0.80303  -0.12046 
 Ca                   -0.78023   2.21074   0.00136 
 Ca                    3.00842  -0.15029  -0.11528 
 H                     5.03066   0.42006  -0.25852 
 
                          Input orientation:                          
 ---------------------------------------------------------------------
 Center     Atomic     Atomic              Coordinates (Angstroms)
 Number     Number      Type              X           Y           Z
 ---------------------------------------------------------------------
    1          8             0       -0.710616   -1.483140   -0.846070
    2          8             0        1.288230   -1.332580    0.844964
    3          8             0       -0.948671    0.124006    1.039280
    4          8             0        0.849478    0.643109   -0.632460
    5         15             0        0.139812   -0.611976    0.113368
    6         20             0       -2.775950   -0.803026   -0.120464
    7         20             0       -0.780232    2.210740    0.001360
    8         20             0        3.008420   -0.150287   -0.115283
    9          1             0        5.030660    0.420058   -0.258518
 ---------------------------------------------------------------------
                    Distance matrix (angstroms):
                    1          2          3          4          5
     1  O    0.000000
     2  O    2.622527   0.000000
     3  O    2.488802   2.676402   0.000000
     4  O    2.645838   2.505720   2.509486   0.000000
     5  P    1.550057   1.540574   1.607413   1.623306   0.000000
     6  Ca   2.292305   4.210705   2.354431   3.936645   2.931356
     7  Ca   3.790479   4.188713   2.336687   2.348436   2.970985
     8  Ca   4.017683   2.297595   4.131201   2.357537   2.914507
     9  H    6.076975   4.277288   6.125710   4.203792   5.012363
                    6          7          8          9
     6  Ca   0.000000
     7  Ca   3.616700   0.000000
     8  Ca   5.821085   4.465640   0.000000
     9  H    7.903047   6.086094   2.106007   0.000000
 Stoichiometry    Ca3HO4P
 Framework group  C1[X(Ca3HO4P)]
 Deg. of freedom    21
 Full point group                 C1
 Largest Abelian subgroup         C1      NOp   1
 Largest concise Abelian subgroup C1      NOp   1
                         Standard orientation:                         
 ---------------------------------------------------------------------
 Center     Atomic     Atomic              Coordinates (Angstroms)
 Number     Number      Type              X           Y           Z
 ---------------------------------------------------------------------
    1          8             0       -0.710616   -1.483141   -0.846070
    2          8             0        1.288230   -1.332582    0.844964
    3          8             0       -0.948671    0.124005    1.039280
    4          8             0        0.849479    0.643107   -0.632460
    5         15             0        0.139812   -0.611977    0.113368
    6         20             0       -2.775950   -0.803026   -0.120464
    7         20             0       -0.780231    2.210739    0.001360
    8         20             0        3.008420   -0.150290   -0.115283
    9          1             0        5.030661    0.420054   -0.258518
 ---------------------------------------------------------------------
 Rotational constants (GHZ):      1.4344599      0.6098814      0.4659031
 Standard basis: 6-31G(d,p) (6D, 7F)
 There are   153 symmetry adapted basis functions of A   symmetry.
 Integral buffers will be    131072 words long.
 Raffenetti 2 integral format.
 Two-electron integral symmetry is turned on.
   153 basis functions,   399 primitive gaussians,   153 cartesian basis functions
    54 alpha electrons       54 beta electrons
       nuclear repulsion energy       900.9040636398 Hartrees.
 NAtoms=    9 NActive=    9 NUniq=    9 SFac= 7.50D-01 NAtFMM=   80 NAOKFM=F Big=F
 One-electron integrals computed using PRISM.
 NBasis=   153 RedAO= T  NBF=   153
 NBsUse=   153 1.00D-06 NBFU=   153
 Harris functional with IExCor=  402 diagonalized for initial guess.
 ExpMin= 2.60D-02 ExpMax= 3.53D+04 ExpMxC= 5.30D+03 IAcc=3 IRadAn=         5 AccDes= 0.00D+00
 HarFok:  IExCor= 402 AccDes= 0.00D+00 IRadAn=         5 IDoV=1
 ScaDFX=  1.000000  1.000000  1.000000  1.000000
 Initial guess orbital symmetries:
       Occupied  (A) (A) (A) (A) (A) (A) (A) (A) (A) (A) (A) (A)
                 (A) (A) (A) (A) (A) (A) (A) (A) (A) (A) (A) (A)
                 (A) (A) (A) (A) (A) (A) (A) (A) (A) (A) (A) (A)
                 (A) (A) (A) (A) (A) (A) (A) (A) (A) (A) (A) (A)
                 (A) (A) (A) (A) (A) (A)
       Virtual   (A) (A) (A) (A) (A) (A) (A) (A) (A) (A) (A) (A)
                 (A) (A) (A) (A) (A) (A) (A) (A) (A) (A) (A) (A)
                 (A) (A) (A) (A) (A) (A) (A) (A) (A) (A) (A) (A)
                 (A) (A) (A) (A) (A) (A) (A) (A) (A) (A) (A) (A)
                 (A) (A) (A) (A) (A) (A) (A) (A) (A) (A) (A) (A)
                 (A) (A) (A) (A) (A) (A) (A) (A) (A) (A) (A) (A)
                 (A) (A) (A) (A) (A) (A) (A) (A) (A) (A) (A) (A)
                 (A) (A) (A) (A) (A) (A) (A) (A) (A) (A) (A) (A)
                 (A) (A) (A)
 The electronic state of the initial guess is 1-A.
 Requested convergence on RMS density matrix=1.00D-04 within 128 cycles.
 Requested convergence on MAX density matrix=1.00D-02.
 Requested convergence on             energy=1.00D-02.
 No special actions if energy rises.
 SCF Done:  E(RB+HF-LYP) =  -2675.78876489     A.U. after   10 cycles
             Convg  =    0.2687D-04             -V/T =  2.0026
             S**2   =   0.0000

 **********************************************************************

            Population analysis using the SCF density.

 **********************************************************************

 Orbital symmetries:
       Occupied  (A) (A) (A) (A) (A) (A) (A) (A) (A) (A) (A) (A)
                 (A) (A) (A) (A) (A) (A) (A) (A) (A) (A) (A) (A)
                 (A) (A) (A) (A) (A) (A) (A) (A) (A) (A) (A) (A)
                 (A) (A) (A) (A) (A) (A) (A) (A) (A) (A) (A) (A)
                 (A) (A) (A) (A) (A) (A)
       Virtual   (A) (A) (A) (A) (A) (A) (A) (A) (A) (A) (A) (A)
                 (A) (A) (A) (A) (A) (A) (A) (A) (A) (A) (A) (A)
                 (A) (A) (A) (A) (A) (A) (A) (A) (A) (A) (A) (A)
                 (A) (A) (A) (A) (A) (A) (A) (A) (A) (A) (A) (A)
                 (A) (A) (A) (A) (A) (A) (A) (A) (A) (A) (A) (A)
                 (A) (A) (A) (A) (A) (A) (A) (A) (A) (A) (A) (A)
                 (A) (A) (A) (A) (A) (A) (A) (A) (A) (A) (A) (A)
                 (A) (A) (A) (A) (A) (A) (A) (A) (A) (A) (A) (A)
                 (A) (A) (A)
 The electronic state is 1-A.
 Alpha  occ. eigenvalues -- -145.39008-145.38988-145.35734 -77.19614 -19.11562
 Alpha  occ. eigenvalues --  -19.11262 -19.09600 -19.09464 -15.46102 -15.46084
 Alpha  occ. eigenvalues --  -15.43011 -12.59311 -12.59293 -12.59251 -12.59229
 Alpha  occ. eigenvalues --  -12.59178 -12.59160 -12.56258 -12.56185 -12.55980
 Alpha  occ. eigenvalues --   -6.64049  -4.80471  -4.80385  -4.80311  -1.83408
 Alpha  occ. eigenvalues --   -1.83378  -1.80659  -1.11487  -1.11002  -1.10983
 Alpha  occ. eigenvalues --   -1.10779  -1.10683  -1.10634  -1.08742  -1.08361
 Alpha  occ. eigenvalues --   -1.07930  -1.00658  -0.92543  -0.91821  -0.91121
 Alpha  occ. eigenvalues --   -0.51017  -0.42493  -0.41852  -0.40973  -0.35358
 Alpha  occ. eigenvalues --   -0.33040  -0.32458  -0.30622  -0.30351  -0.27763
 Alpha  occ. eigenvalues --   -0.26379  -0.25424  -0.21110  -0.14752
 Alpha virt. eigenvalues --   -0.09786  -0.04763  -0.03059  -0.02482  -0.01614
 Alpha virt. eigenvalues --   -0.00886  -0.00354   0.00495   0.01337   0.02554
 Alpha virt. eigenvalues --    0.05622   0.05718   0.08368   0.08902   0.10395
 Alpha virt. eigenvalues --    0.11519   0.13121   0.13589   0.13692   0.14540
 Alpha virt. eigenvalues --    0.14573   0.15529   0.16216   0.17402   0.18179
 Alpha virt. eigenvalues --    0.18536   0.19063   0.20440   0.21152   0.21482
 Alpha virt. eigenvalues --    0.21973   0.22845   0.23811   0.25860   0.28672
 Alpha virt. eigenvalues --    0.31250   0.31548   0.32251   0.35994   0.37864
 Alpha virt. eigenvalues --    0.38746   0.40003   0.40923   0.41794   0.46179
 Alpha virt. eigenvalues --    0.47579   0.51658   0.53465   0.62728   0.72487
 Alpha virt. eigenvalues --    0.75634   0.91578   0.92861   0.95713   0.99502
 Alpha virt. eigenvalues --    1.02966   1.07782   1.08645   1.10357   1.16423
 Alpha virt. eigenvalues --    1.17796   1.19057   1.21205   1.24159   1.28455
 Alpha virt. eigenvalues --    1.29810   1.35687   1.42684   1.45009   1.50841
 Alpha virt. eigenvalues --    1.68031   1.79381   1.80524   1.81886   1.83394
 Alpha virt. eigenvalues --    1.84749   1.85959   1.87898   1.89210   1.90966
 Alpha virt. eigenvalues --    1.91454   1.95663   2.10093   2.11085   2.14625
 Alpha virt. eigenvalues --    2.15636   2.18347   2.25219   2.29874   2.40623
 Alpha virt. eigenvalues --    2.55456   2.72625   2.79967   2.84137   3.55015
 Alpha virt. eigenvalues --    3.81194   3.83596   3.88663   4.03072
          Condensed to atoms (all electrons):
              1          2          3          4          5          6
     1  O    8.314100  -0.030893  -0.051939  -0.028686   0.364415   0.145301
     2  O   -0.030893   8.312378  -0.025100  -0.049576   0.358289   0.000556
     3  O   -0.051939  -0.025100   8.505477  -0.043451   0.231344   0.084042
     4  O   -0.028686  -0.049576  -0.043451   8.535556   0.205863  -0.006715
     5  P    0.364415   0.358289   0.231344   0.205863  12.568478  -0.020308
     6  Ca   0.145301   0.000556   0.084042  -0.006715  -0.020308  19.027546
     7  Ca  -0.011045  -0.002903   0.098497   0.116853  -0.010377   0.155318
     8  Ca   0.004158   0.141832  -0.001906   0.110641  -0.011032   0.007775
     9  H    0.000000  -0.000210   0.000000  -0.000215   0.000060   0.000718
              7          8          9
     1  O   -0.011045   0.004158   0.000000
     2  O   -0.002903   0.141832  -0.000210
     3  O    0.098497  -0.001906   0.000000
     4  O    0.116853   0.110641  -0.000215
     5  P   -0.010377  -0.011032   0.000060
     6  Ca   0.155318   0.007775   0.000718
     7  Ca  19.088630  -0.005069  -0.001381
     8  Ca  -0.005069  18.567249   0.336975
     9  H   -0.001381   0.336975   0.956931
 Mulliken atomic charges:
              1
     1  O   -0.705411
     2  O   -0.704373
     3  O   -0.796962
     4  O   -0.840268
     5  P    1.313269
     6  Ca   0.605766
     7  Ca   0.571479
     8  Ca   0.849377
     9  H   -0.292877
 Sum of Mulliken charges=   0.00000
 Atomic charges with hydrogens summed into heavy atoms:
              1
     1  O   -0.705411
     2  O   -0.704373
     3  O   -0.796962
     4  O   -0.840268
     5  P    1.313269
     6  Ca   0.605766
     7  Ca   0.571479
     8  Ca   0.556500
     9  H    0.000000
 Sum of Mulliken charges=   0.00000
 Electronic spatial extent (au):  <R**2>=  2284.3508
 Charge=     0.0000 electrons
 Dipole moment (field-independent basis, Debye):
    X=    -4.6832    Y=     1.1970    Z=     0.2461  Tot=     4.8400
 Quadrupole moment (field-independent basis, Debye-Ang):
   XX=  -110.0474   YY=   -85.4727   ZZ=   -93.9593
   XY=     6.0904   XZ=    -0.4186   YZ=     2.9569
 Traceless Quadrupole moment (field-independent basis, Debye-Ang):
   XX=   -13.5543   YY=    11.0204   ZZ=     2.5339
   XY=     6.0904   XZ=    -0.4186   YZ=     2.9569
 Octapole moment (field-independent basis, Debye-Ang**2):
  XXX=  -176.1223  YYY=   -22.1670  ZZZ=     4.8024  XYY=     8.6338
  XXY=   -90.6359  XXZ=    15.8895  XZZ=    16.6973  YZZ=    -9.1810
  YYZ=     8.7438  XYZ=     8.9421
 Hexadecapole moment (field-independent basis, Debye-Ang**3):
 XXXX= -3884.6945 YYYY= -1054.4131 ZZZZ=  -296.6164 XXXY=   -16.1141
 XXXZ=    45.5125 YYYX=    82.5631 YYYZ=    15.4416 ZZZX=    -9.9250
 ZZZY=     9.4683 XXYY=  -601.2543 XXZZ=  -473.4911 YYZZ=  -224.5200
 XXYZ=    22.8476 YYXZ=   -17.8617 ZZXY=    15.8280
 N-N= 9.009040636398D+02 E-N=-8.138559954765D+03  KE= 2.668814786111D+03
 Merz-Kollman atomic radii used.
 Read replacement radii for each type of atom:
 Rad(20) =   1.188000000000D+00
 Atom Element Radius
    1     8    1.40
    2     8    1.40
    3     8    1.40
    4     8    1.40
    5    15    1.80
    6    20    1.19
    7    20    1.19
    8    20    1.19
    9     1    1.20

 **********************************************************************

            Electrostatic Properties Using The SCF Density

 **********************************************************************

       Atomic Center    1 is at  -0.710616 -1.483141 -0.846070
       Atomic Center    2 is at   1.288230 -1.332582  0.844964
       Atomic Center    3 is at  -0.948671  0.124005  1.039280
       Atomic Center    4 is at   0.849479  0.643107 -0.632460
       Atomic Center    5 is at   0.139812 -0.611977  0.113368
       Atomic Center    6 is at  -2.775950 -0.803026 -0.120464
       Atomic Center    7 is at  -0.780231  2.210739  0.001360
       Atomic Center    8 is at   3.008420 -0.150290 -0.115283
       Atomic Center    9 is at   5.030661  0.420054 -0.258518
     788 points will be used for fitting atomic charges
 Fitting point charges to eletrostatic potential
 Charges from ESP fit, RMS=   0.03045 RRMS=   0.46109:
 Charge=   0.00000 Dipole=   -11.2134     4.8229    -1.2003 Tot=    12.2655
              1
     1  O   -0.970370
     2  O   -1.108494
     3  O   -0.941823
     4  O   -1.041471
     5  P    2.033882
     6  Ca   0.695541
     7  Ca   0.582269
     8  Ca   1.621719
     9  H   -0.871254
 -----------------------------------------------------------------

              Electrostatic Properties (Atomic Units)

 -----------------------------------------------------------------
    Center     Electric         -------- Electric Field --------
               Potential          X             Y             Z
 -----------------------------------------------------------------
    1 Atom    -22.371518
    2 Atom    -22.368575
    3 Atom    -22.351695
    4 Atom    -22.347740
    5 Atom    -54.009526
    6 Atom    -80.153273
    7 Atom    -80.154542
    8 Atom    -80.186005
    9 Atom     -1.216305
 -----------------------------------------------------------------
 1\1\GINC-N038\SP\RB3LYP\6-31G(d,p)\Ca3H1O4P1\TIMN\04-May-2015\0\\# b3l
 yp/6-31G(d,p) pop=(ReadRadii,MK)\\Ca3PO4_99\\0,1\O,0,-0.710616,-1.4831
 4,-0.84607\O,0,1.28823,-1.33258,0.844964\O,0,-0.948671,0.124006,1.0392
 8\O,0,0.849478,0.643109,-0.63246\P,0,0.139812,-0.611976,0.113368\Ca,0,
 -2.77595,-0.803026,-0.120464\Ca,0,-0.780232,2.21074,0.00136\Ca,0,3.008
 42,-0.150287,-0.115283\H,0,5.03066,0.420058,-0.258518\\Version=EM64T-G
 03RevE.01\State=1-A\HF=-2675.7887649\RMSD=2.687e-05\Thermal=0.\Dipole=
 -1.8425247,0.4709195,0.0968135\PG=C01 [X(Ca3H1O4P1)]\\@


 A MAN IS NEVER SO BRILLIANT AS WHEN HE TAKES THE WORDS RIGHT OUT
 OF YOUR MOUTH. -- ARNOT SHEPPARD, JR.
 Job cpu time:  0 days  0 hours  0 minutes 56.1 seconds.
 File lengths (MBytes):  RWF=     27 Int=      0 D2E=      0 Chk=     10 Scr=      1
 Normal termination of Gaussian 03 at Mon May  4 20:14:00 2015.
