 Entering Gaussian System, Link 0=/home/timn/tmp/g03.e01/g03
 Input=Ca3PO4_104.xyz.gjf
 Output=Ca3PO4_104.xyz.out
 Initial command:
 /home/timn/tmp/g03.e01/l1.exe /home/timn/tmp/g03.e01/Gau-27250.inp -scrdir=/home/timn/tmp/g03.e01/
 Default is to use a total of   2 processors:
                                2 via shared-memory
                                1 via Linda
 Entering Link 1 = /home/timn/tmp/g03.e01/l1.exe PID=     27251.
  
 Copyright (c) 1988,1990,1992,1993,1995,1998,2003,2004,2007, Gaussian, Inc.
                  All Rights Reserved.
  
 This is the Gaussian(R) 03 program.  It is based on the
 the Gaussian(R) 98 system (copyright 1998, Gaussian, Inc.),
 the Gaussian(R) 94 system (copyright 1995, Gaussian, Inc.),
 the Gaussian 92(TM) system (copyright 1992, Gaussian, Inc.),
 the Gaussian 90(TM) system (copyright 1990, Gaussian, Inc.),
 the Gaussian 88(TM) system (copyright 1988, Gaussian, Inc.),
 the Gaussian 86(TM) system (copyright 1986, Carnegie Mellon
 University), and the Gaussian 82(TM) system (copyright 1983,
 Carnegie Mellon University). Gaussian is a federally registered
 trademark of Gaussian, Inc.
  
 This software contains proprietary and confidential information,
 including trade secrets, belonging to Gaussian, Inc.
  
 This software is provided under written license and may be
 used, copied, transmitted, or stored only in accord with that
 written license.
  
 The following legend is applicable only to US Government
 contracts under FAR:
  
                    RESTRICTED RIGHTS LEGEND
  
 Use, reproduction and disclosure by the US Government is
 subject to restrictions as set forth in subparagraphs (a)
 and (c) of the Commercial Computer Software - Restricted
 Rights clause in FAR 52.227-19.
  
 Gaussian, Inc.
 340 Quinnipiac St., Bldg. 40, Wallingford CT 06492
  
  
 ---------------------------------------------------------------
 Warning -- This program may not be used in any manner that
 competes with the business of Gaussian, Inc. or will provide
 assistance to any competitor of Gaussian, Inc.  The licensee
 of this program is prohibited from giving any competitor of
 Gaussian, Inc. access to this program.  By using this program,
 the user acknowledges that Gaussian, Inc. is engaged in the
 business of creating and licensing software in the field of
 computational chemistry and represents and warrants to the
 licensee that it is not a competitor of Gaussian, Inc. and that
 it will not use this program in any manner prohibited above.
 ---------------------------------------------------------------
  

 Cite this work as:
 Gaussian 03, Revision E.01,
 M. J. Frisch, G. W. Trucks, H. B. Schlegel, G. E. Scuseria, 
 M. A. Robb, J. R. Cheeseman, J. A. Montgomery, Jr., T. Vreven, 
 K. N. Kudin, J. C. Burant, J. M. Millam, S. S. Iyengar, J. Tomasi, 
 V. Barone, B. Mennucci, M. Cossi, G. Scalmani, N. Rega, 
 G. A. Petersson, H. Nakatsuji, M. Hada, M. Ehara, K. Toyota, 
 R. Fukuda, J. Hasegawa, M. Ishida, T. Nakajima, Y. Honda, O. Kitao, 
 H. Nakai, M. Klene, X. Li, J. E. Knox, H. P. Hratchian, J. B. Cross, 
 V. Bakken, C. Adamo, J. Jaramillo, R. Gomperts, R. E. Stratmann, 
 O. Yazyev, A. J. Austin, R. Cammi, C. Pomelli, J. W. Ochterski, 
 P. Y. Ayala, K. Morokuma, G. A. Voth, P. Salvador, J. J. Dannenberg, 
 V. G. Zakrzewski, S. Dapprich, A. D. Daniels, M. C. Strain, 
 O. Farkas, D. K. Malick, A. D. Rabuck, K. Raghavachari, 
 J. B. Foresman, J. V. Ortiz, Q. Cui, A. G. Baboul, S. Clifford, 
 J. Cioslowski, B. B. Stefanov, G. Liu, A. Liashenko, P. Piskorz, 
 I. Komaromi, R. L. Martin, D. J. Fox, T. Keith, M. A. Al-Laham, 
 C. Y. Peng, A. Nanayakkara, M. Challacombe, P. M. W. Gill, 
 B. Johnson, W. Chen, M. W. Wong, C. Gonzalez, and J. A. Pople, 
 Gaussian, Inc., Wallingford CT, 2004.
 
 ******************************************
 Gaussian 03:  EM64T-G03RevE.01 11-Sep-2007
                 4-May-2015 
 ******************************************
 %nproc=2
 Will use up to    2 processors via shared memory.
 Default route:  MP2=Direct MaxDisk=2000MB
 -------------------------------------
 # b3lyp/6-31G(d,p) pop=(ReadRadii,MK)
 -------------------------------------
 1/38=1/1;
 2/17=6,18=5,40=1/2;
 3/5=1,6=6,7=101,11=2,16=1,25=1,30=1,74=-5/1,2,3;
 4//1;
 5/5=2,32=1,38=5/2;
 6/7=2,8=2,9=2,10=2,15=8,20=101,28=1/1,2;
 99/5=1,9=1/99;
 ----------
 Ca3PO4_104
 ----------
 Symbolic Z-matrix:
 Charge =  0 Multiplicity = 1
 O                    -1.43891  -0.00047   1.63368 
 O                    -0.45657   1.26142  -0.33009 
 O                    -0.45543  -1.264    -0.32874 
 O                     1.23792   0.00037   1.0727 
 P                    -0.28507  -0.00077   0.63768 
 Ca                    1.79297  -1.81968  -0.35833 
 Ca                    1.79093   1.8214   -0.35752 
 Ca                   -2.6978   -0.00009  -0.50582 
 H                    -4.54209   0.00061  -1.51233 
 
                          Input orientation:                          
 ---------------------------------------------------------------------
 Center     Atomic     Atomic              Coordinates (Angstroms)
 Number     Number      Type              X           Y           Z
 ---------------------------------------------------------------------
    1          8             0       -1.438910   -0.000473    1.633680
    2          8             0       -0.456567    1.261420   -0.330088
    3          8             0       -0.455425   -1.264000   -0.328736
    4          8             0        1.237920    0.000366    1.072700
    5         15             0       -0.285065   -0.000774    0.637680
    6         20             0        1.792970   -1.819680   -0.358330
    7         20             0        1.790930    1.821400   -0.357517
    8         20             0       -2.697800   -0.000092   -0.505818
    9          1             0       -4.542090    0.000610   -1.512330
 ---------------------------------------------------------------------
                    Distance matrix (angstroms):
                    1          2          3          4          5
     1  O    0.000000
     2  O    2.532540   0.000000
     3  O    2.532749   2.525421   0.000000
     4  O    2.734980   2.535618   2.535757   0.000000
     5  P    1.524262   1.599725   1.599601   1.583896   0.000000
     6  Ca   4.209830   3.815022   2.316233   2.380860   2.935760
     7  Ca   4.209032   2.316371   3.816626   2.380652   2.936067
     8  Ca   2.482389   2.577871   2.580129   4.240473   2.669996
     9  H    4.418949   4.436083   4.438577   6.331737   4.769152
                    6          7          8          9
     6  Ca   0.000000
     7  Ca   3.641081   0.000000
     8  Ca   4.847646   4.846496   0.000000
     9  H    6.691648   6.689993   2.101065   0.000000
 Stoichiometry    Ca3HO4P
 Framework group  C1[X(Ca3HO4P)]
 Deg. of freedom    21
 Full point group                 C1
 Largest Abelian subgroup         C1      NOp   1
 Largest concise Abelian subgroup C1      NOp   1
                         Standard orientation:                         
 ---------------------------------------------------------------------
 Center     Atomic     Atomic              Coordinates (Angstroms)
 Number     Number      Type              X           Y           Z
 ---------------------------------------------------------------------
    1          8             0       -1.438911   -0.000475    1.633680
    2          8             0       -0.456569    1.261419   -0.330088
    3          8             0       -0.455424   -1.264001   -0.328736
    4          8             0        1.237919    0.000367    1.072700
    5         15             0       -0.285066   -0.000775    0.637680
    6         20             0        1.792971   -1.819679   -0.358330
    7         20             0        1.790927    1.821401   -0.357517
    8         20             0       -2.697801   -0.000096   -0.505818
    9          1             0       -4.542091    0.000604   -1.512330
 ---------------------------------------------------------------------
 Rotational constants (GHZ):      1.2156647      0.6876708      0.5314151
 Standard basis: 6-31G(d,p) (6D, 7F)
 There are   153 symmetry adapted basis functions of A   symmetry.
 Integral buffers will be    131072 words long.
 Raffenetti 2 integral format.
 Two-electron integral symmetry is turned on.
   153 basis functions,   399 primitive gaussians,   153 cartesian basis functions
    54 alpha electrons       54 beta electrons
       nuclear repulsion energy       915.4472120285 Hartrees.
 NAtoms=    9 NActive=    9 NUniq=    9 SFac= 7.50D-01 NAtFMM=   80 NAOKFM=F Big=F
 One-electron integrals computed using PRISM.
 NBasis=   153 RedAO= T  NBF=   153
 NBsUse=   153 1.00D-06 NBFU=   153
 Harris functional with IExCor=  402 diagonalized for initial guess.
 ExpMin= 2.60D-02 ExpMax= 3.53D+04 ExpMxC= 5.30D+03 IAcc=3 IRadAn=         5 AccDes= 0.00D+00
 HarFok:  IExCor= 402 AccDes= 0.00D+00 IRadAn=         5 IDoV=1
 ScaDFX=  1.000000  1.000000  1.000000  1.000000
 Initial guess orbital symmetries:
       Occupied  (A) (A) (A) (A) (A) (A) (A) (A) (A) (A) (A) (A)
                 (A) (A) (A) (A) (A) (A) (A) (A) (A) (A) (A) (A)
                 (A) (A) (A) (A) (A) (A) (A) (A) (A) (A) (A) (A)
                 (A) (A) (A) (A) (A) (A) (A) (A) (A) (A) (A) (A)
                 (A) (A) (A) (A) (A) (A)
       Virtual   (A) (A) (A) (A) (A) (A) (A) (A) (A) (A) (A) (A)
                 (A) (A) (A) (A) (A) (A) (A) (A) (A) (A) (A) (A)
                 (A) (A) (A) (A) (A) (A) (A) (A) (A) (A) (A) (A)
                 (A) (A) (A) (A) (A) (A) (A) (A) (A) (A) (A) (A)
                 (A) (A) (A) (A) (A) (A) (A) (A) (A) (A) (A) (A)
                 (A) (A) (A) (A) (A) (A) (A) (A) (A) (A) (A) (A)
                 (A) (A) (A) (A) (A) (A) (A) (A) (A) (A) (A) (A)
                 (A) (A) (A) (A) (A) (A) (A) (A) (A) (A) (A) (A)
                 (A) (A) (A)
 The electronic state of the initial guess is 1-A.
 Requested convergence on RMS density matrix=1.00D-04 within 128 cycles.
 Requested convergence on MAX density matrix=1.00D-02.
 Requested convergence on             energy=1.00D-02.
 No special actions if energy rises.
 SCF Done:  E(RB+HF-LYP) =  -2675.77971607     A.U. after    7 cycles
             Convg  =    0.5697D-04             -V/T =  2.0026
             S**2   =   0.0000

 **********************************************************************

            Population analysis using the SCF density.

 **********************************************************************

 Orbital symmetries:
       Occupied  (A) (A) (A) (A) (A) (A) (A) (A) (A) (A) (A) (A)
                 (A) (A) (A) (A) (A) (A) (A) (A) (A) (A) (A) (A)
                 (A) (A) (A) (A) (A) (A) (A) (A) (A) (A) (A) (A)
                 (A) (A) (A) (A) (A) (A) (A) (A) (A) (A) (A) (A)
                 (A) (A) (A) (A) (A) (A)
       Virtual   (A) (A) (A) (A) (A) (A) (A) (A) (A) (A) (A) (A)
                 (A) (A) (A) (A) (A) (A) (A) (A) (A) (A) (A) (A)
                 (A) (A) (A) (A) (A) (A) (A) (A) (A) (A) (A) (A)
                 (A) (A) (A) (A) (A) (A) (A) (A) (A) (A) (A) (A)
                 (A) (A) (A) (A) (A) (A) (A) (A) (A) (A) (A) (A)
                 (A) (A) (A) (A) (A) (A) (A) (A) (A) (A) (A) (A)
                 (A) (A) (A) (A) (A) (A) (A) (A) (A) (A) (A) (A)
                 (A) (A) (A) (A) (A) (A) (A) (A) (A) (A) (A) (A)
                 (A) (A) (A)
 The electronic state is 1-A.
 Alpha  occ. eigenvalues -- -145.39650-145.39649-145.36306 -77.19494 -19.12862
 Alpha  occ. eigenvalues --  -19.10912 -19.10909 -19.08998 -15.46733 -15.46732
 Alpha  occ. eigenvalues --  -15.43445 -12.59940 -12.59938 -12.59883 -12.59881
 Alpha  occ. eigenvalues --  -12.59813 -12.59812 -12.56657 -12.56650 -12.56462
 Alpha  occ. eigenvalues --   -6.64168  -4.80574  -4.80501  -4.80393  -1.84014
 Alpha  occ. eigenvalues --   -1.83990  -1.80846  -1.12104  -1.11586  -1.11554
 Alpha  occ. eigenvalues --   -1.11354  -1.11304  -1.11248  -1.08539  -1.08521
 Alpha  occ. eigenvalues --   -1.08250  -1.01400  -0.93802  -0.91779  -0.91367
 Alpha  occ. eigenvalues --   -0.51285  -0.43468  -0.42075  -0.40910  -0.35559
 Alpha  occ. eigenvalues --   -0.34305  -0.32285  -0.31439  -0.30639  -0.28241
 Alpha  occ. eigenvalues --   -0.27120  -0.24469  -0.20500  -0.15099
 Alpha virt. eigenvalues --   -0.10066  -0.04708  -0.03433  -0.01734  -0.01592
 Alpha virt. eigenvalues --   -0.00820   0.00142   0.00984   0.01095   0.02247
 Alpha virt. eigenvalues --    0.05618   0.06305   0.08151   0.08238   0.11443
 Alpha virt. eigenvalues --    0.11745   0.12825   0.13359   0.13916   0.14229
 Alpha virt. eigenvalues --    0.15388   0.15742   0.16074   0.16559   0.17986
 Alpha virt. eigenvalues --    0.18676   0.19079   0.20541   0.21654   0.22139
 Alpha virt. eigenvalues --    0.22313   0.22515   0.24085   0.27238   0.28607
 Alpha virt. eigenvalues --    0.28958   0.30425   0.30827   0.34308   0.36634
 Alpha virt. eigenvalues --    0.39157   0.41065   0.42932   0.44618   0.45099
 Alpha virt. eigenvalues --    0.50605   0.51862   0.54092   0.64168   0.71210
 Alpha virt. eigenvalues --    0.73379   0.88972   0.93242   0.94099   1.00931
 Alpha virt. eigenvalues --    1.05082   1.06847   1.07492   1.09272   1.13435
 Alpha virt. eigenvalues --    1.17865   1.18240   1.23088   1.23764   1.27099
 Alpha virt. eigenvalues --    1.31824   1.36316   1.43862   1.47014   1.56795
 Alpha virt. eigenvalues --    1.77405   1.79508   1.79529   1.80245   1.81784
 Alpha virt. eigenvalues --    1.83681   1.85732   1.86383   1.89196   1.89960
 Alpha virt. eigenvalues --    1.94679   1.99433   2.07445   2.15156   2.15635
 Alpha virt. eigenvalues --    2.15811   2.18908   2.25421   2.29747   2.37571
 Alpha virt. eigenvalues --    2.57725   2.75962   2.79055   2.84788   3.53650
 Alpha virt. eigenvalues --    3.83324   3.86631   3.98584   4.20366
          Condensed to atoms (all electrons):
              1          2          3          4          5          6
     1  O    8.269443  -0.044776  -0.044743  -0.017391   0.377030  -0.003182
     2  O   -0.044776   8.513727  -0.041032  -0.040525   0.219593  -0.011064
     3  O   -0.044743  -0.041032   8.513264  -0.040506   0.219858   0.125929
     4  O   -0.017391  -0.040525  -0.040506   8.457627   0.242891   0.087053
     5  P    0.377030   0.219593   0.219858   0.242891  12.610951  -0.018018
     6  Ca  -0.003182  -0.011064   0.125929   0.087053  -0.018018  19.054367
     7  Ca  -0.003162   0.125856  -0.011068   0.087109  -0.018014   0.196376
     8  Ca   0.133447   0.097665   0.097460   0.005817  -0.028264  -0.012779
     9  H   -0.000092  -0.000062  -0.000061   0.000000  -0.000221   0.001059
              7          8          9
     1  O   -0.003162   0.133447  -0.000092
     2  O    0.125856   0.097665  -0.000062
     3  O   -0.011068   0.097460  -0.000061
     4  O    0.087109   0.005817   0.000000
     5  P   -0.018014  -0.028264  -0.000221
     6  Ca   0.196376  -0.012779   0.001059
     7  Ca  19.054346  -0.012817   0.001055
     8  Ca  -0.012817  18.555318   0.336472
     9  H    0.001055   0.336472   0.957167
 Mulliken atomic charges:
              1
     1  O   -0.666575
     2  O   -0.819381
     3  O   -0.819100
     4  O   -0.782075
     5  P    1.394193
     6  Ca   0.580259
     7  Ca   0.580318
     8  Ca   0.827680
     9  H   -0.295319
 Sum of Mulliken charges=   0.00000
 Atomic charges with hydrogens summed into heavy atoms:
              1
     1  O   -0.666575
     2  O   -0.819381
     3  O   -0.819100
     4  O   -0.782075
     5  P    1.394193
     6  Ca   0.580259
     7  Ca   0.580318
     8  Ca   0.532362
     9  H    0.000000
 Sum of Mulliken charges=   0.00000
 Electronic spatial extent (au):  <R**2>=  2133.1007
 Charge=     0.0000 electrons
 Dipole moment (field-independent basis, Debye):
    X=     6.0494    Y=     0.0000    Z=    -0.4982  Tot=     6.0699
 Quadrupole moment (field-independent basis, Debye-Ang):
   XX=  -116.1908   YY=   -70.6156   ZZ=  -102.9068
   XY=    -0.0170   XZ=    -5.4086   YZ=     0.0153
 Traceless Quadrupole moment (field-independent basis, Debye-Ang):
   XX=   -19.6197   YY=    25.9555   ZZ=    -6.3358
   XY=    -0.0170   XZ=    -5.4086   YZ=     0.0153
 Octapole moment (field-independent basis, Debye-Ang**2):
  XXX=    84.1978  YYY=    -0.0168  ZZZ=    25.6006  XYY=    18.7707
  XXY=    -0.1316  XXZ=    82.8602  XZZ=     8.7649  YZZ=    -0.0296
  YYZ=    14.7068  XYZ=    -0.0019
 Hexadecapole moment (field-independent basis, Debye-Ang**3):
 XXXX= -3153.6822 YYYY=  -903.6833 ZZZZ=  -509.7879 XXXY=    -0.0639
 XXXZ=  -257.9354 YYYX=    -0.2040 YYYZ=     0.0835 ZZZX=     3.3995
 ZZZY=     0.0428 XXYY=  -493.5837 XXZZ=  -588.4714 YYZZ=  -242.8500
 XXYZ=     0.0869 YYXZ=    17.1395 ZZXY=    -0.0212
 N-N= 9.154472120285D+02 E-N=-8.167127010229D+03  KE= 2.668786574081D+03
 Merz-Kollman atomic radii used.
 Read replacement radii for each type of atom:
 Rad(20) =   1.188000000000D+00
 Atom Element Radius
    1     8    1.40
    2     8    1.40
    3     8    1.40
    4     8    1.40
    5    15    1.80
    6    20    1.19
    7    20    1.19
    8    20    1.19
    9     1    1.20

 **********************************************************************

            Electrostatic Properties Using The SCF Density

 **********************************************************************

       Atomic Center    1 is at  -1.438911 -0.000475  1.633680
       Atomic Center    2 is at  -0.456569  1.261419 -0.330088
       Atomic Center    3 is at  -0.455424 -1.264001 -0.328736
       Atomic Center    4 is at   1.237919  0.000367  1.072700
       Atomic Center    5 is at  -0.285066 -0.000775  0.637680
       Atomic Center    6 is at   1.792971 -1.819679 -0.358330
       Atomic Center    7 is at   1.790927  1.821401 -0.357517
       Atomic Center    8 is at  -2.697801 -0.000096 -0.505818
       Atomic Center    9 is at  -4.542091  0.000604 -1.512330
     779 points will be used for fitting atomic charges
 Fitting point charges to eletrostatic potential
 Charges from ESP fit, RMS=   0.03011 RRMS=   0.45935:
 Charge=   0.00000 Dipole=    12.7428     0.0054    -3.4825 Tot=    13.2101
              1
     1  O   -1.211072
     2  O   -1.143941
     3  O   -1.143791
     4  O   -1.101546
     5  P    2.589930
     6  Ca   0.648910
     7  Ca   0.648768
     8  Ca   1.562150
     9  H   -0.849408
 -----------------------------------------------------------------

              Electrostatic Properties (Atomic Units)

 -----------------------------------------------------------------
    Center     Electric         -------- Electric Field --------
               Potential          X             Y             Z
 -----------------------------------------------------------------
    1 Atom    -22.373266
    2 Atom    -22.356596
    3 Atom    -22.356593
    4 Atom    -22.335410
    5 Atom    -54.009609
    6 Atom    -80.147125
    7 Atom    -80.147163
    8 Atom    -80.180217
    9 Atom     -1.223426
 -----------------------------------------------------------------
 1\1\GINC-N041\SP\RB3LYP\6-31G(d,p)\Ca3H1O4P1\TIMN\04-May-2015\0\\# b3l
 yp/6-31G(d,p) pop=(ReadRadii,MK)\\Ca3PO4_104\\0,1\O,0,-1.43891,-0.0004
 73,1.63368\O,0,-0.456567,1.26142,-0.330088\O,0,-0.455425,-1.264,-0.328
 736\O,0,1.23792,0.000366,1.0727\P,0,-0.285065,-0.000774,0.63768\Ca,0,1
 .79297,-1.81968,-0.35833\Ca,0,1.79093,1.8214,-0.357517\Ca,0,-2.6978,-0
 .000092,-0.505818\H,0,-4.54209,0.00061,-1.51233\\Version=EM64T-G03RevE
 .01\State=1-A\HF=-2675.7797161\RMSD=5.697e-05\Thermal=0.\Dipole=2.3800
 133,0.0000012,-0.196\PG=C01 [X(Ca3H1O4P1)]\\@


 FROM WHENCE IT HAPPENS, THAT THEY WHICH TRUST TO BOOKS, DO AS THEY THAT CAST UP MANY LITTLE SUMMS INTO GREATER,
 WITHOUT CONSIDERING WETHER THOSE LITTLE SUMMES WERE RIGHTLY CAST UP OR NOT...
 AND AT LAST FINDING THE ERROUR VISIBLE, AND NOT MISTRUSTING THEIR FIRST GROUNDS,
 KNOW NOT WHICH WAY TO CLEERE THEMSELVES...
 BUT SPEND TIME IN FLUTTERING OVER THEIR BOOKES....
 AS BIRDS THAT ENTERING BY THE CHIMNEY, AND FINDING THEMSELVES INCLOSED IN A CHAMBER,
 FLUTTER AT THE FALSE LIGHT OF A GLASSE WINDOW,
 FOR WANT OF WIT TO CONSIDER WHICH WAY THEY CAME IN....
           LEVIATHAN
 Job cpu time:  0 days  0 hours  0 minutes 44.9 seconds.
 File lengths (MBytes):  RWF=     27 Int=      0 D2E=      0 Chk=     10 Scr=      1
 Normal termination of Gaussian 03 at Mon May  4 20:09:27 2015.
