 Entering Gaussian System, Link 0=/home/timn/tmp/g03.e01/g03
 Input=Ca3PO4_43.xyz.gjf
 Output=Ca3PO4_43.xyz.out
 Initial command:
 /home/timn/tmp/g03.e01/l1.exe /home/timn/tmp/g03.e01/Gau-12443.inp -scrdir=/home/timn/tmp/g03.e01/
 Default is to use a total of   2 processors:
                                2 via shared-memory
                                1 via Linda
 Entering Link 1 = /home/timn/tmp/g03.e01/l1.exe PID=     12444.
  
 Copyright (c) 1988,1990,1992,1993,1995,1998,2003,2004,2007, Gaussian, Inc.
                  All Rights Reserved.
  
 This is the Gaussian(R) 03 program.  It is based on the
 the Gaussian(R) 98 system (copyright 1998, Gaussian, Inc.),
 the Gaussian(R) 94 system (copyright 1995, Gaussian, Inc.),
 the Gaussian 92(TM) system (copyright 1992, Gaussian, Inc.),
 the Gaussian 90(TM) system (copyright 1990, Gaussian, Inc.),
 the Gaussian 88(TM) system (copyright 1988, Gaussian, Inc.),
 the Gaussian 86(TM) system (copyright 1986, Carnegie Mellon
 University), and the Gaussian 82(TM) system (copyright 1983,
 Carnegie Mellon University). Gaussian is a federally registered
 trademark of Gaussian, Inc.
  
 This software contains proprietary and confidential information,
 including trade secrets, belonging to Gaussian, Inc.
  
 This software is provided under written license and may be
 used, copied, transmitted, or stored only in accord with that
 written license.
  
 The following legend is applicable only to US Government
 contracts under FAR:
  
                    RESTRICTED RIGHTS LEGEND
  
 Use, reproduction and disclosure by the US Government is
 subject to restrictions as set forth in subparagraphs (a)
 and (c) of the Commercial Computer Software - Restricted
 Rights clause in FAR 52.227-19.
  
 Gaussian, Inc.
 340 Quinnipiac St., Bldg. 40, Wallingford CT 06492
  
  
 ---------------------------------------------------------------
 Warning -- This program may not be used in any manner that
 competes with the business of Gaussian, Inc. or will provide
 assistance to any competitor of Gaussian, Inc.  The licensee
 of this program is prohibited from giving any competitor of
 Gaussian, Inc. access to this program.  By using this program,
 the user acknowledges that Gaussian, Inc. is engaged in the
 business of creating and licensing software in the field of
 computational chemistry and represents and warrants to the
 licensee that it is not a competitor of Gaussian, Inc. and that
 it will not use this program in any manner prohibited above.
 ---------------------------------------------------------------
  

 Cite this work as:
 Gaussian 03, Revision E.01,
 M. J. Frisch, G. W. Trucks, H. B. Schlegel, G. E. Scuseria, 
 M. A. Robb, J. R. Cheeseman, J. A. Montgomery, Jr., T. Vreven, 
 K. N. Kudin, J. C. Burant, J. M. Millam, S. S. Iyengar, J. Tomasi, 
 V. Barone, B. Mennucci, M. Cossi, G. Scalmani, N. Rega, 
 G. A. Petersson, H. Nakatsuji, M. Hada, M. Ehara, K. Toyota, 
 R. Fukuda, J. Hasegawa, M. Ishida, T. Nakajima, Y. Honda, O. Kitao, 
 H. Nakai, M. Klene, X. Li, J. E. Knox, H. P. Hratchian, J. B. Cross, 
 V. Bakken, C. Adamo, J. Jaramillo, R. Gomperts, R. E. Stratmann, 
 O. Yazyev, A. J. Austin, R. Cammi, C. Pomelli, J. W. Ochterski, 
 P. Y. Ayala, K. Morokuma, G. A. Voth, P. Salvador, J. J. Dannenberg, 
 V. G. Zakrzewski, S. Dapprich, A. D. Daniels, M. C. Strain, 
 O. Farkas, D. K. Malick, A. D. Rabuck, K. Raghavachari, 
 J. B. Foresman, J. V. Ortiz, Q. Cui, A. G. Baboul, S. Clifford, 
 J. Cioslowski, B. B. Stefanov, G. Liu, A. Liashenko, P. Piskorz, 
 I. Komaromi, R. L. Martin, D. J. Fox, T. Keith, M. A. Al-Laham, 
 C. Y. Peng, A. Nanayakkara, M. Challacombe, P. M. W. Gill, 
 B. Johnson, W. Chen, M. W. Wong, C. Gonzalez, and J. A. Pople, 
 Gaussian, Inc., Wallingford CT, 2004.
 
 ******************************************
 Gaussian 03:  EM64T-G03RevE.01 11-Sep-2007
                 4-May-2015 
 ******************************************
 %nproc=2
 Will use up to    2 processors via shared memory.
 Default route:  MP2=Direct MaxDisk=2000MB
 -------------------------------------
 # b3lyp/6-31G(d,p) pop=(ReadRadii,MK)
 -------------------------------------
 1/38=1/1;
 2/17=6,18=5,40=1/2;
 3/5=1,6=6,7=101,11=2,16=1,25=1,30=1,74=-5/1,2,3;
 4//1;
 5/5=2,32=1,38=5/2;
 6/7=2,8=2,9=2,10=2,15=8,20=101,28=1/1,2;
 99/5=1,9=1/99;
 ---------
 Ca3PO4_43
 ---------
 Symbolic Z-matrix:
 Charge =  0 Multiplicity = 1
 O                    -1.96061   0.48465   0.85676 
 O                     0.52969  -0.82149  -0.77883 
 O                     0.66788  -0.93525   0.77259 
 O                     2.30451   1.60042   0.07811 
 P                    -2.76329   0.8591   -0.58411 
 Ca                    0.04074   1.34541   0.16677 
 Ca                    2.74506  -0.61327  -0.19103 
 Ca                   -1.47443  -1.62572   0.09099 
 H                     2.89026   2.35845  -0.00195 
 
                          Input orientation:                          
 ---------------------------------------------------------------------
 Center     Atomic     Atomic              Coordinates (Angstroms)
 Number     Number      Type              X           Y           Z
 ---------------------------------------------------------------------
    1          8             0       -1.960610    0.484653    0.856758
    2          8             0        0.529687   -0.821490   -0.778833
    3          8             0        0.667881   -0.935251    0.772586
    4          8             0        2.304510    1.600420    0.078111
    5         15             0       -2.763290    0.859096   -0.584110
    6         20             0        0.040736    1.345410    0.166766
    7         20             0        2.745060   -0.613271   -0.191026
    8         20             0       -1.474430   -1.625720    0.090992
    9          1             0        2.890260    2.358450   -0.001950
 ---------------------------------------------------------------------
                    Distance matrix (angstroms):
                    1          2          3          4          5
     1  O    0.000000
     2  O    3.253113   0.000000
     3  O    2.988675   1.561711   0.000000
     4  O    4.476882   3.122499   3.096850   0.000000
     5  P    1.691332   3.702159   4.102833   5.164368   0.000000
     6  Ca   2.285252   2.414267   2.441668   2.279816   2.943277
     7  Ca   4.944352   2.301467   2.312335   2.273092   5.715269
     8  Ca   2.297051   2.328061   2.351768   4.968756   2.879450
     9  H    5.270620   4.035823   4.048128   0.961313   5.877891
                    6          7          8          9
     6  Ca   0.000000
     7  Ca   3.358246   0.000000
     8  Ca   3.336028   4.348412   0.000000
     9  H    3.028944   2.981268   5.910395   0.000000
 Stoichiometry    Ca3HO4P
 Framework group  C1[X(Ca3HO4P)]
 Deg. of freedom    21
 Full point group                 C1
 Largest Abelian subgroup         C1      NOp   1
 Largest concise Abelian subgroup C1      NOp   1
                         Standard orientation:                         
 ---------------------------------------------------------------------
 Center     Atomic     Atomic              Coordinates (Angstroms)
 Number     Number      Type              X           Y           Z
 ---------------------------------------------------------------------
    1          8             0       -1.960609    0.484655    0.856758
    2          8             0        0.529687   -0.821490   -0.778833
    3          8             0        0.667881   -0.935251    0.772586
    4          8             0        2.304511    1.600419    0.078111
    5         15             0       -2.763289    0.859099   -0.584110
    6         20             0        0.040737    1.345411    0.166766
    7         20             0        2.745060   -0.613272   -0.191026
    8         20             0       -1.474431   -1.625718    0.090992
    9          1             0        2.890262    2.358449   -0.001950
 ---------------------------------------------------------------------
 Rotational constants (GHZ):      1.5070780      0.6047883      0.4671364
 Standard basis: 6-31G(d,p) (6D, 7F)
 There are   153 symmetry adapted basis functions of A   symmetry.
 Integral buffers will be    131072 words long.
 Raffenetti 2 integral format.
 Two-electron integral symmetry is turned on.
   153 basis functions,   399 primitive gaussians,   153 cartesian basis functions
    54 alpha electrons       54 beta electrons
       nuclear repulsion energy       882.7217296226 Hartrees.
 NAtoms=    9 NActive=    9 NUniq=    9 SFac= 7.50D-01 NAtFMM=   80 NAOKFM=F Big=F
 One-electron integrals computed using PRISM.
 NBasis=   153 RedAO= T  NBF=   153
 NBsUse=   153 1.00D-06 NBFU=   153
 Harris functional with IExCor=  402 diagonalized for initial guess.
 ExpMin= 2.60D-02 ExpMax= 3.53D+04 ExpMxC= 5.30D+03 IAcc=3 IRadAn=         5 AccDes= 0.00D+00
 HarFok:  IExCor= 402 AccDes= 0.00D+00 IRadAn=         5 IDoV=1
 ScaDFX=  1.000000  1.000000  1.000000  1.000000
 Initial guess orbital symmetries:
       Occupied  (A) (A) (A) (A) (A) (A) (A) (A) (A) (A) (A) (A)
                 (A) (A) (A) (A) (A) (A) (A) (A) (A) (A) (A) (A)
                 (A) (A) (A) (A) (A) (A) (A) (A) (A) (A) (A) (A)
                 (A) (A) (A) (A) (A) (A) (A) (A) (A) (A) (A) (A)
                 (A) (A) (A) (A) (A) (A)
       Virtual   (A) (A) (A) (A) (A) (A) (A) (A) (A) (A) (A) (A)
                 (A) (A) (A) (A) (A) (A) (A) (A) (A) (A) (A) (A)
                 (A) (A) (A) (A) (A) (A) (A) (A) (A) (A) (A) (A)
                 (A) (A) (A) (A) (A) (A) (A) (A) (A) (A) (A) (A)
                 (A) (A) (A) (A) (A) (A) (A) (A) (A) (A) (A) (A)
                 (A) (A) (A) (A) (A) (A) (A) (A) (A) (A) (A) (A)
                 (A) (A) (A) (A) (A) (A) (A) (A) (A) (A) (A) (A)
                 (A) (A) (A) (A) (A) (A) (A) (A) (A) (A) (A) (A)
                 (A) (A) (A)
 The electronic state of the initial guess is 1-A.
 Requested convergence on RMS density matrix=1.00D-04 within 128 cycles.
 Requested convergence on MAX density matrix=1.00D-02.
 Requested convergence on             energy=1.00D-02.
 No special actions if energy rises.
 EnCoef did     2 forward-backward iterations
 EnCoef did     3 forward-backward iterations
 EnCoef did     8 forward-backward iterations
 EnCoef did     6 forward-backward iterations
 EnCoef did     6 forward-backward iterations
 EnCoef did     5 forward-backward iterations
 Rare condition: small coef for last iteration:  0.000D+00
 EnCoef did    35 forward-backward iterations
 Rare condition: small coef for last iteration:  0.000D+00
 SCF Done:  E(RB+HF-LYP) =  -2675.63188214     A.U. after   15 cycles
             Convg  =    0.4230D-04             -V/T =  2.0025
             S**2   =   0.0000

 **********************************************************************

            Population analysis using the SCF density.

 **********************************************************************

 Orbital symmetries:
       Occupied  (A) (A) (A) (A) (A) (A) (A) (A) (A) (A) (A) (A)
                 (A) (A) (A) (A) (A) (A) (A) (A) (A) (A) (A) (A)
                 (A) (A) (A) (A) (A) (A) (A) (A) (A) (A) (A) (A)
                 (A) (A) (A) (A) (A) (A) (A) (A) (A) (A) (A) (A)
                 (A) (A) (A) (A) (A) (A)
       Virtual   (A) (A) (A) (A) (A) (A) (A) (A) (A) (A) (A) (A)
                 (A) (A) (A) (A) (A) (A) (A) (A) (A) (A) (A) (A)
                 (A) (A) (A) (A) (A) (A) (A) (A) (A) (A) (A) (A)
                 (A) (A) (A) (A) (A) (A) (A) (A) (A) (A) (A) (A)
                 (A) (A) (A) (A) (A) (A) (A) (A) (A) (A) (A) (A)
                 (A) (A) (A) (A) (A) (A) (A) (A) (A) (A) (A) (A)
                 (A) (A) (A) (A) (A) (A) (A) (A) (A) (A) (A) (A)
                 (A) (A) (A) (A) (A) (A) (A) (A) (A) (A) (A) (A)
                 (A) (A) (A)
 The electronic state is 1-A.
 Alpha  occ. eigenvalues -- -145.36192-145.35559-145.32724 -77.04341 -19.13734
 Alpha  occ. eigenvalues --  -19.13400 -19.10116 -19.08203 -15.43330 -15.42654
 Alpha  occ. eigenvalues --  -15.39876 -12.56526 -12.56451 -12.56442 -12.55856
 Alpha  occ. eigenvalues --  -12.55790 -12.55763 -12.53094 -12.53054 -12.52921
 Alpha  occ. eigenvalues --   -6.50851  -4.67227  -4.67073  -4.66506  -1.80796
 Alpha  occ. eigenvalues --   -1.80088  -1.77522  -1.09392  -1.08488  -1.08329
 Alpha  occ. eigenvalues --   -1.08014  -1.07618  -1.07490  -1.05493  -1.05246
 Alpha  occ. eigenvalues --   -1.05034  -0.96534  -0.91521  -0.88694  -0.77467
 Alpha  occ. eigenvalues --   -0.48102  -0.43478  -0.37257  -0.36598  -0.35475
 Alpha  occ. eigenvalues --   -0.31015  -0.30137  -0.29386  -0.29176  -0.27981
 Alpha  occ. eigenvalues --   -0.24725  -0.22765  -0.12918  -0.11431
 Alpha virt. eigenvalues --   -0.09210  -0.07285  -0.03811  -0.03011  -0.01340
 Alpha virt. eigenvalues --   -0.00214   0.01078   0.01473   0.02068   0.03559
 Alpha virt. eigenvalues --    0.04416   0.04659   0.04960   0.06433   0.08100
 Alpha virt. eigenvalues --    0.09481   0.11403   0.13287   0.13833   0.14792
 Alpha virt. eigenvalues --    0.15785   0.16162   0.17121   0.19604   0.19779
 Alpha virt. eigenvalues --    0.21143   0.22069   0.22636   0.24395   0.25231
 Alpha virt. eigenvalues --    0.26282   0.27132   0.28456   0.31216   0.32028
 Alpha virt. eigenvalues --    0.32522   0.32779   0.36993   0.41155   0.42213
 Alpha virt. eigenvalues --    0.42923   0.43887   0.45087   0.45828   0.46615
 Alpha virt. eigenvalues --    0.46765   0.52259   0.60353   0.62639   0.74189
 Alpha virt. eigenvalues --    0.75945   0.82760   0.86802   0.88113   0.93340
 Alpha virt. eigenvalues --    0.96601   1.00777   1.06806   1.10121   1.11982
 Alpha virt. eigenvalues --    1.15432   1.17279   1.20223   1.23297   1.24946
 Alpha virt. eigenvalues --    1.26172   1.29327   1.45058   1.45735   1.49432
 Alpha virt. eigenvalues --    1.58722   1.60397   1.63855   1.72924   1.80155
 Alpha virt. eigenvalues --    1.84113   1.86465   1.88638   1.89807   1.90480
 Alpha virt. eigenvalues --    1.95235   1.95487   1.97849   1.98591   2.00158
 Alpha virt. eigenvalues --    2.10273   2.29234   2.29572   2.39548   2.53565
 Alpha virt. eigenvalues --    2.67074   2.67816   3.03141   3.43533   3.55611
 Alpha virt. eigenvalues --    3.80045   3.89309   3.92629   4.04426
          Condensed to atoms (all electrons):
              1          2          3          4          5          6
     1  O    8.543131  -0.001013  -0.005260  -0.000046   0.020735   0.090560
     2  O   -0.001013   8.416182  -0.024641  -0.002269  -0.006106   0.027506
     3  O   -0.005260  -0.024641   8.416589  -0.002585   0.000839   0.056085
     4  O   -0.000046  -0.002269  -0.002585   8.336538  -0.000146   0.093423
     5  P    0.020735  -0.006106   0.000839  -0.000146  14.775923   0.199612
     6  Ca   0.090560   0.027506   0.056085   0.093423   0.199612  19.257926
     7  Ca   0.017962   0.109994   0.092647   0.149569  -0.046994  -0.303584
     8  Ca   0.121037   0.073572   0.073691  -0.004447   0.171400  -0.017280
     9  H    0.000001   0.000047   0.000095   0.275499   0.000019  -0.004355
              7          8          9
     1  O    0.017962   0.121037   0.000001
     2  O    0.109994   0.073572   0.000047
     3  O    0.092647   0.073691   0.000095
     4  O    0.149569  -0.004447   0.275499
     5  P   -0.046994   0.171400   0.000019
     6  Ca  -0.303584  -0.017280  -0.004355
     7  Ca  18.870486  -0.030866  -0.010089
     8  Ca  -0.030866  18.708722   0.001740
     9  H   -0.010089   0.001740   0.441805
 Mulliken atomic charges:
              1
     1  O   -0.787107
     2  O   -0.593272
     3  O   -0.607459
     4  O   -0.845536
     5  P   -0.115282
     6  Ca   0.600108
     7  Ca   1.150877
     8  Ca   0.902433
     9  H    0.295239
 Sum of Mulliken charges=   0.00000
 Atomic charges with hydrogens summed into heavy atoms:
              1
     1  O   -0.787107
     2  O   -0.593272
     3  O   -0.607459
     4  O   -0.550297
     5  P   -0.115282
     6  Ca   0.600108
     7  Ca   1.150877
     8  Ca   0.902433
     9  H    0.000000
 Sum of Mulliken charges=   0.00000
 Electronic spatial extent (au):  <R**2>=  2222.8427
 Charge=     0.0000 electrons
 Dipole moment (field-independent basis, Debye):
    X=     5.0067    Y=    -1.8620    Z=     2.0358  Tot=     5.7165
 Quadrupole moment (field-independent basis, Debye-Ang):
   XX=  -102.0105   YY=   -76.7311   ZZ=   -91.1869
   XY=    12.7435   XZ=    -3.3936   YZ=    -0.1760
 Traceless Quadrupole moment (field-independent basis, Debye-Ang):
   XX=   -12.0343   YY=    13.2450   ZZ=    -1.2107
   XY=    12.7435   XZ=    -3.3936   YZ=    -0.1760
 Octapole moment (field-independent basis, Debye-Ang**2):
  XXX=    48.2403  YYY=    20.2482  ZZZ=    21.3217  XYY=    -4.2790
  XXY=    -7.7241  XXZ=    18.8139  XZZ=     7.3292  YZZ=     5.2230
  YYZ=    19.3656  XYZ=     0.8396
 Hexadecapole moment (field-independent basis, Debye-Ang**3):
 XXXX= -2738.5586 YYYY=  -896.0891 ZZZZ=  -288.7534 XXXY=   154.2556
 XXXZ=   -19.4665 YYYX=   130.4959 YYYZ=     5.7799 ZZZX=    -6.4880
 ZZZY=    -2.0204 XXYY=  -570.8209 XXZZ=  -465.9705 YYZZ=  -208.6535
 XXYZ=   -22.3128 YYXZ=   -19.6349 ZZXY=    22.5928
 N-N= 8.827217296226D+02 E-N=-8.105971112959D+03  KE= 2.668859813931D+03
 Merz-Kollman atomic radii used.
 Read replacement radii for each type of atom:
 Rad(20) =   1.188000000000D+00
 Atom Element Radius
    1     8    1.40
    2     8    1.40
    3     8    1.40
    4     8    1.40
    5    15    1.80
    6    20    1.19
    7    20    1.19
    8    20    1.19
    9     1    1.20

 **********************************************************************

            Electrostatic Properties Using The SCF Density

 **********************************************************************

       Atomic Center    1 is at  -1.960609  0.484655  0.856758
       Atomic Center    2 is at   0.529687 -0.821490 -0.778833
       Atomic Center    3 is at   0.667881 -0.935251  0.772586
       Atomic Center    4 is at   2.304511  1.600419  0.078111
       Atomic Center    5 is at  -2.763289  0.859099 -0.584110
       Atomic Center    6 is at   0.040737  1.345411  0.166766
       Atomic Center    7 is at   2.745060 -0.613272 -0.191026
       Atomic Center    8 is at  -1.474431 -1.625718  0.090992
       Atomic Center    9 is at   2.890262  2.358449 -0.001950
     844 points will be used for fitting atomic charges
 Fitting point charges to eletrostatic potential
 Charges from ESP fit, RMS=   0.02068 RRMS=   0.37698:
 Charge=   0.00000 Dipole=     8.5556    -5.8966     1.4127 Tot=    10.4864
              1
     1  O   -0.448717
     2  O   -0.772944
     3  O   -0.661317
     4  O   -0.676814
     5  P   -0.835112
     6  Ca   1.354377
     7  Ca   0.909019
     8  Ca   1.103448
     9  H    0.028061
 -----------------------------------------------------------------

              Electrostatic Properties (Atomic Units)

 -----------------------------------------------------------------
    Center     Electric         -------- Electric Field --------
               Potential          X             Y             Z
 -----------------------------------------------------------------
    1 Atom    -22.380242
    2 Atom    -22.332982
    3 Atom    -22.334713
    4 Atom    -22.356818
    5 Atom    -54.172788
    6 Atom    -80.214486
    7 Atom    -80.181576
    8 Atom    -80.187096
    9 Atom     -1.034559
 -----------------------------------------------------------------
 1\1\GINC-N038\SP\RB3LYP\6-31G(d,p)\Ca3H1O4P1\TIMN\04-May-2015\0\\# b3l
 yp/6-31G(d,p) pop=(ReadRadii,MK)\\Ca3PO4_43\\0,1\O,0,-1.96061,0.484653
 ,0.856758\O,0,0.529687,-0.82149,-0.778833\O,0,0.667881,-0.935251,0.772
 586\O,0,2.30451,1.60042,0.078111\P,0,-2.76329,0.859096,-0.58411\Ca,0,0
 .040736,1.34541,0.166766\Ca,0,2.74506,-0.613271,-0.191026\Ca,0,-1.4744
 3,-1.62572,0.090992\H,0,2.89026,2.35845,-0.00195\\Version=EM64T-G03Rev
 E.01\State=1-A\HF=-2675.6318821\RMSD=4.230e-05\Thermal=0.\Dipole=1.969
 7842,-0.7325829,0.8009632\PG=C01 [X(Ca3H1O4P1)]\\@


 I SUPPOSE A BABY LLAMA HAS A MMAMA AND A PPOPA.
     -- RICHARD AMOUR
 Job cpu time:  0 days  0 hours  1 minutes 20.1 seconds.
 File lengths (MBytes):  RWF=     27 Int=      0 D2E=      0 Chk=     10 Scr=      1
 Normal termination of Gaussian 03 at Mon May  4 20:12:43 2015.
