 Entering Gaussian System, Link 0=/home/timn/tmp/g03.e01/g03
 Input=Ca3PO4_170.xyz.gjf
 Output=Ca3PO4_170.xyz.out
 Initial command:
 /home/timn/tmp/g03.e01/l1.exe /home/timn/tmp/g03.e01/Gau-13094.inp -scrdir=/home/timn/tmp/g03.e01/
 Default is to use a total of   2 processors:
                                2 via shared-memory
                                1 via Linda
 Entering Link 1 = /home/timn/tmp/g03.e01/l1.exe PID=     13095.
  
 Copyright (c) 1988,1990,1992,1993,1995,1998,2003,2004,2007, Gaussian, Inc.
                  All Rights Reserved.
  
 This is the Gaussian(R) 03 program.  It is based on the
 the Gaussian(R) 98 system (copyright 1998, Gaussian, Inc.),
 the Gaussian(R) 94 system (copyright 1995, Gaussian, Inc.),
 the Gaussian 92(TM) system (copyright 1992, Gaussian, Inc.),
 the Gaussian 90(TM) system (copyright 1990, Gaussian, Inc.),
 the Gaussian 88(TM) system (copyright 1988, Gaussian, Inc.),
 the Gaussian 86(TM) system (copyright 1986, Carnegie Mellon
 University), and the Gaussian 82(TM) system (copyright 1983,
 Carnegie Mellon University). Gaussian is a federally registered
 trademark of Gaussian, Inc.
  
 This software contains proprietary and confidential information,
 including trade secrets, belonging to Gaussian, Inc.
  
 This software is provided under written license and may be
 used, copied, transmitted, or stored only in accord with that
 written license.
  
 The following legend is applicable only to US Government
 contracts under FAR:
  
                    RESTRICTED RIGHTS LEGEND
  
 Use, reproduction and disclosure by the US Government is
 subject to restrictions as set forth in subparagraphs (a)
 and (c) of the Commercial Computer Software - Restricted
 Rights clause in FAR 52.227-19.
  
 Gaussian, Inc.
 340 Quinnipiac St., Bldg. 40, Wallingford CT 06492
  
  
 ---------------------------------------------------------------
 Warning -- This program may not be used in any manner that
 competes with the business of Gaussian, Inc. or will provide
 assistance to any competitor of Gaussian, Inc.  The licensee
 of this program is prohibited from giving any competitor of
 Gaussian, Inc. access to this program.  By using this program,
 the user acknowledges that Gaussian, Inc. is engaged in the
 business of creating and licensing software in the field of
 computational chemistry and represents and warrants to the
 licensee that it is not a competitor of Gaussian, Inc. and that
 it will not use this program in any manner prohibited above.
 ---------------------------------------------------------------
  

 Cite this work as:
 Gaussian 03, Revision E.01,
 M. J. Frisch, G. W. Trucks, H. B. Schlegel, G. E. Scuseria, 
 M. A. Robb, J. R. Cheeseman, J. A. Montgomery, Jr., T. Vreven, 
 K. N. Kudin, J. C. Burant, J. M. Millam, S. S. Iyengar, J. Tomasi, 
 V. Barone, B. Mennucci, M. Cossi, G. Scalmani, N. Rega, 
 G. A. Petersson, H. Nakatsuji, M. Hada, M. Ehara, K. Toyota, 
 R. Fukuda, J. Hasegawa, M. Ishida, T. Nakajima, Y. Honda, O. Kitao, 
 H. Nakai, M. Klene, X. Li, J. E. Knox, H. P. Hratchian, J. B. Cross, 
 V. Bakken, C. Adamo, J. Jaramillo, R. Gomperts, R. E. Stratmann, 
 O. Yazyev, A. J. Austin, R. Cammi, C. Pomelli, J. W. Ochterski, 
 P. Y. Ayala, K. Morokuma, G. A. Voth, P. Salvador, J. J. Dannenberg, 
 V. G. Zakrzewski, S. Dapprich, A. D. Daniels, M. C. Strain, 
 O. Farkas, D. K. Malick, A. D. Rabuck, K. Raghavachari, 
 J. B. Foresman, J. V. Ortiz, Q. Cui, A. G. Baboul, S. Clifford, 
 J. Cioslowski, B. B. Stefanov, G. Liu, A. Liashenko, P. Piskorz, 
 I. Komaromi, R. L. Martin, D. J. Fox, T. Keith, M. A. Al-Laham, 
 C. Y. Peng, A. Nanayakkara, M. Challacombe, P. M. W. Gill, 
 B. Johnson, W. Chen, M. W. Wong, C. Gonzalez, and J. A. Pople, 
 Gaussian, Inc., Wallingford CT, 2004.
 
 ******************************************
 Gaussian 03:  EM64T-G03RevE.01 11-Sep-2007
                 4-May-2015 
 ******************************************
 %nproc=2
 Will use up to    2 processors via shared memory.
 Default route:  MP2=Direct MaxDisk=2000MB
 -------------------------------------
 # b3lyp/6-31G(d,p) pop=(ReadRadii,MK)
 -------------------------------------
 1/38=1/1;
 2/17=6,18=5,40=1/2;
 3/5=1,6=6,7=101,11=2,16=1,25=1,30=1,74=-5/1,2,3;
 4//1;
 5/5=2,32=1,38=5/2;
 6/7=2,8=2,9=2,10=2,15=8,20=101,28=1/1,2;
 99/5=1,9=1/99;
 ----------
 Ca3PO4_170
 ----------
 Symbolic Z-matrix:
 Charge =  0 Multiplicity = 1
 O                     2.43833   0.21716   1.00312 
 O                     2.74276   0.13717  -0.53513 
 O                    -0.3674   -0.05839  -0.33382 
 O                    -2.46142  -1.12096   0.78477 
 P                    -1.4038   -1.38942  -0.64793 
 Ca                   -2.35525   1.25581   0.07084 
 Ca                    1.17073   1.72431  -0.12612 
 Ca                    1.40003  -1.53518   0.09344 
 H                    -2.07166  -1.45754   1.60421 
 
                          Input orientation:                          
 ---------------------------------------------------------------------
 Center     Atomic     Atomic              Coordinates (Angstroms)
 Number     Number      Type              X           Y           Z
 ---------------------------------------------------------------------
    1          8             0        2.438330    0.217155    1.003120
    2          8             0        2.742760    0.137167   -0.535134
    3          8             0       -0.367396   -0.058387   -0.333816
    4          8             0       -2.461420   -1.120960    0.784772
    5         15             0       -1.403800   -1.389420   -0.647930
    6         20             0       -2.355250    1.255810    0.070839
    7         20             0        1.170730    1.724310   -0.126120
    8         20             0        1.400030   -1.535180    0.093444
    9          1             0       -2.071660   -1.457540    1.604210
 ---------------------------------------------------------------------
                    Distance matrix (angstroms):
                    1          2          3          4          5
     1  O    0.000000
     2  O    1.570128   0.000000
     3  O    3.120163   3.122794   0.000000
     4  O    5.083874   5.514393   2.601007   0.000000
     5  P    4.479845   4.420085   1.715940   1.800907   0.000000
     6  Ca   4.992631   5.254357   2.417110   2.483950   2.901573
     7  Ca   2.270134   2.271034   2.363679   4.702956   4.073795
     8  Ca   2.230752   2.234900   2.342491   3.944656   2.903850
     9  H    4.848291   5.504409   2.935658   0.967821   2.350066
                    6          7          8          9
     6  Ca   0.000000
     7  Ca   3.562418   0.000000
     8  Ca   4.678917   3.274914   0.000000
     9  H    3.129524   4.861204   3.786961   0.000000
 Stoichiometry    Ca3HO4P
 Framework group  C1[X(Ca3HO4P)]
 Deg. of freedom    21
 Full point group                 C1
 Largest Abelian subgroup         C1      NOp   1
 Largest concise Abelian subgroup C1      NOp   1
                         Standard orientation:                         
 ---------------------------------------------------------------------
 Center     Atomic     Atomic              Coordinates (Angstroms)
 Number     Number      Type              X           Y           Z
 ---------------------------------------------------------------------
    1          8             0        2.438333    0.217154    1.003119
    2          8             0        2.742763    0.137166   -0.535135
    3          8             0       -0.367394   -0.058384   -0.333817
    4          8             0       -2.461419   -1.120955    0.784771
    5         15             0       -1.403799   -1.389416   -0.647931
    6         20             0       -2.355246    1.255815    0.070838
    7         20             0        1.170734    1.724311   -0.126121
    8         20             0        1.400031   -1.535179    0.093443
    9          1             0       -2.071659   -1.457535    1.604209
 ---------------------------------------------------------------------
 Rotational constants (GHZ):      1.2380440      0.6448873      0.4620138
 Standard basis: 6-31G(d,p) (6D, 7F)
 There are   153 symmetry adapted basis functions of A   symmetry.
 Integral buffers will be    131072 words long.
 Raffenetti 2 integral format.
 Two-electron integral symmetry is turned on.
   153 basis functions,   399 primitive gaussians,   153 cartesian basis functions
    54 alpha electrons       54 beta electrons
       nuclear repulsion energy       870.7735008680 Hartrees.
 NAtoms=    9 NActive=    9 NUniq=    9 SFac= 7.50D-01 NAtFMM=   80 NAOKFM=F Big=F
 One-electron integrals computed using PRISM.
 NBasis=   153 RedAO= T  NBF=   153
 NBsUse=   153 1.00D-06 NBFU=   153
 Harris functional with IExCor=  402 diagonalized for initial guess.
 ExpMin= 2.60D-02 ExpMax= 3.53D+04 ExpMxC= 5.30D+03 IAcc=3 IRadAn=         5 AccDes= 0.00D+00
 HarFok:  IExCor= 402 AccDes= 0.00D+00 IRadAn=         5 IDoV=1
 ScaDFX=  1.000000  1.000000  1.000000  1.000000
 Initial guess orbital symmetries:
       Occupied  (A) (A) (A) (A) (A) (A) (A) (A) (A) (A) (A) (A)
                 (A) (A) (A) (A) (A) (A) (A) (A) (A) (A) (A) (A)
                 (A) (A) (A) (A) (A) (A) (A) (A) (A) (A) (A) (A)
                 (A) (A) (A) (A) (A) (A) (A) (A) (A) (A) (A) (A)
                 (A) (A) (A) (A) (A) (A)
       Virtual   (A) (A) (A) (A) (A) (A) (A) (A) (A) (A) (A) (A)
                 (A) (A) (A) (A) (A) (A) (A) (A) (A) (A) (A) (A)
                 (A) (A) (A) (A) (A) (A) (A) (A) (A) (A) (A) (A)
                 (A) (A) (A) (A) (A) (A) (A) (A) (A) (A) (A) (A)
                 (A) (A) (A) (A) (A) (A) (A) (A) (A) (A) (A) (A)
                 (A) (A) (A) (A) (A) (A) (A) (A) (A) (A) (A) (A)
                 (A) (A) (A) (A) (A) (A) (A) (A) (A) (A) (A) (A)
                 (A) (A) (A) (A) (A) (A) (A) (A) (A) (A) (A) (A)
                 (A) (A) (A)
 The electronic state of the initial guess is 1-A.
 Requested convergence on RMS density matrix=1.00D-04 within 128 cycles.
 Requested convergence on MAX density matrix=1.00D-02.
 Requested convergence on             energy=1.00D-02.
 No special actions if energy rises.
 EnCoef did     4 forward-backward iterations
 EnCoef did   100 forward-backward iterations
 EnCoef did     5 forward-backward iterations
 SCF Done:  E(RB+HF-LYP) =  -2675.59791591     A.U. after   10 cycles
             Convg  =    0.7067D-04             -V/T =  2.0025
             S**2   =   0.0000

 **********************************************************************

            Population analysis using the SCF density.

 **********************************************************************

 Orbital symmetries:
       Occupied  (A) (A) (A) (A) (A) (A) (A) (A) (A) (A) (A) (A)
                 (A) (A) (A) (A) (A) (A) (A) (A) (A) (A) (A) (A)
                 (A) (A) (A) (A) (A) (A) (A) (A) (A) (A) (A) (A)
                 (A) (A) (A) (A) (A) (A) (A) (A) (A) (A) (A) (A)
                 (A) (A) (A) (A) (A) (A)
       Virtual   (A) (A) (A) (A) (A) (A) (A) (A) (A) (A) (A) (A)
                 (A) (A) (A) (A) (A) (A) (A) (A) (A) (A) (A) (A)
                 (A) (A) (A) (A) (A) (A) (A) (A) (A) (A) (A) (A)
                 (A) (A) (A) (A) (A) (A) (A) (A) (A) (A) (A) (A)
                 (A) (A) (A) (A) (A) (A) (A) (A) (A) (A) (A) (A)
                 (A) (A) (A) (A) (A) (A) (A) (A) (A) (A) (A) (A)
                 (A) (A) (A) (A) (A) (A) (A) (A) (A) (A) (A) (A)
                 (A) (A) (A) (A) (A) (A) (A) (A) (A) (A) (A) (A)
                 (A) (A) (A)
 The electronic state is 1-A.
 Alpha  occ. eigenvalues -- -145.36804-145.35848-145.34487 -77.09667 -19.16141
 Alpha  occ. eigenvalues --  -19.11131 -19.09572 -19.09298 -15.43922 -15.42984
 Alpha  occ. eigenvalues --  -15.41612 -12.57110 -12.57073 -12.57000 -12.56187
 Alpha  occ. eigenvalues --  -12.56164 -12.56037 -12.54805 -12.54792 -12.54674
 Alpha  occ. eigenvalues --   -6.55798  -4.72367  -4.71996  -4.71324  -1.81234
 Alpha  occ. eigenvalues --   -1.80581  -1.79110  -1.09010  -1.08782  -1.08744
 Alpha  occ. eigenvalues --   -1.08579  -1.08334  -1.08195  -1.06811  -1.06730
 Alpha  occ. eigenvalues --   -1.06383  -0.99607  -0.91892  -0.91472  -0.73321
 Alpha  occ. eigenvalues --   -0.56844  -0.46616  -0.38762  -0.36866  -0.34129
 Alpha  occ. eigenvalues --   -0.33017  -0.31424  -0.30570  -0.29183  -0.28073
 Alpha  occ. eigenvalues --   -0.20117  -0.18461  -0.16278  -0.12969
 Alpha virt. eigenvalues --   -0.07433  -0.06296  -0.03617  -0.02386  -0.01092
 Alpha virt. eigenvalues --   -0.00096   0.00677   0.01627   0.01951   0.03457
 Alpha virt. eigenvalues --    0.04272   0.05089   0.05595   0.07298   0.08001
 Alpha virt. eigenvalues --    0.08708   0.10108   0.11357   0.12268   0.13504
 Alpha virt. eigenvalues --    0.15385   0.16121   0.16744   0.17097   0.19359
 Alpha virt. eigenvalues --    0.19760   0.20232   0.21189   0.21434   0.21963
 Alpha virt. eigenvalues --    0.23194   0.25872   0.27186   0.28840   0.29105
 Alpha virt. eigenvalues --    0.29926   0.34931   0.35864   0.37121   0.39155
 Alpha virt. eigenvalues --    0.39919   0.41204   0.41497   0.43690   0.44388
 Alpha virt. eigenvalues --    0.48595   0.50652   0.55250   0.63792   0.67753
 Alpha virt. eigenvalues --    0.75995   0.80111   0.85587   0.86526   0.93946
 Alpha virt. eigenvalues --    0.94841   1.00008   1.02194   1.08302   1.09838
 Alpha virt. eigenvalues --    1.10562   1.15330   1.17961   1.19102   1.24421
 Alpha virt. eigenvalues --    1.33187   1.33860   1.41605   1.46289   1.48390
 Alpha virt. eigenvalues --    1.60098   1.63055   1.64409   1.67326   1.71241
 Alpha virt. eigenvalues --    1.81969   1.86200   1.87346   1.90506   1.93861
 Alpha virt. eigenvalues --    1.94859   1.96374   2.00161   2.00467   2.00872
 Alpha virt. eigenvalues --    2.22971   2.32087   2.32398   2.36553   2.49757
 Alpha virt. eigenvalues --    2.63601   2.65935   3.06434   3.37934   3.57442
 Alpha virt. eigenvalues --    3.76159   3.85846   3.87435   3.90855
          Condensed to atoms (all electrons):
              1          2          3          4          5          6
     1  O    8.372063  -0.003182  -0.002964   0.000001  -0.000337  -0.008235
     2  O   -0.003182   8.380989  -0.002572   0.000000  -0.000904  -0.012019
     3  O   -0.002964  -0.002572   8.681188  -0.029304   0.033413   0.055540
     4  O    0.000001   0.000000  -0.029304   8.322147   0.055144   0.066902
     5  P   -0.000337  -0.000904   0.033413   0.055144  14.477560   0.081740
     6  Ca  -0.008235  -0.012019   0.055540   0.066902   0.081740  19.296612
     7  Ca   0.117432   0.116370   0.048602   0.002285  -0.023881   0.178864
     8  Ca   0.110748   0.116376   0.097703  -0.004349   0.163420  -0.018597
     9  H   -0.000007   0.000000   0.001920   0.258610  -0.016741   0.009830
              7          8          9
     1  O    0.117432   0.110748  -0.000007
     2  O    0.116370   0.116376   0.000000
     3  O    0.048602   0.097703   0.001920
     4  O    0.002285  -0.004349   0.258610
     5  P   -0.023881   0.163420  -0.016741
     6  Ca   0.178864  -0.018597   0.009830
     7  Ca  18.896306  -0.085701  -0.006189
     8  Ca  -0.085701  18.547793  -0.003791
     9  H   -0.006189  -0.003791   0.433093
 Mulliken atomic charges:
              1
     1  O   -0.585518
     2  O   -0.595059
     3  O   -0.883524
     4  O   -0.671435
     5  P    0.230588
     6  Ca   0.349363
     7  Ca   0.755912
     8  Ca   1.076400
     9  H    0.323274
 Sum of Mulliken charges=   0.00000
 Atomic charges with hydrogens summed into heavy atoms:
              1
     1  O   -0.585518
     2  O   -0.595059
     3  O   -0.883524
     4  O   -0.348161
     5  P    0.230588
     6  Ca   0.349363
     7  Ca   0.755912
     8  Ca   1.076400
     9  H    0.000000
 Sum of Mulliken charges=   0.00000
 Electronic spatial extent (au):  <R**2>=  2255.6648
 Charge=     0.0000 electrons
 Dipole moment (field-independent basis, Debye):
    X=     0.4405    Y=    -3.7984    Z=     1.0807  Tot=     3.9737
 Quadrupole moment (field-independent basis, Debye-Ang):
   XX=  -102.6223   YY=   -84.2047   ZZ=   -89.3235
   XY=    -6.1399   XZ=    -5.8075   YZ=    -6.3593
 Traceless Quadrupole moment (field-independent basis, Debye-Ang):
   XX=   -10.5722   YY=     7.8455   ZZ=     2.7267
   XY=    -6.1399   XZ=    -5.8075   YZ=    -6.3593
 Octapole moment (field-independent basis, Debye-Ang**2):
  XXX=   -17.0365  YYY=   -97.1462  ZZZ=     9.5263  XYY=    86.3280
  XXY=   -19.1033  XXZ=    -1.8898  XZZ=    13.0292  YZZ=   -25.7924
  YYZ=     6.3833  XYZ=     2.7244
 Hexadecapole moment (field-independent basis, Debye-Ang**3):
 XXXX= -2173.5761 YYYY= -1379.1899 ZZZZ=  -302.6405 XXXY=    -0.6918
 XXXZ=   -15.0058 YYYX=   119.4963 YYYZ=   -34.2064 ZZZX=   -33.1514
 ZZZY=   -30.0461 XXYY=  -499.8966 XXZZ=  -402.2372 YYZZ=  -260.4189
 XXYZ=   -22.1374 YYXZ=    -7.1593 ZZXY=    27.1766
 N-N= 8.707735008680D+02 E-N=-8.080944030170D+03  KE= 2.668847389888D+03
 Merz-Kollman atomic radii used.
 Read replacement radii for each type of atom:
 Rad(20) =   1.188000000000D+00
 Atom Element Radius
    1     8    1.40
    2     8    1.40
    3     8    1.40
    4     8    1.40
    5    15    1.80
    6    20    1.19
    7    20    1.19
    8    20    1.19
    9     1    1.20

 **********************************************************************

            Electrostatic Properties Using The SCF Density

 **********************************************************************

       Atomic Center    1 is at   2.438333  0.217154  1.003119
       Atomic Center    2 is at   2.742763  0.137166 -0.535135
       Atomic Center    3 is at  -0.367394 -0.058384 -0.333817
       Atomic Center    4 is at  -2.461419 -1.120955  0.784771
       Atomic Center    5 is at  -1.403799 -1.389416 -0.647931
       Atomic Center    6 is at  -2.355246  1.255815  0.070838
       Atomic Center    7 is at   1.170734  1.724311 -0.126121
       Atomic Center    8 is at   1.400031 -1.535179  0.093443
       Atomic Center    9 is at  -2.071659 -1.457535  1.604209
     796 points will be used for fitting atomic charges
 Fitting point charges to eletrostatic potential
 Charges from ESP fit, RMS=   0.03002 RRMS=   0.52444:
 Charge=   0.00000 Dipole=    -1.7085     1.8615     1.4778 Tot=     2.9271
              1
     1  O   -0.715400
     2  O   -0.619025
     3  O   -0.323657
     4  O    0.053665
     5  P   -0.776879
     6  Ca   0.318399
     7  Ca   0.723289
     8  Ca   1.350197
     9  H   -0.010589
 -----------------------------------------------------------------

              Electrostatic Properties (Atomic Units)

 -----------------------------------------------------------------
    Center     Electric         -------- Electric Field --------
               Potential          X             Y             Z
 -----------------------------------------------------------------
    1 Atom    -22.380532
    2 Atom    -22.387391
    3 Atom    -22.352829
    4 Atom    -22.299552
    5 Atom    -54.122830
    6 Atom    -80.175342
    7 Atom    -80.198472
    8 Atom    -80.186229
    9 Atom     -0.991233
 -----------------------------------------------------------------
 1\1\GINC-N029\SP\RB3LYP\6-31G(d,p)\Ca3H1O4P1\TIMN\04-May-2015\0\\# b3l
 yp/6-31G(d,p) pop=(ReadRadii,MK)\\Ca3PO4_170\\0,1\O,0,2.43833,0.217155
 ,1.00312\O,0,2.74276,0.137167,-0.535134\O,0,-0.367396,-0.058387,-0.333
 816\O,0,-2.46142,-1.12096,0.784772\P,0,-1.4038,-1.38942,-0.64793\Ca,0,
 -2.35525,1.25581,0.070839\Ca,0,1.17073,1.72431,-0.12612\Ca,0,1.40003,-
 1.53518,0.093444\H,0,-2.07166,-1.45754,1.60421\\Version=EM64T-G03RevE.
 01\State=1-A\HF=-2675.5979159\RMSD=7.067e-05\Thermal=0.\Dipole=0.17330
 41,-1.494422,0.4251839\PG=C01 [X(Ca3H1O4P1)]\\@


 I (ERNEST RUTHERFORD) CAME INTO THE ROOM, WHICH WAS HALF DARK, AND PRESENTLY
 SPOTTED LORD KELVIN IN THE AUDIENCE AND REALIZED I WAS IN TROUBLE AT
 THE LAST PART OF MY SPEECH DEALING THE AGE OF THE EARTH, WHERE MY VIEWS
 CONFLICTED WITH HIS.  TO MY RELIEF KELVIN FELL FAST ASLEEP, BUT AS I CAME
 TO THE IMPORTANT POINT, I SAW THE OLD BIRD SIT UP AND COCK A BALEFUL GLANCE
 AT ME! THEN A SUDDEN INSPIRATION CAME AND I SAID LORD KELVIN HAD LIMITED
 THE AGE OF THE EARTH PROVIDED NO NEW SOURCE WAS DISCOVERED. THAT
 PROPHETIC UTTERANCE REFERS TO WHAT WE ARE NOW CONSIDERING TONIGHT, RADIUM!
 BEHOLD!  THE OLD BOY BEAMED UPON ME.
 Job cpu time:  0 days  0 hours  0 minutes 55.7 seconds.
 File lengths (MBytes):  RWF=     27 Int=      0 D2E=      0 Chk=     10 Scr=      1
 Normal termination of Gaussian 03 at Mon May  4 20:10:56 2015.
