 Entering Gaussian System, Link 0=/home/timn/tmp/g03.e01/g03
 Input=Ca3PO4_9.xyz.gjf
 Output=Ca3PO4_9.xyz.out
 Initial command:
 /home/timn/tmp/g03.e01/l1.exe /home/timn/tmp/g03.e01/Gau-31648.inp -scrdir=/home/timn/tmp/g03.e01/
 Default is to use a total of   2 processors:
                                2 via shared-memory
                                1 via Linda
 Entering Link 1 = /home/timn/tmp/g03.e01/l1.exe PID=     31649.
  
 Copyright (c) 1988,1990,1992,1993,1995,1998,2003,2004,2007, Gaussian, Inc.
                  All Rights Reserved.
  
 This is the Gaussian(R) 03 program.  It is based on the
 the Gaussian(R) 98 system (copyright 1998, Gaussian, Inc.),
 the Gaussian(R) 94 system (copyright 1995, Gaussian, Inc.),
 the Gaussian 92(TM) system (copyright 1992, Gaussian, Inc.),
 the Gaussian 90(TM) system (copyright 1990, Gaussian, Inc.),
 the Gaussian 88(TM) system (copyright 1988, Gaussian, Inc.),
 the Gaussian 86(TM) system (copyright 1986, Carnegie Mellon
 University), and the Gaussian 82(TM) system (copyright 1983,
 Carnegie Mellon University). Gaussian is a federally registered
 trademark of Gaussian, Inc.
  
 This software contains proprietary and confidential information,
 including trade secrets, belonging to Gaussian, Inc.
  
 This software is provided under written license and may be
 used, copied, transmitted, or stored only in accord with that
 written license.
  
 The following legend is applicable only to US Government
 contracts under FAR:
  
                    RESTRICTED RIGHTS LEGEND
  
 Use, reproduction and disclosure by the US Government is
 subject to restrictions as set forth in subparagraphs (a)
 and (c) of the Commercial Computer Software - Restricted
 Rights clause in FAR 52.227-19.
  
 Gaussian, Inc.
 340 Quinnipiac St., Bldg. 40, Wallingford CT 06492
  
  
 ---------------------------------------------------------------
 Warning -- This program may not be used in any manner that
 competes with the business of Gaussian, Inc. or will provide
 assistance to any competitor of Gaussian, Inc.  The licensee
 of this program is prohibited from giving any competitor of
 Gaussian, Inc. access to this program.  By using this program,
 the user acknowledges that Gaussian, Inc. is engaged in the
 business of creating and licensing software in the field of
 computational chemistry and represents and warrants to the
 licensee that it is not a competitor of Gaussian, Inc. and that
 it will not use this program in any manner prohibited above.
 ---------------------------------------------------------------
  

 Cite this work as:
 Gaussian 03, Revision E.01,
 M. J. Frisch, G. W. Trucks, H. B. Schlegel, G. E. Scuseria, 
 M. A. Robb, J. R. Cheeseman, J. A. Montgomery, Jr., T. Vreven, 
 K. N. Kudin, J. C. Burant, J. M. Millam, S. S. Iyengar, J. Tomasi, 
 V. Barone, B. Mennucci, M. Cossi, G. Scalmani, N. Rega, 
 G. A. Petersson, H. Nakatsuji, M. Hada, M. Ehara, K. Toyota, 
 R. Fukuda, J. Hasegawa, M. Ishida, T. Nakajima, Y. Honda, O. Kitao, 
 H. Nakai, M. Klene, X. Li, J. E. Knox, H. P. Hratchian, J. B. Cross, 
 V. Bakken, C. Adamo, J. Jaramillo, R. Gomperts, R. E. Stratmann, 
 O. Yazyev, A. J. Austin, R. Cammi, C. Pomelli, J. W. Ochterski, 
 P. Y. Ayala, K. Morokuma, G. A. Voth, P. Salvador, J. J. Dannenberg, 
 V. G. Zakrzewski, S. Dapprich, A. D. Daniels, M. C. Strain, 
 O. Farkas, D. K. Malick, A. D. Rabuck, K. Raghavachari, 
 J. B. Foresman, J. V. Ortiz, Q. Cui, A. G. Baboul, S. Clifford, 
 J. Cioslowski, B. B. Stefanov, G. Liu, A. Liashenko, P. Piskorz, 
 I. Komaromi, R. L. Martin, D. J. Fox, T. Keith, M. A. Al-Laham, 
 C. Y. Peng, A. Nanayakkara, M. Challacombe, P. M. W. Gill, 
 B. Johnson, W. Chen, M. W. Wong, C. Gonzalez, and J. A. Pople, 
 Gaussian, Inc., Wallingford CT, 2004.
 
 ******************************************
 Gaussian 03:  EM64T-G03RevE.01 11-Sep-2007
                 4-May-2015 
 ******************************************
 %nproc=2
 Will use up to    2 processors via shared memory.
 Default route:  MP2=Direct MaxDisk=2000MB
 -------------------------------------
 # b3lyp/6-31G(d,p) pop=(ReadRadii,MK)
 -------------------------------------
 1/38=1/1;
 2/17=6,18=5,40=1/2;
 3/5=1,6=6,7=101,11=2,16=1,25=1,30=1,74=-5/1,2,3;
 4//1;
 5/5=2,32=1,38=5/2;
 6/7=2,8=2,9=2,10=2,15=8,20=101,28=1/1,2;
 99/5=1,9=1/99;
 --------
 Ca3PO4_9
 --------
 Symbolic Z-matrix:
 Charge =  0 Multiplicity = 1
 O                     0.77933   0.10225  -0.67477 
 O                    -2.73428   0.01307   0.52796 
 O                    -2.32501   0.0624   -0.90064 
 O                    -1.58143  -0.51472   1.30272 
 P                     1.80817   1.6106   -0.47997 
 Ca                   -0.87265   1.49703   0.30394 
 Ca                   -0.7074   -1.58824  -0.56519 
 Ca                    2.50985  -0.84879   0.50989 
 H                     1.17248  -2.66317   0.18457 
 
                          Input orientation:                          
 ---------------------------------------------------------------------
 Center     Atomic     Atomic              Coordinates (Angstroms)
 Number     Number      Type              X           Y           Z
 ---------------------------------------------------------------------
    1          8             0        0.779331    0.102245   -0.674765
    2          8             0       -2.734280    0.013074    0.527958
    3          8             0       -2.325010    0.062397   -0.900637
    4          8             0       -1.581430   -0.514715    1.302720
    5         15             0        1.808170    1.610600   -0.479969
    6         20             0       -0.872645    1.497030    0.303942
    7         20             0       -0.707403   -1.588240   -0.565193
    8         20             0        2.509850   -0.848790    0.509889
    9          1             0        1.172480   -2.663170    0.184568
 ---------------------------------------------------------------------
                    Distance matrix (angstroms):
                    1          2          3          4          5
     1  O    0.000000
     2  O    3.714829   0.000000
     3  O    3.112802   1.486882   0.000000
     4  O    3.140745   1.485894   2.395987   0.000000
     5  P    1.836189   4.919538   4.433630   4.379992   0.000000
     6  Ca   2.373250   2.391233   2.370347   2.355218   2.795386
     7  Ca   2.253913   2.804891   2.335332   2.324968   4.070374
     8  Ca   2.302731   5.314512   5.118175   4.180761   2.742403
     9  H    2.922420   4.747944   4.564956   3.667444   4.371593
                    6          7          8          9
     6  Ca   0.000000
     7  Ca   3.209609   0.000000
     8  Ca   4.121475   3.471787   0.000000
     9  H    4.637246   2.291632   2.277360   0.000000
 Stoichiometry    Ca3HO4P
 Framework group  C1[X(Ca3HO4P)]
 Deg. of freedom    21
 Full point group                 C1
 Largest Abelian subgroup         C1      NOp   1
 Largest concise Abelian subgroup C1      NOp   1
                         Standard orientation:                         
 ---------------------------------------------------------------------
 Center     Atomic     Atomic              Coordinates (Angstroms)
 Number     Number      Type              X           Y           Z
 ---------------------------------------------------------------------
    1          8             0        0.779331    0.102246   -0.674765
    2          8             0       -2.734280    0.013078    0.527958
    3          8             0       -2.325010    0.062400   -0.900637
    4          8             0       -1.581430   -0.514712    1.302720
    5         15             0        1.808172    1.610600   -0.479969
    6         20             0       -0.872643    1.497032    0.303942
    7         20             0       -0.707404   -1.588238   -0.565193
    8         20             0        2.509850   -0.848790    0.509889
    9          1             0        1.172478   -2.663169    0.184568
 ---------------------------------------------------------------------
 Rotational constants (GHZ):      1.2736122      0.6769433      0.5201390
 Standard basis: 6-31G(d,p) (6D, 7F)
 There are   153 symmetry adapted basis functions of A   symmetry.
 Integral buffers will be    131072 words long.
 Raffenetti 2 integral format.
 Two-electron integral symmetry is turned on.
   153 basis functions,   399 primitive gaussians,   153 cartesian basis functions
    54 alpha electrons       54 beta electrons
       nuclear repulsion energy       889.2112620350 Hartrees.
 NAtoms=    9 NActive=    9 NUniq=    9 SFac= 7.50D-01 NAtFMM=   80 NAOKFM=F Big=F
 One-electron integrals computed using PRISM.
 NBasis=   153 RedAO= T  NBF=   153
 NBsUse=   153 1.00D-06 NBFU=   153
 Harris functional with IExCor=  402 diagonalized for initial guess.
 ExpMin= 2.60D-02 ExpMax= 3.53D+04 ExpMxC= 5.30D+03 IAcc=3 IRadAn=         5 AccDes= 0.00D+00
 HarFok:  IExCor= 402 AccDes= 0.00D+00 IRadAn=         5 IDoV=1
 ScaDFX=  1.000000  1.000000  1.000000  1.000000
 Initial guess orbital symmetries:
       Occupied  (A) (A) (A) (A) (A) (A) (A) (A) (A) (A) (A) (A)
                 (A) (A) (A) (A) (A) (A) (A) (A) (A) (A) (A) (A)
                 (A) (A) (A) (A) (A) (A) (A) (A) (A) (A) (A) (A)
                 (A) (A) (A) (A) (A) (A) (A) (A) (A) (A) (A) (A)
                 (A) (A) (A) (A) (A) (A)
       Virtual   (A) (A) (A) (A) (A) (A) (A) (A) (A) (A) (A) (A)
                 (A) (A) (A) (A) (A) (A) (A) (A) (A) (A) (A) (A)
                 (A) (A) (A) (A) (A) (A) (A) (A) (A) (A) (A) (A)
                 (A) (A) (A) (A) (A) (A) (A) (A) (A) (A) (A) (A)
                 (A) (A) (A) (A) (A) (A) (A) (A) (A) (A) (A) (A)
                 (A) (A) (A) (A) (A) (A) (A) (A) (A) (A) (A) (A)
                 (A) (A) (A) (A) (A) (A) (A) (A) (A) (A) (A) (A)
                 (A) (A) (A) (A) (A) (A) (A) (A) (A) (A) (A) (A)
                 (A) (A) (A)
 The electronic state of the initial guess is 1-A.
 Requested convergence on RMS density matrix=1.00D-04 within 128 cycles.
 Requested convergence on MAX density matrix=1.00D-02.
 Requested convergence on             energy=1.00D-02.
 No special actions if energy rises.
 EnCoef did     3 forward-backward iterations
 EnCoef did     5 forward-backward iterations
 SCF Done:  E(RB+HF-LYP) =  -2675.50623872     A.U. after   10 cycles
             Convg  =    0.3301D-04             -V/T =  2.0025
             S**2   =   0.0000

 **********************************************************************

            Population analysis using the SCF density.

 **********************************************************************

 Orbital symmetries:
       Occupied  (A) (A) (A) (A) (A) (A) (A) (A) (A) (A) (A) (A)
                 (A) (A) (A) (A) (A) (A) (A) (A) (A) (A) (A) (A)
                 (A) (A) (A) (A) (A) (A) (A) (A) (A) (A) (A) (A)
                 (A) (A) (A) (A) (A) (A) (A) (A) (A) (A) (A) (A)
                 (A) (A) (A) (A) (A) (A)
       Virtual   (A) (A) (A) (A) (A) (A) (A) (A) (A) (A) (A) (A)
                 (A) (A) (A) (A) (A) (A) (A) (A) (A) (A) (A) (A)
                 (A) (A) (A) (A) (A) (A) (A) (A) (A) (A) (A) (A)
                 (A) (A) (A) (A) (A) (A) (A) (A) (A) (A) (A) (A)
                 (A) (A) (A) (A) (A) (A) (A) (A) (A) (A) (A) (A)
                 (A) (A) (A) (A) (A) (A) (A) (A) (A) (A) (A) (A)
                 (A) (A) (A) (A) (A) (A) (A) (A) (A) (A) (A) (A)
                 (A) (A) (A) (A) (A) (A) (A) (A) (A) (A) (A) (A)
                 (A) (A) (A)
 The electronic state is 1-A.
 Alpha  occ. eigenvalues -- -145.37237-145.35005-145.34122 -77.01913 -19.21428
 Alpha  occ. eigenvalues --  -19.12371 -19.12368 -19.07708 -15.44401 -15.42110
 Alpha  occ. eigenvalues --  -15.41241 -12.57629 -12.57525 -12.57465 -12.55313
 Alpha  occ. eigenvalues --  -12.55278 -12.55185 -12.54435 -12.54418 -12.54315
 Alpha  occ. eigenvalues --   -6.48543  -4.65095  -4.64484  -4.64276  -1.81864
 Alpha  occ. eigenvalues --   -1.79667  -1.78786  -1.10279  -1.09692  -1.09466
 Alpha  occ. eigenvalues --   -1.08771  -1.07536  -1.07266  -1.06503  -1.06416
 Alpha  occ. eigenvalues --   -1.06260  -1.03274  -0.88254  -0.86326  -0.72691
 Alpha  occ. eigenvalues --   -0.48203  -0.42773  -0.40333  -0.39833  -0.30784
 Alpha  occ. eigenvalues --   -0.30149  -0.28778  -0.27466  -0.26522  -0.25236
 Alpha  occ. eigenvalues --   -0.24456  -0.19859  -0.15193  -0.12562
 Alpha virt. eigenvalues --   -0.07449  -0.05231  -0.04366  -0.02396   0.00073
 Alpha virt. eigenvalues --    0.00841   0.01051   0.01731   0.02575   0.03553
 Alpha virt. eigenvalues --    0.03872   0.05452   0.05574   0.06899   0.08304
 Alpha virt. eigenvalues --    0.09303   0.10224   0.11033   0.12157   0.15188
 Alpha virt. eigenvalues --    0.15445   0.15882   0.16136   0.18560   0.19127
 Alpha virt. eigenvalues --    0.20274   0.21244   0.22382   0.23220   0.24047
 Alpha virt. eigenvalues --    0.26040   0.26191   0.28960   0.30162   0.32788
 Alpha virt. eigenvalues --    0.33294   0.34577   0.37328   0.39252   0.40607
 Alpha virt. eigenvalues --    0.42584   0.43028   0.44717   0.46264   0.47525
 Alpha virt. eigenvalues --    0.50370   0.52612   0.56673   0.66821   0.77282
 Alpha virt. eigenvalues --    0.78497   0.85916   0.87353   0.92193   0.93607
 Alpha virt. eigenvalues --    0.95659   0.99452   1.00683   1.05927   1.07537
 Alpha virt. eigenvalues --    1.10996   1.13438   1.16466   1.20199   1.20981
 Alpha virt. eigenvalues --    1.30147   1.39793   1.43320   1.48998   1.51010
 Alpha virt. eigenvalues --    1.53297   1.56008   1.64043   1.65797   1.84510
 Alpha virt. eigenvalues --    1.85725   1.89952   1.92819   1.93980   1.95238
 Alpha virt. eigenvalues --    1.97374   1.98980   2.02187   2.02485   2.07281
 Alpha virt. eigenvalues --    2.10949   2.24175   2.28188   2.32048   2.36815
 Alpha virt. eigenvalues --    2.37967   2.58597   3.04213   3.09029   3.55297
 Alpha virt. eigenvalues --    3.66467   3.80297   3.89204   4.00512
          Condensed to atoms (all electrons):
              1          2          3          4          5          6
     1  O    8.642065   0.000233  -0.004017  -0.003867  -0.016950   0.091733
     2  O    0.000233   8.131601  -0.005662  -0.005022   0.000106   0.028942
     3  O   -0.004017  -0.005662   8.403904  -0.044114  -0.000754   0.098591
     4  O   -0.003867  -0.005022  -0.044114   8.384158  -0.001240   0.094113
     5  P   -0.016950   0.000106  -0.000754  -0.001240  14.892596   0.191002
     6  Ca   0.091733   0.028942   0.098591   0.094113   0.191002  18.713943
     7  Ca   0.122380  -0.006769   0.113106   0.109905  -0.014343  -0.186574
     8  Ca   0.095942   0.002339  -0.016624   0.003871   0.259696  -0.049267
     9  H   -0.008390   0.000020  -0.000085  -0.000783  -0.000688   0.006416
              7          8          9
     1  O    0.122380   0.095942  -0.008390
     2  O   -0.006769   0.002339   0.000020
     3  O    0.113106  -0.016624  -0.000085
     4  O    0.109905   0.003871  -0.000783
     5  P   -0.014343   0.259696  -0.000688
     6  Ca  -0.186574  -0.049267   0.006416
     7  Ca  18.676636  -0.081009   0.133279
     8  Ca  -0.081009  18.895977   0.168367
     9  H    0.133279   0.168367   1.111357
 Mulliken atomic charges:
              1
     1  O   -0.919129
     2  O   -0.145787
     3  O   -0.544343
     4  O   -0.537021
     5  P   -0.309424
     6  Ca   1.011101
     7  Ca   1.133388
     8  Ca   0.720708
     9  H   -0.409493
 Sum of Mulliken charges=   0.00000
 Atomic charges with hydrogens summed into heavy atoms:
              1
     1  O   -0.919129
     2  O   -0.145787
     3  O   -0.544343
     4  O   -0.537021
     5  P   -0.309424
     6  Ca   1.011101
     7  Ca   1.133388
     8  Ca   0.311215
     9  H    0.000000
 Sum of Mulliken charges=   0.00000
 Electronic spatial extent (au):  <R**2>=  2085.5219
 Charge=     0.0000 electrons
 Dipole moment (field-independent basis, Debye):
    X=     0.7765    Y=    -3.9848    Z=    -0.1239  Tot=     4.0617
 Quadrupole moment (field-independent basis, Debye-Ang):
   XX=   -90.2509   YY=   -78.2572   ZZ=   -89.2209
   XY=   -15.5579   XZ=     7.1898   YZ=    10.8717
 Traceless Quadrupole moment (field-independent basis, Debye-Ang):
   XX=    -4.3412   YY=     7.6525   ZZ=    -3.3112
   XY=   -15.5579   XZ=     7.1898   YZ=    10.8717
 Octapole moment (field-independent basis, Debye-Ang**2):
  XXX=    25.4935  YYY=    -0.8777  ZZZ=   -14.5079  XYY=   -71.2310
  XXY=   -40.4992  XXZ=    10.3279  XZZ=   -14.1582  YZZ=   -15.0107
  YYZ=   -11.6964  XYZ=   -12.0873
 Hexadecapole moment (field-independent basis, Debye-Ang**3):
 XXXX= -1748.1422 YYYY= -1005.1733 ZZZZ=  -372.3164 XXXY=  -151.6756
 XXXZ=    -1.7955 YYYX=     6.2302 YYYZ=    58.9350 ZZZX=    -2.4690
 ZZZY=    29.8730 XXYY=  -416.8567 XXZZ=  -382.7607 YYZZ=  -212.2500
 XXYZ=    17.0068 YYXZ=     9.0719 ZZXY=   -25.7604
 N-N= 8.892112620350D+02 E-N=-8.118579222779D+03  KE= 2.668733776807D+03
 Merz-Kollman atomic radii used.
 Read replacement radii for each type of atom:
 Rad(20) =   1.188000000000D+00
 Atom Element Radius
    1     8    1.40
    2     8    1.40
    3     8    1.40
    4     8    1.40
    5    15    1.80
    6    20    1.19
    7    20    1.19
    8    20    1.19
    9     1    1.20

 **********************************************************************

            Electrostatic Properties Using The SCF Density

 **********************************************************************

       Atomic Center    1 is at   0.779331  0.102246 -0.674765
       Atomic Center    2 is at  -2.734280  0.013078  0.527958
       Atomic Center    3 is at  -2.325010  0.062400 -0.900637
       Atomic Center    4 is at  -1.581430 -0.514712  1.302720
       Atomic Center    5 is at   1.808172  1.610600 -0.479969
       Atomic Center    6 is at  -0.872643  1.497032  0.303942
       Atomic Center    7 is at  -0.707404 -1.588238 -0.565193
       Atomic Center    8 is at   2.509850 -0.848790  0.509889
       Atomic Center    9 is at   1.172478 -2.663169  0.184568
     850 points will be used for fitting atomic charges
 Fitting point charges to eletrostatic potential
 Charges from ESP fit, RMS=   0.01518 RRMS=   0.25807:
 Charge=   0.00000 Dipole=     1.5614    -4.4433     1.6828 Tot=     5.0013
              1
     1  O   -0.537063
     2  O   -0.024826
     3  O   -0.688263
     4  O   -0.861096
     5  P   -1.101884
     6  Ca   1.312988
     7  Ca   1.507762
     8  Ca   1.090547
     9  H   -0.698164
 -----------------------------------------------------------------

              Electrostatic Properties (Atomic Units)

 -----------------------------------------------------------------
    Center     Electric         -------- Electric Field --------
               Potential          X             Y             Z
 -----------------------------------------------------------------
    1 Atom    -22.382901
    2 Atom    -22.261027
    3 Atom    -22.347645
    4 Atom    -22.345262
    5 Atom    -54.198885
    6 Atom    -80.200761
    7 Atom    -80.192146
    8 Atom    -80.171363
    9 Atom     -1.193259
 -----------------------------------------------------------------
 1\1\GINC-N028\SP\RB3LYP\6-31G(d,p)\Ca3H1O4P1\TIMN\04-May-2015\0\\# b3l
 yp/6-31G(d,p) pop=(ReadRadii,MK)\\Ca3PO4_9\\0,1\O,0,0.779331,0.102245,
 -0.674765\O,0,-2.73428,0.013074,0.527958\O,0,-2.32501,0.062397,-0.9006
 37\O,0,-1.58143,-0.514715,1.30272\P,0,1.80817,1.6106,-0.479969\Ca,0,-0
 .872645,1.49703,0.303942\Ca,0,-0.707403,-1.58824,-0.565193\Ca,0,2.5098
 5,-0.84879,0.509889\H,0,1.17248,-2.66317,0.184568\\Version=EM64T-G03Re
 vE.01\State=1-A\HF=-2675.5062387\RMSD=3.301e-05\Thermal=0.\Dipole=0.30
 54924,-1.5677523,-0.0487588\PG=C01 [X(Ca3H1O4P1)]\\@


 We're simply so accustomed to the marvels of everyday thought
 that we never wonder about it.
 -- Marvin Minsky in "Why people think computers are smart"
 Job cpu time:  0 days  0 hours  0 minutes 57.2 seconds.
 File lengths (MBytes):  RWF=     27 Int=      0 D2E=      0 Chk=     10 Scr=      1
 Normal termination of Gaussian 03 at Mon May  4 20:14:02 2015.
