 Entering Gaussian System, Link 0=/home/timn/tmp/g03.e01/g03
 Input=Ca3PO4_2.xyz.gjf
 Output=Ca3PO4_2.xyz.out
 Initial command:
 /home/timn/tmp/g03.e01/l1.exe /home/timn/tmp/g03.e01/Gau-13930.inp -scrdir=/home/timn/tmp/g03.e01/
 Default is to use a total of   2 processors:
                                2 via shared-memory
                                1 via Linda
 Entering Link 1 = /home/timn/tmp/g03.e01/l1.exe PID=     13931.
  
 Copyright (c) 1988,1990,1992,1993,1995,1998,2003,2004,2007, Gaussian, Inc.
                  All Rights Reserved.
  
 This is the Gaussian(R) 03 program.  It is based on the
 the Gaussian(R) 98 system (copyright 1998, Gaussian, Inc.),
 the Gaussian(R) 94 system (copyright 1995, Gaussian, Inc.),
 the Gaussian 92(TM) system (copyright 1992, Gaussian, Inc.),
 the Gaussian 90(TM) system (copyright 1990, Gaussian, Inc.),
 the Gaussian 88(TM) system (copyright 1988, Gaussian, Inc.),
 the Gaussian 86(TM) system (copyright 1986, Carnegie Mellon
 University), and the Gaussian 82(TM) system (copyright 1983,
 Carnegie Mellon University). Gaussian is a federally registered
 trademark of Gaussian, Inc.
  
 This software contains proprietary and confidential information,
 including trade secrets, belonging to Gaussian, Inc.
  
 This software is provided under written license and may be
 used, copied, transmitted, or stored only in accord with that
 written license.
  
 The following legend is applicable only to US Government
 contracts under FAR:
  
                    RESTRICTED RIGHTS LEGEND
  
 Use, reproduction and disclosure by the US Government is
 subject to restrictions as set forth in subparagraphs (a)
 and (c) of the Commercial Computer Software - Restricted
 Rights clause in FAR 52.227-19.
  
 Gaussian, Inc.
 340 Quinnipiac St., Bldg. 40, Wallingford CT 06492
  
  
 ---------------------------------------------------------------
 Warning -- This program may not be used in any manner that
 competes with the business of Gaussian, Inc. or will provide
 assistance to any competitor of Gaussian, Inc.  The licensee
 of this program is prohibited from giving any competitor of
 Gaussian, Inc. access to this program.  By using this program,
 the user acknowledges that Gaussian, Inc. is engaged in the
 business of creating and licensing software in the field of
 computational chemistry and represents and warrants to the
 licensee that it is not a competitor of Gaussian, Inc. and that
 it will not use this program in any manner prohibited above.
 ---------------------------------------------------------------
  

 Cite this work as:
 Gaussian 03, Revision E.01,
 M. J. Frisch, G. W. Trucks, H. B. Schlegel, G. E. Scuseria, 
 M. A. Robb, J. R. Cheeseman, J. A. Montgomery, Jr., T. Vreven, 
 K. N. Kudin, J. C. Burant, J. M. Millam, S. S. Iyengar, J. Tomasi, 
 V. Barone, B. Mennucci, M. Cossi, G. Scalmani, N. Rega, 
 G. A. Petersson, H. Nakatsuji, M. Hada, M. Ehara, K. Toyota, 
 R. Fukuda, J. Hasegawa, M. Ishida, T. Nakajima, Y. Honda, O. Kitao, 
 H. Nakai, M. Klene, X. Li, J. E. Knox, H. P. Hratchian, J. B. Cross, 
 V. Bakken, C. Adamo, J. Jaramillo, R. Gomperts, R. E. Stratmann, 
 O. Yazyev, A. J. Austin, R. Cammi, C. Pomelli, J. W. Ochterski, 
 P. Y. Ayala, K. Morokuma, G. A. Voth, P. Salvador, J. J. Dannenberg, 
 V. G. Zakrzewski, S. Dapprich, A. D. Daniels, M. C. Strain, 
 O. Farkas, D. K. Malick, A. D. Rabuck, K. Raghavachari, 
 J. B. Foresman, J. V. Ortiz, Q. Cui, A. G. Baboul, S. Clifford, 
 J. Cioslowski, B. B. Stefanov, G. Liu, A. Liashenko, P. Piskorz, 
 I. Komaromi, R. L. Martin, D. J. Fox, T. Keith, M. A. Al-Laham, 
 C. Y. Peng, A. Nanayakkara, M. Challacombe, P. M. W. Gill, 
 B. Johnson, W. Chen, M. W. Wong, C. Gonzalez, and J. A. Pople, 
 Gaussian, Inc., Wallingford CT, 2004.
 
 ******************************************
 Gaussian 03:  EM64T-G03RevE.01 11-Sep-2007
                 4-May-2015 
 ******************************************
 %nproc=2
 Will use up to    2 processors via shared memory.
 Default route:  MP2=Direct MaxDisk=2000MB
 -------------------------------------
 # b3lyp/6-31G(d,p) pop=(ReadRadii,MK)
 -------------------------------------
 1/38=1/1;
 2/17=6,18=5,40=1/2;
 3/5=1,6=6,7=101,11=2,16=1,25=1,30=1,74=-5/1,2,3;
 4//1;
 5/5=2,32=1,38=5/2;
 6/7=2,8=2,9=2,10=2,15=8,20=101,28=1/1,2;
 99/5=1,9=1/99;
 --------
 Ca3PO4_2
 --------
 Symbolic Z-matrix:
 Charge =  0 Multiplicity = 1
 9                     0.        0.        0. 
 O                    -1.93849   0.10804  -0.66023 
 O                     2.30531  -0.78174   0.79768 
 O                     1.79192   0.60452   1.03408 
 O                     2.22666  -1.00293  -0.6814 
 P                    -2.69737  -1.33108  -0.05883 
 Ca                   -3.76771   1.24973   0.05721 
 Ca                    0.04522  -0.66995   0.11755 
 Ca                    3.72222   0.75303  -0.28179 
 
                          Input orientation:                          
 ---------------------------------------------------------------------
 Center     Atomic     Atomic              Coordinates (Angstroms)
 Number     Number      Type              X           Y           Z
 ---------------------------------------------------------------------
    1          9             0        0.000000    0.000000    0.000000
    2          8             0       -1.938490    0.108043   -0.660228
    3          8             0        2.305310   -0.781738    0.797677
    4          8             0        1.791920    0.604516    1.034080
    5          8             0        2.226660   -1.002930   -0.681398
    6         15             0       -2.697370   -1.331080   -0.058830
    7         20             0       -3.767710    1.249730    0.057208
    8         20             0        0.045221   -0.669945    0.117552
    9         20             0        3.722220    0.753025   -0.281785
 ---------------------------------------------------------------------
                    Distance matrix (angstroms):
                    1          2          3          4          5
     1  F    0.000000
     2  O    2.050687   0.000000
     3  O    2.561612   4.574608   0.000000
     4  O    2.155397   4.127121   1.497049   0.000000
     5  O    2.535387   4.310822   1.497590   2.390763   0.000000
     6  P    3.008495   1.734547   5.105114   5.009462   4.974067
     7  Ca   3.969979   2.272490   6.446451   5.681555   6.446122
     8  Ca   0.681682   2.268329   2.362852   2.348453   2.346886
     9  Ca   3.808067   5.709891   2.351249   2.340857   2.340890
                    6          7          8          9
     6  P    0.000000
     7  Ca   2.796368   0.000000
     8  Ca   2.826662   4.269337   0.000000
     9  Ca   6.753098   7.514032   3.962907   0.000000
 Stoichiometry    Ca3FO4P
 Framework group  C1[X(Ca3FO4P)]
 Deg. of freedom    21
 Full point group                 C1
 Largest Abelian subgroup         C1      NOp   1
 Largest concise Abelian subgroup C1      NOp   1
                         Standard orientation:                         
 ---------------------------------------------------------------------
 Center     Atomic     Atomic              Coordinates (Angstroms)
 Number     Number      Type              X           Y           Z
 ---------------------------------------------------------------------
    1          9             0       -0.046116   -0.016724   -0.008448
    2          8             0        1.897765   -0.080752   -0.658482
    3          8             0       -2.367276    0.712089    0.793368
    4          8             0       -1.835544   -0.672225    0.998531
    5          8             0       -2.282668    0.971265   -0.679196
    6         15             0        2.632214    1.353503   -0.016494
    7         20             0        3.738690   -1.213973    0.042240
    8         20             0       -0.101658    0.649367    0.125451
    9         20             0       -3.755351   -0.815146   -0.333207
 ---------------------------------------------------------------------
 Rotational constants (GHZ):      2.1501913      0.3031382      0.2790233
 Standard basis: 6-31G(d,p) (6D, 7F)
 There are   163 symmetry adapted basis functions of A   symmetry.
 Integral buffers will be    131072 words long.
 Raffenetti 2 integral format.
 Two-electron integral symmetry is turned on.
   163 basis functions,   420 primitive gaussians,   163 cartesian basis functions
    58 alpha electrons       58 beta electrons
       nuclear repulsion energy      1050.5009900951 Hartrees.
 NAtoms=    9 NActive=    9 NUniq=    9 SFac= 7.50D-01 NAtFMM=   80 NAOKFM=F Big=F
 One-electron integrals computed using PRISM.
 NBasis=   163 RedAO= T  NBF=   163
 NBsUse=   163 1.00D-06 NBFU=   163
 Harris functional with IExCor=  402 diagonalized for initial guess.
 ExpMin= 2.60D-02 ExpMax= 3.53D+04 ExpMxC= 5.30D+03 IAcc=3 IRadAn=         5 AccDes= 0.00D+00
 HarFok:  IExCor= 402 AccDes= 0.00D+00 IRadAn=         5 IDoV=1
 ScaDFX=  1.000000  1.000000  1.000000  1.000000
 Initial guess orbital symmetries:
       Occupied  (A) (A) (A) (A) (A) (A) (A) (A) (A) (A) (A) (A)
                 (A) (A) (A) (A) (A) (A) (A) (A) (A) (A) (A) (A)
                 (A) (A) (A) (A) (A) (A) (A) (A) (A) (A) (A) (A)
                 (A) (A) (A) (A) (A) (A) (A) (A) (A) (A) (A) (A)
                 (A) (A) (A) (A) (A) (A) (A) (A) (A) (A)
       Virtual   (A) (A) (A) (A) (A) (A) (A) (A) (A) (A) (A) (A)
                 (A) (A) (A) (A) (A) (A) (A) (A) (A) (A) (A) (A)
                 (A) (A) (A) (A) (A) (A) (A) (A) (A) (A) (A) (A)
                 (A) (A) (A) (A) (A) (A) (A) (A) (A) (A) (A) (A)
                 (A) (A) (A) (A) (A) (A) (A) (A) (A) (A) (A) (A)
                 (A) (A) (A) (A) (A) (A) (A) (A) (A) (A) (A) (A)
                 (A) (A) (A) (A) (A) (A) (A) (A) (A) (A) (A) (A)
                 (A) (A) (A) (A) (A) (A) (A) (A) (A) (A) (A) (A)
                 (A) (A) (A) (A) (A) (A) (A) (A) (A)
 The electronic state of the initial guess is 1-A.
 Requested convergence on RMS density matrix=1.00D-04 within 128 cycles.
 Requested convergence on MAX density matrix=1.00D-02.
 Requested convergence on             energy=1.00D-02.
 No special actions if energy rises.
 EnCoef did     6 forward-backward iterations
 EnCoef did   100 forward-backward iterations
 EnCoef did    11 forward-backward iterations
 EnCoef did     6 forward-backward iterations
 EnCoef did    10 forward-backward iterations
 EnCoef did    54 forward-backward iterations
 Rare condition: small coef for last iteration:  0.000D+00
 EnCoef did    50 forward-backward iterations
 Rare condition: small coef for last iteration:  0.000D+00
 EnCoef did   100 forward-backward iterations
 EnCoef did   100 forward-backward iterations
 SCF Done:  E(RB+HF-LYP) =  -2766.80629810     A.U. after   19 cycles
             Convg  =    0.4898D-04             -V/T =  1.9938
             S**2   =   0.0000

 **********************************************************************

            Population analysis using the SCF density.

 **********************************************************************

 Orbital symmetries:
       Occupied  (A) (A) (A) (A) (A) (A) (A) (A) (A) (A) (A) (A)
                 (A) (A) (A) (A) (A) (A) (A) (A) (A) (A) (A) (A)
                 (A) (A) (A) (A) (A) (A) (A) (A) (A) (A) (A) (A)
                 (A) (A) (A) (A) (A) (A) (A) (A) (A) (A) (A) (A)
                 (A) (A) (A) (A) (A) (A) (A) (A) (A) (A)
       Virtual   (A) (A) (A) (A) (A) (A) (A) (A) (A) (A) (A) (A)
                 (A) (A) (A) (A) (A) (A) (A) (A) (A) (A) (A) (A)
                 (A) (A) (A) (A) (A) (A) (A) (A) (A) (A) (A) (A)
                 (A) (A) (A) (A) (A) (A) (A) (A) (A) (A) (A) (A)
                 (A) (A) (A) (A) (A) (A) (A) (A) (A) (A) (A) (A)
                 (A) (A) (A) (A) (A) (A) (A) (A) (A) (A) (A) (A)
                 (A) (A) (A) (A) (A) (A) (A) (A) (A) (A) (A) (A)
                 (A) (A) (A) (A) (A) (A) (A) (A) (A) (A) (A) (A)
                 (A) (A) (A) (A) (A) (A) (A) (A) (A)
 The electronic state is 1-A.
 Alpha  occ. eigenvalues -- -145.99658-145.39772-145.38180 -77.05333 -25.53858
 Alpha  occ. eigenvalues --  -19.29014 -19.20414 -19.20237 -19.12574 -16.21797
 Alpha  occ. eigenvalues --  -15.46896 -15.45364 -13.35932 -13.25449 -13.25282
 Alpha  occ. eigenvalues --  -12.60088 -12.60041 -12.59976 -12.58550 -12.58507
 Alpha  occ. eigenvalues --  -12.58436  -6.51951  -4.68423  -4.67960  -4.67688
 Alpha  occ. eigenvalues --   -3.21799  -1.99717  -1.99265  -1.84164  -1.82806
 Alpha  occ. eigenvalues --   -1.71313  -1.26231  -1.16713  -1.11723  -1.11603
 Alpha  occ. eigenvalues --   -1.11442  -1.10347  -1.10234  -1.08791  -0.96115
 Alpha  occ. eigenvalues --   -0.93246  -0.82849  -0.82056  -0.80248  -0.51062
 Alpha  occ. eigenvalues --   -0.49679  -0.49082  -0.47764  -0.37916  -0.36552
 Alpha  occ. eigenvalues --   -0.34026  -0.33914  -0.32365  -0.31187  -0.28874
 Alpha  occ. eigenvalues --   -0.17505  -0.14717  -0.12296
 Alpha virt. eigenvalues --   -0.10901  -0.07940  -0.05462  -0.04581  -0.04031
 Alpha virt. eigenvalues --   -0.03111  -0.02935  -0.02078  -0.01394   0.00064
 Alpha virt. eigenvalues --    0.00845   0.01684   0.03439   0.03999   0.05627
 Alpha virt. eigenvalues --    0.06319   0.07617   0.08156   0.08756   0.11165
 Alpha virt. eigenvalues --    0.11417   0.12528   0.13187   0.13581   0.15459
 Alpha virt. eigenvalues --    0.16016   0.16807   0.18491   0.18778   0.19743
 Alpha virt. eigenvalues --    0.20339   0.21327   0.22385   0.23321   0.25116
 Alpha virt. eigenvalues --    0.25483   0.30140   0.33393   0.36169   0.38785
 Alpha virt. eigenvalues --    0.39324   0.39898   0.41045   0.41271   0.42616
 Alpha virt. eigenvalues --    0.44277   0.48698   0.50581   0.72135   0.72990
 Alpha virt. eigenvalues --    0.76350   0.76759   0.81584   0.84133   0.85636
 Alpha virt. eigenvalues --    0.88446   0.89604   0.92818   0.94316   0.98333
 Alpha virt. eigenvalues --    1.00667   1.03520   1.05017   1.06348   1.12375
 Alpha virt. eigenvalues --    1.12646   1.15464   1.19088   1.23766   1.27569
 Alpha virt. eigenvalues --    1.29771   1.35241   1.40960   1.43663   1.45313
 Alpha virt. eigenvalues --    1.49838   1.54329   1.56773   1.60117   1.62405
 Alpha virt. eigenvalues --    1.76134   1.81441   1.85476   1.87830   1.89818
 Alpha virt. eigenvalues --    1.90069   1.90902   1.91200   1.93096   1.97485
 Alpha virt. eigenvalues --    2.02104   2.11013   2.29439   2.31814   2.43277
 Alpha virt. eigenvalues --    2.48019   2.95826   3.02913   3.32509   3.53903
 Alpha virt. eigenvalues --    3.67649   3.73624   3.75907   3.97356   4.52704
          Condensed to atoms (all electrons):
              1          2          3          4          5          6
     1  F   11.134876  -0.017716   0.014269  -0.006709   0.017436   0.033922
     2  O   -0.017716   8.755760  -0.000031  -0.000061   0.000005  -0.082240
     3  O    0.014269  -0.000031   8.214331  -0.037588  -0.019707  -0.000180
     4  O   -0.006709  -0.000061  -0.037588   8.483292  -0.046861  -0.000161
     5  O    0.017436   0.000005  -0.019707  -0.046861   8.394871  -0.000482
     6  P    0.033922  -0.082240  -0.000180  -0.000161  -0.000482  14.921733
     7  Ca  -0.008056   0.082888   0.000378  -0.000497  -0.002135   0.180472
     8  Ca  -2.150112   0.130079  -0.008399   0.085261   0.073850   0.128759
     9  Ca  -0.009810  -0.003937   0.020258   0.036115   0.033334   0.003563
              7          8          9
     1  F   -0.008056  -2.150112  -0.009810
     2  O    0.082888   0.130079  -0.003937
     3  O    0.000378  -0.008399   0.020258
     4  O   -0.000497   0.085261   0.036115
     5  O   -0.002135   0.073850   0.033334
     6  P    0.180472   0.128759   0.003563
     7  Ca  19.176559   0.025157  -0.004701
     8  Ca   0.025157  20.467395   0.062464
     9  Ca  -0.004701   0.062464  19.393534
 Mulliken atomic charges:
              1
     1  F   -0.008100
     2  O   -0.864746
     3  O   -0.183330
     4  O   -0.512791
     5  O   -0.450311
     6  P   -0.185386
     7  Ca   0.549934
     8  Ca   1.185547
     9  Ca   0.469182
 Sum of Mulliken charges=   0.00000
 Atomic charges with hydrogens summed into heavy atoms:
              1
     1  F   -0.008100
     2  O   -0.864746
     3  O   -0.183330
     4  O   -0.512791
     5  O   -0.450311
     6  P   -0.185386
     7  Ca   0.549934
     8  Ca   1.185547
     9  Ca   0.469182
 Sum of Mulliken charges=   0.00000
 Electronic spatial extent (au):  <R**2>=  3536.6265
 Charge=     0.0000 electrons
 Dipole moment (field-independent basis, Debye):
    X=     0.5876    Y=    -2.8152    Z=    -0.2232  Tot=     2.8845
 Quadrupole moment (field-independent basis, Debye-Ang):
   XX=  -101.2671   YY=  -108.4625   ZZ=  -105.4248
   XY=   -16.3734   XZ=    -4.5762   YZ=     1.0539
 Traceless Quadrupole moment (field-independent basis, Debye-Ang):
   XX=     3.7844   YY=    -3.4111   ZZ=    -0.3733
   XY=   -16.3734   XZ=    -4.5762   YZ=     1.0539
 Octapole moment (field-independent basis, Debye-Ang**2):
  XXX=    63.5420  YYY=    39.9082  ZZZ=     3.5194  XYY=    -1.3526
  XXY=    -7.8588  XXZ=    11.3040  XZZ=     0.6281  YZZ=    12.4980
  YYZ=     5.0620  XYZ=     6.6802
 Hexadecapole moment (field-independent basis, Debye-Ang**3):
 XXXX= -4983.8601 YYYY=  -908.4934 ZZZZ=  -373.3220 XXXY=  -307.5939
 XXXZ=  -219.4168 YYYX=   -71.0216 YYYZ=    -7.5873 ZZZX=   -93.2529
 ZZZY=   -13.5720 XXYY= -1105.8813 XXZZ=  -932.9122 YYZZ=  -212.1476
 XXYZ=    -5.9926 YYXZ=   -42.6564 ZZXY=   -32.1077
 N-N= 1.050500990095D+03 E-N=-8.656498648169D+03  KE= 2.784035488087D+03
 Merz-Kollman atomic radii used.
 Read replacement radii for each type of atom:
 Rad(20) =   1.188000000000D+00
 Atom Element Radius
    1     9    1.35
    2     8    1.40
    3     8    1.40
    4     8    1.40
    5     8    1.40
    6    15    1.80
    7    20    1.19
    8    20    1.19
    9    20    1.19

 **********************************************************************

            Electrostatic Properties Using The SCF Density

 **********************************************************************

       Atomic Center    1 is at  -0.046116 -0.016724 -0.008448
       Atomic Center    2 is at   1.897765 -0.080752 -0.658482
       Atomic Center    3 is at  -2.367276  0.712089  0.793368
       Atomic Center    4 is at  -1.835544 -0.672225  0.998531
       Atomic Center    5 is at  -2.282668  0.971265 -0.679196
       Atomic Center    6 is at   2.632214  1.353503 -0.016494
       Atomic Center    7 is at   3.738690 -1.213973  0.042240
       Atomic Center    8 is at  -0.101658  0.649367  0.125451
       Atomic Center    9 is at  -3.755351 -0.815146 -0.333207
     864 points will be used for fitting atomic charges
 Fitting point charges to eletrostatic potential
 Charges from ESP fit, RMS=   0.03178 RRMS=   0.58958:
 Charge=   0.00000 Dipole=    -2.1222    -8.8929    -0.5337 Tot=     9.1582
              1
     1  F    0.090570
     2  O   -0.353502
     3  O   -0.095259
     4  O   -0.665245
     5  O   -0.540072
     6  P   -1.012239
     7  Ca   0.654857
     8  Ca   1.363977
     9  Ca   0.556913
 -----------------------------------------------------------------

              Electrostatic Properties (Atomic Units)

 -----------------------------------------------------------------
    Center     Electric         -------- Electric Field --------
               Potential          X             Y             Z
 -----------------------------------------------------------------
    1 Atom    -25.886959
    2 Atom    -22.339444
    3 Atom    -22.184741
    4 Atom    -22.267668
    5 Atom    -22.269872
    6 Atom    -54.166290
    7 Atom    -80.150044
    8 Atom    -79.566591
    9 Atom    -80.159659
 -----------------------------------------------------------------
 1\1\GINC-N029\SP\RB3LYP\6-31G(d,p)\Ca3F1O4P1\TIMN\04-May-2015\0\\# b3l
 yp/6-31G(d,p) pop=(ReadRadii,MK)\\Ca3PO4_2\\0,1\F,0,0.,0.,0.\O,0,-1.93
 849,0.108043,-0.660228\O,0,2.30531,-0.781738,0.797677\O,0,1.79192,0.60
 4516,1.03408\O,0,2.22666,-1.00293,-0.681398\P,0,-2.69737,-1.33108,-0.0
 5883\Ca,0,-3.76771,1.24973,0.057208\Ca,0,0.045221,-0.669945,0.117552\C
 a,0,3.72222,0.753025,-0.281785\\Version=EM64T-G03RevE.01\State=1-A\HF=
 -2766.8062981\RMSD=4.898e-05\Thermal=0.\Dipole=-0.2148919,1.112608,-0.
 0615172\PG=C01 [X(Ca3F1O4P1)]\\@


 SCIENCE IS LONG AND LIFE IS SHORT.

                     DON MOSER IN THE FEBRUARY 1979 SMITHSONIAN
 Job cpu time:  0 days  0 hours  1 minutes 42.5 seconds.
 File lengths (MBytes):  RWF=     26 Int=      0 D2E=      0 Chk=     11 Scr=      1
 Normal termination of Gaussian 03 at Mon May  4 20:42:20 2015.
