 Entering Gaussian System, Link 0=/home/timn/tmp/g03.e01/g03
 Input=Ca3PO4_23.xyz.gjf
 Output=Ca3PO4_23.xyz.out
 Initial command:
 /home/timn/tmp/g03.e01/l1.exe /home/timn/tmp/g03.e01/Gau-31219.inp -scrdir=/home/timn/tmp/g03.e01/
 Default is to use a total of   2 processors:
                                2 via shared-memory
                                1 via Linda
 Entering Link 1 = /home/timn/tmp/g03.e01/l1.exe PID=     31220.
  
 Copyright (c) 1988,1990,1992,1993,1995,1998,2003,2004,2007, Gaussian, Inc.
                  All Rights Reserved.
  
 This is the Gaussian(R) 03 program.  It is based on the
 the Gaussian(R) 98 system (copyright 1998, Gaussian, Inc.),
 the Gaussian(R) 94 system (copyright 1995, Gaussian, Inc.),
 the Gaussian 92(TM) system (copyright 1992, Gaussian, Inc.),
 the Gaussian 90(TM) system (copyright 1990, Gaussian, Inc.),
 the Gaussian 88(TM) system (copyright 1988, Gaussian, Inc.),
 the Gaussian 86(TM) system (copyright 1986, Carnegie Mellon
 University), and the Gaussian 82(TM) system (copyright 1983,
 Carnegie Mellon University). Gaussian is a federally registered
 trademark of Gaussian, Inc.
  
 This software contains proprietary and confidential information,
 including trade secrets, belonging to Gaussian, Inc.
  
 This software is provided under written license and may be
 used, copied, transmitted, or stored only in accord with that
 written license.
  
 The following legend is applicable only to US Government
 contracts under FAR:
  
                    RESTRICTED RIGHTS LEGEND
  
 Use, reproduction and disclosure by the US Government is
 subject to restrictions as set forth in subparagraphs (a)
 and (c) of the Commercial Computer Software - Restricted
 Rights clause in FAR 52.227-19.
  
 Gaussian, Inc.
 340 Quinnipiac St., Bldg. 40, Wallingford CT 06492
  
  
 ---------------------------------------------------------------
 Warning -- This program may not be used in any manner that
 competes with the business of Gaussian, Inc. or will provide
 assistance to any competitor of Gaussian, Inc.  The licensee
 of this program is prohibited from giving any competitor of
 Gaussian, Inc. access to this program.  By using this program,
 the user acknowledges that Gaussian, Inc. is engaged in the
 business of creating and licensing software in the field of
 computational chemistry and represents and warrants to the
 licensee that it is not a competitor of Gaussian, Inc. and that
 it will not use this program in any manner prohibited above.
 ---------------------------------------------------------------
  

 Cite this work as:
 Gaussian 03, Revision E.01,
 M. J. Frisch, G. W. Trucks, H. B. Schlegel, G. E. Scuseria, 
 M. A. Robb, J. R. Cheeseman, J. A. Montgomery, Jr., T. Vreven, 
 K. N. Kudin, J. C. Burant, J. M. Millam, S. S. Iyengar, J. Tomasi, 
 V. Barone, B. Mennucci, M. Cossi, G. Scalmani, N. Rega, 
 G. A. Petersson, H. Nakatsuji, M. Hada, M. Ehara, K. Toyota, 
 R. Fukuda, J. Hasegawa, M. Ishida, T. Nakajima, Y. Honda, O. Kitao, 
 H. Nakai, M. Klene, X. Li, J. E. Knox, H. P. Hratchian, J. B. Cross, 
 V. Bakken, C. Adamo, J. Jaramillo, R. Gomperts, R. E. Stratmann, 
 O. Yazyev, A. J. Austin, R. Cammi, C. Pomelli, J. W. Ochterski, 
 P. Y. Ayala, K. Morokuma, G. A. Voth, P. Salvador, J. J. Dannenberg, 
 V. G. Zakrzewski, S. Dapprich, A. D. Daniels, M. C. Strain, 
 O. Farkas, D. K. Malick, A. D. Rabuck, K. Raghavachari, 
 J. B. Foresman, J. V. Ortiz, Q. Cui, A. G. Baboul, S. Clifford, 
 J. Cioslowski, B. B. Stefanov, G. Liu, A. Liashenko, P. Piskorz, 
 I. Komaromi, R. L. Martin, D. J. Fox, T. Keith, M. A. Al-Laham, 
 C. Y. Peng, A. Nanayakkara, M. Challacombe, P. M. W. Gill, 
 B. Johnson, W. Chen, M. W. Wong, C. Gonzalez, and J. A. Pople, 
 Gaussian, Inc., Wallingford CT, 2004.
 
 ******************************************
 Gaussian 03:  EM64T-G03RevE.01 11-Sep-2007
                 4-May-2015 
 ******************************************
 %nproc=2
 Will use up to    2 processors via shared memory.
 Default route:  MP2=Direct MaxDisk=2000MB
 -------------------------------------
 # b3lyp/6-31G(d,p) pop=(ReadRadii,MK)
 -------------------------------------
 1/38=1/1;
 2/17=6,18=5,40=1/2;
 3/5=1,6=6,7=101,11=2,16=1,25=1,30=1,74=-5/1,2,3;
 4//1;
 5/5=2,32=1,38=5/2;
 6/7=2,8=2,9=2,10=2,15=8,20=101,28=1/1,2;
 99/5=1,9=1/99;
 ---------
 Ca3PO4_23
 ---------
 Symbolic Z-matrix:
 Charge =  0 Multiplicity = 1
 O                     0.22678  -0.69191   1.10779 
 O                     2.77961   0.84722   0.43547 
 O                     2.29117   0.76062  -1.04635 
 O                    -1.31656   0.49364  -0.58738 
 P                    -0.81679  -1.09942  -0.12496 
 Ca                    0.60673   1.48641   0.24122 
 Ca                    2.12534  -1.26214  -0.091 
 Ca                   -3.44635  -0.00831  -0.03884 
 H                    -5.31059   0.89568   0.37052 
 
                          Input orientation:                          
 ---------------------------------------------------------------------
 Center     Atomic     Atomic              Coordinates (Angstroms)
 Number     Number      Type              X           Y           Z
 ---------------------------------------------------------------------
    1          8             0        0.226783   -0.691912    1.107790
    2          8             0        2.779610    0.847217    0.435467
    3          8             0        2.291170    0.760623   -1.046350
    4          8             0       -1.316560    0.493644   -0.587376
    5         15             0       -0.816788   -1.099420   -0.124958
    6         20             0        0.606726    1.486410    0.241220
    7         20             0        2.125340   -1.262140   -0.091000
    8         20             0       -3.446350   -0.008312   -0.038838
    9          1             0       -5.310590    0.895676    0.370518
 ---------------------------------------------------------------------
                    Distance matrix (angstroms):
                    1          2          3          4          5
     1  O    0.000000
     2  O    3.055792   0.000000
     3  O    3.318414   1.562643   0.000000
     4  O    2.580899   4.236724   3.646594   0.000000
     5  P    1.665764   4.127657   3.737396   1.732471   0.000000
     6  Ca   2.374950   2.273263   2.240972   2.317582   2.974390
     7  Ca   2.316630   2.270380   2.243159   3.895618   2.946820
     8  Ca   3.908193   6.302339   5.875838   2.255850   2.848250
     9  H    5.807453   8.090606   7.733855   4.126920   4.941676
                    6          7          8          9
     6  Ca   0.000000
     7  Ca   3.157703   0.000000
     8  Ca   4.328978   5.711264   0.000000
     9  H    5.948135   7.756431   2.111908   0.000000
 Stoichiometry    Ca3HO4P
 Framework group  C1[X(Ca3HO4P)]
 Deg. of freedom    21
 Full point group                 C1
 Largest Abelian subgroup         C1      NOp   1
 Largest concise Abelian subgroup C1      NOp   1
                         Standard orientation:                         
 ---------------------------------------------------------------------
 Center     Atomic     Atomic              Coordinates (Angstroms)
 Number     Number      Type              X           Y           Z
 ---------------------------------------------------------------------
    1          8             0        0.226783   -0.691913    1.107790
    2          8             0        2.779611    0.847215    0.435467
    3          8             0        2.291171    0.760621   -1.046350
    4          8             0       -1.316559    0.493644   -0.587376
    5         15             0       -0.816788   -1.099421   -0.124958
    6         20             0        0.606727    1.486409    0.241220
    7         20             0        2.125340   -1.262142   -0.091000
    8         20             0       -3.446349   -0.008311   -0.038838
    9          1             0       -5.310589    0.895677    0.370518
 ---------------------------------------------------------------------
 Rotational constants (GHZ):      1.8617273      0.5033488      0.4292183
 Standard basis: 6-31G(d,p) (6D, 7F)
 There are   153 symmetry adapted basis functions of A   symmetry.
 Integral buffers will be    131072 words long.
 Raffenetti 2 integral format.
 Two-electron integral symmetry is turned on.
   153 basis functions,   399 primitive gaussians,   153 cartesian basis functions
    54 alpha electrons       54 beta electrons
       nuclear repulsion energy       876.6490867715 Hartrees.
 NAtoms=    9 NActive=    9 NUniq=    9 SFac= 7.50D-01 NAtFMM=   80 NAOKFM=F Big=F
 One-electron integrals computed using PRISM.
 NBasis=   153 RedAO= T  NBF=   153
 NBsUse=   153 1.00D-06 NBFU=   153
 Harris functional with IExCor=  402 diagonalized for initial guess.
 ExpMin= 2.60D-02 ExpMax= 3.53D+04 ExpMxC= 5.30D+03 IAcc=3 IRadAn=         5 AccDes= 0.00D+00
 HarFok:  IExCor= 402 AccDes= 0.00D+00 IRadAn=         5 IDoV=1
 ScaDFX=  1.000000  1.000000  1.000000  1.000000
 Initial guess orbital symmetries:
       Occupied  (A) (A) (A) (A) (A) (A) (A) (A) (A) (A) (A) (A)
                 (A) (A) (A) (A) (A) (A) (A) (A) (A) (A) (A) (A)
                 (A) (A) (A) (A) (A) (A) (A) (A) (A) (A) (A) (A)
                 (A) (A) (A) (A) (A) (A) (A) (A) (A) (A) (A) (A)
                 (A) (A) (A) (A) (A) (A)
       Virtual   (A) (A) (A) (A) (A) (A) (A) (A) (A) (A) (A) (A)
                 (A) (A) (A) (A) (A) (A) (A) (A) (A) (A) (A) (A)
                 (A) (A) (A) (A) (A) (A) (A) (A) (A) (A) (A) (A)
                 (A) (A) (A) (A) (A) (A) (A) (A) (A) (A) (A) (A)
                 (A) (A) (A) (A) (A) (A) (A) (A) (A) (A) (A) (A)
                 (A) (A) (A) (A) (A) (A) (A) (A) (A) (A) (A) (A)
                 (A) (A) (A) (A) (A) (A) (A) (A) (A) (A) (A) (A)
                 (A) (A) (A) (A) (A) (A) (A) (A) (A) (A) (A) (A)
                 (A) (A) (A)
 The electronic state of the initial guess is 1-A.
 Requested convergence on RMS density matrix=1.00D-04 within 128 cycles.
 Requested convergence on MAX density matrix=1.00D-02.
 Requested convergence on             energy=1.00D-02.
 No special actions if energy rises.
 EnCoef did     2 forward-backward iterations
 SCF Done:  E(RB+HF-LYP) =  -2675.61040016     A.U. after    9 cycles
             Convg  =    0.6832D-04             -V/T =  2.0025
             S**2   =   0.0000

 **********************************************************************

            Population analysis using the SCF density.

 **********************************************************************

 Orbital symmetries:
       Occupied  (A) (A) (A) (A) (A) (A) (A) (A) (A) (A) (A) (A)
                 (A) (A) (A) (A) (A) (A) (A) (A) (A) (A) (A) (A)
                 (A) (A) (A) (A) (A) (A) (A) (A) (A) (A) (A) (A)
                 (A) (A) (A) (A) (A) (A) (A) (A) (A) (A) (A) (A)
                 (A) (A) (A) (A) (A) (A)
       Virtual   (A) (A) (A) (A) (A) (A) (A) (A) (A) (A) (A) (A)
                 (A) (A) (A) (A) (A) (A) (A) (A) (A) (A) (A) (A)
                 (A) (A) (A) (A) (A) (A) (A) (A) (A) (A) (A) (A)
                 (A) (A) (A) (A) (A) (A) (A) (A) (A) (A) (A) (A)
                 (A) (A) (A) (A) (A) (A) (A) (A) (A) (A) (A) (A)
                 (A) (A) (A) (A) (A) (A) (A) (A) (A) (A) (A) (A)
                 (A) (A) (A) (A) (A) (A) (A) (A) (A) (A) (A) (A)
                 (A) (A) (A) (A) (A) (A) (A) (A) (A) (A) (A) (A)
                 (A) (A) (A)
 The electronic state is 1-A.
 Alpha  occ. eigenvalues -- -145.35545-145.34654-145.33540 -77.07909 -19.09050
 Alpha  occ. eigenvalues --  -19.07862 -19.07788 -19.07757 -15.42852 -15.41736
 Alpha  occ. eigenvalues --  -15.40661 -12.56092 -12.56020 -12.55822 -12.54941
 Alpha  occ. eigenvalues --  -12.54886 -12.54832 -12.53881 -12.53828 -12.53713
 Alpha  occ. eigenvalues --   -6.53922  -4.70398  -4.70068  -4.69698  -1.80530
 Alpha  occ. eigenvalues --   -1.79239  -1.78301  -1.08577  -1.08229  -1.07976
 Alpha  occ. eigenvalues --   -1.07428  -1.06915  -1.06708  -1.06113  -1.05835
 Alpha  occ. eigenvalues --   -1.05536  -0.91198  -0.90522  -0.86846  -0.71563
 Alpha  occ. eigenvalues --   -0.49586  -0.35613  -0.34319  -0.33521  -0.31402
 Alpha  occ. eigenvalues --   -0.29911  -0.28913  -0.27299  -0.25533  -0.24310
 Alpha  occ. eigenvalues --   -0.21200  -0.18262  -0.16967  -0.12470
 Alpha virt. eigenvalues --   -0.07200  -0.06113  -0.03465  -0.01266  -0.00606
 Alpha virt. eigenvalues --   -0.00234   0.01157   0.01630   0.04029   0.04306
 Alpha virt. eigenvalues --    0.04642   0.05687   0.06983   0.07625   0.08797
 Alpha virt. eigenvalues --    0.10231   0.10598   0.12161   0.13772   0.14698
 Alpha virt. eigenvalues --    0.15430   0.16114   0.16455   0.19088   0.20605
 Alpha virt. eigenvalues --    0.20743   0.21718   0.22421   0.22712   0.23803
 Alpha virt. eigenvalues --    0.24586   0.28058   0.28824   0.30302   0.32775
 Alpha virt. eigenvalues --    0.34000   0.37005   0.37410   0.39772   0.41565
 Alpha virt. eigenvalues --    0.42082   0.43635   0.43957   0.45625   0.48620
 Alpha virt. eigenvalues --    0.51866   0.52558   0.59759   0.69230   0.72302
 Alpha virt. eigenvalues --    0.79718   0.84656   0.90125   0.95951   0.98523
 Alpha virt. eigenvalues --    1.02584   1.03902   1.06180   1.10525   1.13784
 Alpha virt. eigenvalues --    1.15515   1.17006   1.19694   1.23065   1.24728
 Alpha virt. eigenvalues --    1.27193   1.36765   1.45252   1.51092   1.54925
 Alpha virt. eigenvalues --    1.63044   1.64883   1.67643   1.86258   1.87229
 Alpha virt. eigenvalues --    1.90126   1.91499   1.92019   1.93252   1.96881
 Alpha virt. eigenvalues --    1.98495   2.00294   2.00895   2.02179   2.04815
 Alpha virt. eigenvalues --    2.08324   2.14361   2.15206   2.34675   2.34887
 Alpha virt. eigenvalues --    2.34977   2.44577   2.62958   3.08740   3.59378
 Alpha virt. eigenvalues --    3.79886   3.82978   3.86430   3.90353
          Condensed to atoms (all electrons):
              1          2          3          4          5          6
     1  O    8.524480  -0.004822  -0.000823  -0.035917   0.083074   0.126142
     2  O   -0.004822   8.375869  -0.007263  -0.000027   0.000296   0.117801
     3  O   -0.000823  -0.007263   8.364985  -0.000403  -0.001498   0.114810
     4  O   -0.035917  -0.000027  -0.000403   8.596978   0.045235   0.138119
     5  P    0.083074   0.000296  -0.001498   0.045235  14.316744  -0.015708
     6  Ca   0.126142   0.117801   0.114810   0.138119  -0.015708  18.642746
     7  Ca   0.115085   0.107935   0.113923  -0.005907   0.135927  -0.154564
     8  Ca  -0.004312  -0.003518  -0.000512   0.125221   0.169089  -0.079957
     9  H    0.000000   0.000000   0.000000  -0.000216  -0.000617  -0.000734
              7          8          9
     1  O    0.115085  -0.004312   0.000000
     2  O    0.107935  -0.003518   0.000000
     3  O    0.113923  -0.000512   0.000000
     4  O   -0.005907   0.125221  -0.000216
     5  P    0.135927   0.169089  -0.000617
     6  Ca  -0.154564  -0.079957  -0.000734
     7  Ca  18.699106  -0.038082   0.000631
     8  Ca  -0.038082  18.771813   0.331721
     9  H    0.000631   0.331721   0.967019
 Mulliken atomic charges:
              1
     1  O   -0.802907
     2  O   -0.586271
     3  O   -0.583219
     4  O   -0.863082
     5  P    0.267458
     6  Ca   1.111345
     7  Ca   1.025945
     8  Ca   0.728536
     9  H   -0.297805
 Sum of Mulliken charges=   0.00000
 Atomic charges with hydrogens summed into heavy atoms:
              1
     1  O   -0.802907
     2  O   -0.586271
     3  O   -0.583219
     4  O   -0.863082
     5  P    0.267458
     6  Ca   1.111345
     7  Ca   1.025945
     8  Ca   0.430731
     9  H    0.000000
 Sum of Mulliken charges=   0.00000
 Electronic spatial extent (au):  <R**2>=  2441.1843
 Charge=     0.0000 electrons
 Dipole moment (field-independent basis, Debye):
    X=     2.3639    Y=    -0.9526    Z=     0.9955  Tot=     2.7361
 Quadrupole moment (field-independent basis, Debye-Ang):
   XX=  -114.6653   YY=   -67.7299   ZZ=   -88.2198
   XY=    -8.3666   XZ=     7.9534   YZ=     4.9934
 Traceless Quadrupole moment (field-independent basis, Debye-Ang):
   XX=   -24.4603   YY=    22.4751   ZZ=     1.9852
   XY=    -8.3666   XZ=     7.9534   YZ=     4.9934
 Octapole moment (field-independent basis, Debye-Ang**2):
  XXX=   229.4976  YYY=    44.7487  ZZZ=     2.9177  XYY=    47.8961
  XXY=  -126.5608  XXZ=   -25.4812  XZZ=     4.1294  YZZ=     7.9710
  YYZ=     9.1084  XYZ=     5.0241
 Hexadecapole moment (field-independent basis, Debye-Ang**3):
 XXXX= -4129.8782 YYYY=  -572.1324 ZZZZ=  -254.9835 XXXY=   191.2837
 XXXZ=   189.8466 YYYX=     3.5611 YYYZ=    -3.8995 ZZZX=    31.3391
 ZZZY=     2.6113 XXYY=  -567.1975 XXZZ=  -484.6263 YYZZ=  -148.3296
 XXYZ=   -13.4822 YYXZ=    17.0309 ZZXY=     1.5923
 N-N= 8.766490867715D+02 E-N=-8.094654620772D+03  KE= 2.668818925017D+03
 Merz-Kollman atomic radii used.
 Read replacement radii for each type of atom:
 Rad(20) =   1.188000000000D+00
 Atom Element Radius
    1     8    1.40
    2     8    1.40
    3     8    1.40
    4     8    1.40
    5    15    1.80
    6    20    1.19
    7    20    1.19
    8    20    1.19
    9     1    1.20

 **********************************************************************

            Electrostatic Properties Using The SCF Density

 **********************************************************************

       Atomic Center    1 is at   0.226783 -0.691913  1.107790
       Atomic Center    2 is at   2.779611  0.847215  0.435467
       Atomic Center    3 is at   2.291171  0.760621 -1.046350
       Atomic Center    4 is at  -1.316559  0.493644 -0.587376
       Atomic Center    5 is at  -0.816788 -1.099421 -0.124958
       Atomic Center    6 is at   0.606727  1.486409  0.241220
       Atomic Center    7 is at   2.125340 -1.262142 -0.091000
       Atomic Center    8 is at  -3.446349 -0.008311 -0.038838
       Atomic Center    9 is at  -5.310589  0.895677  0.370518
     850 points will be used for fitting atomic charges
 Fitting point charges to eletrostatic potential
 Charges from ESP fit, RMS=   0.01036 RRMS=   0.16810:
 Charge=   0.00000 Dipole=     2.5056    -1.7186     0.7699 Tot=     3.1344
              1
     1  O   -0.630784
     2  O   -0.739742
     3  O   -0.718128
     4  O   -0.716733
     5  P   -0.795917
     6  Ca   1.523441
     7  Ca   1.366735
     8  Ca   1.459011
     9  H   -0.747883
 -----------------------------------------------------------------

              Electrostatic Properties (Atomic Units)

 -----------------------------------------------------------------
    Center     Electric         -------- Electric Field --------
               Potential          X             Y             Z
 -----------------------------------------------------------------
    1 Atom    -22.384150
    2 Atom    -22.392220
    3 Atom    -22.388498
    4 Atom    -22.373400
    5 Atom    -54.135810
    6 Atom    -80.206212
    7 Atom    -80.196489
    8 Atom    -80.187202
    9 Atom     -1.215068
 -----------------------------------------------------------------
 1\1\GINC-N028\SP\RB3LYP\6-31G(d,p)\Ca3H1O4P1\TIMN\04-May-2015\0\\# b3l
 yp/6-31G(d,p) pop=(ReadRadii,MK)\\Ca3PO4_23\\0,1\O,0,0.226783,-0.69191
 2,1.10779\O,0,2.77961,0.847217,0.435467\O,0,2.29117,0.760623,-1.04635\
 O,0,-1.31656,0.493644,-0.587376\P,0,-0.816788,-1.09942,-0.124958\Ca,0,
 0.606726,1.48641,0.24122\Ca,0,2.12534,-1.26214,-0.091\Ca,0,-3.44635,-0
 .008312,-0.038838\H,0,-5.31059,0.895676,0.370518\\Version=EM64T-G03Rev
 E.01\State=1-A\HF=-2675.6104002\RMSD=6.832e-05\Thermal=0.\Dipole=0.930
 0181,-0.3747833,0.3916706\PG=C01 [X(Ca3H1O4P1)]\\@


 MICRO CREDO - NEVER TRUST A COMPUTER BIGGER
               BIGGER THAN YOU CAN LIFT.
 Job cpu time:  0 days  0 hours  0 minutes 48.5 seconds.
 File lengths (MBytes):  RWF=     27 Int=      0 D2E=      0 Chk=     10 Scr=      1
 Normal termination of Gaussian 03 at Mon May  4 20:11:57 2015.
