 Entering Gaussian System, Link 0=/home/timn/tmp/g03.e01/g03
 Input=Ca3PO4_116.xyz.gjf
 Output=Ca3PO4_116.xyz.out
 Initial command:
 /home/timn/tmp/g03.e01/l1.exe /home/timn/tmp/g03.e01/Gau-32582.inp -scrdir=/home/timn/tmp/g03.e01/
 Default is to use a total of   2 processors:
                                2 via shared-memory
                                1 via Linda
 Entering Link 1 = /home/timn/tmp/g03.e01/l1.exe PID=     32583.
  
 Copyright (c) 1988,1990,1992,1993,1995,1998,2003,2004,2007, Gaussian, Inc.
                  All Rights Reserved.
  
 This is the Gaussian(R) 03 program.  It is based on the
 the Gaussian(R) 98 system (copyright 1998, Gaussian, Inc.),
 the Gaussian(R) 94 system (copyright 1995, Gaussian, Inc.),
 the Gaussian 92(TM) system (copyright 1992, Gaussian, Inc.),
 the Gaussian 90(TM) system (copyright 1990, Gaussian, Inc.),
 the Gaussian 88(TM) system (copyright 1988, Gaussian, Inc.),
 the Gaussian 86(TM) system (copyright 1986, Carnegie Mellon
 University), and the Gaussian 82(TM) system (copyright 1983,
 Carnegie Mellon University). Gaussian is a federally registered
 trademark of Gaussian, Inc.
  
 This software contains proprietary and confidential information,
 including trade secrets, belonging to Gaussian, Inc.
  
 This software is provided under written license and may be
 used, copied, transmitted, or stored only in accord with that
 written license.
  
 The following legend is applicable only to US Government
 contracts under FAR:
  
                    RESTRICTED RIGHTS LEGEND
  
 Use, reproduction and disclosure by the US Government is
 subject to restrictions as set forth in subparagraphs (a)
 and (c) of the Commercial Computer Software - Restricted
 Rights clause in FAR 52.227-19.
  
 Gaussian, Inc.
 340 Quinnipiac St., Bldg. 40, Wallingford CT 06492
  
  
 ---------------------------------------------------------------
 Warning -- This program may not be used in any manner that
 competes with the business of Gaussian, Inc. or will provide
 assistance to any competitor of Gaussian, Inc.  The licensee
 of this program is prohibited from giving any competitor of
 Gaussian, Inc. access to this program.  By using this program,
 the user acknowledges that Gaussian, Inc. is engaged in the
 business of creating and licensing software in the field of
 computational chemistry and represents and warrants to the
 licensee that it is not a competitor of Gaussian, Inc. and that
 it will not use this program in any manner prohibited above.
 ---------------------------------------------------------------
  

 Cite this work as:
 Gaussian 03, Revision E.01,
 M. J. Frisch, G. W. Trucks, H. B. Schlegel, G. E. Scuseria, 
 M. A. Robb, J. R. Cheeseman, J. A. Montgomery, Jr., T. Vreven, 
 K. N. Kudin, J. C. Burant, J. M. Millam, S. S. Iyengar, J. Tomasi, 
 V. Barone, B. Mennucci, M. Cossi, G. Scalmani, N. Rega, 
 G. A. Petersson, H. Nakatsuji, M. Hada, M. Ehara, K. Toyota, 
 R. Fukuda, J. Hasegawa, M. Ishida, T. Nakajima, Y. Honda, O. Kitao, 
 H. Nakai, M. Klene, X. Li, J. E. Knox, H. P. Hratchian, J. B. Cross, 
 V. Bakken, C. Adamo, J. Jaramillo, R. Gomperts, R. E. Stratmann, 
 O. Yazyev, A. J. Austin, R. Cammi, C. Pomelli, J. W. Ochterski, 
 P. Y. Ayala, K. Morokuma, G. A. Voth, P. Salvador, J. J. Dannenberg, 
 V. G. Zakrzewski, S. Dapprich, A. D. Daniels, M. C. Strain, 
 O. Farkas, D. K. Malick, A. D. Rabuck, K. Raghavachari, 
 J. B. Foresman, J. V. Ortiz, Q. Cui, A. G. Baboul, S. Clifford, 
 J. Cioslowski, B. B. Stefanov, G. Liu, A. Liashenko, P. Piskorz, 
 I. Komaromi, R. L. Martin, D. J. Fox, T. Keith, M. A. Al-Laham, 
 C. Y. Peng, A. Nanayakkara, M. Challacombe, P. M. W. Gill, 
 B. Johnson, W. Chen, M. W. Wong, C. Gonzalez, and J. A. Pople, 
 Gaussian, Inc., Wallingford CT, 2004.
 
 ******************************************
 Gaussian 03:  EM64T-G03RevE.01 11-Sep-2007
                 4-May-2015 
 ******************************************
 %nproc=2
 Will use up to    2 processors via shared memory.
 Default route:  MP2=Direct MaxDisk=2000MB
 -------------------------------------
 # b3lyp/6-31G(d,p) pop=(ReadRadii,MK)
 -------------------------------------
 1/38=1/1;
 2/17=6,18=5,40=1/2;
 3/5=1,6=6,7=101,11=2,16=1,25=1,30=1,74=-5/1,2,3;
 4//1;
 5/5=2,32=1,38=5/2;
 6/7=2,8=2,9=2,10=2,15=8,20=101,28=1/1,2;
 99/5=1,9=1/99;
 ----------
 Ca3PO4_116
 ----------
 Symbolic Z-matrix:
 Charge =  0 Multiplicity = 1
 O                    -2.89253  -0.23781  -0.09666 
 O                    -2.09446  -0.21474   1.15952 
 O                    -1.94956  -0.54385  -1.2075 
 O                     0.809     0.20129   0.03481 
 P                     1.59319   1.78077   0.19133 
 Ca                    2.88512  -0.83522  -0.20615 
 Ca                   -1.19253   1.41913  -0.22951 
 Ca                   -0.5168   -1.69672   0.25471 
 H                     1.60675   1.90552   1.62757 
 
                          Input orientation:                          
 ---------------------------------------------------------------------
 Center     Atomic     Atomic              Coordinates (Angstroms)
 Number     Number      Type              X           Y           Z
 ---------------------------------------------------------------------
    1          8             0       -2.892530   -0.237807   -0.096658
    2          8             0       -2.094460   -0.214741    1.159520
    3          8             0       -1.949560   -0.543846   -1.207500
    4          8             0        0.808995    0.201290    0.034814
    5         15             0        1.593190    1.780770    0.191333
    6         20             0        2.885120   -0.835218   -0.206145
    7         20             0       -1.192530    1.419130   -0.229506
    8         20             0       -0.516797   -1.696720    0.254705
    9          1             0        1.606750    1.905520    1.627570
 ---------------------------------------------------------------------
                    Distance matrix (angstroms):
                    1          2          3          4          5
     1  O    0.000000
     2  O    1.488432   0.000000
     3  O    1.488900   2.394178   0.000000
     4  O    3.729796   3.141353   3.115798   0.000000
     5  P    4.927401   4.303279   4.462247   1.770372   0.000000
     6  Ca   5.809486   5.200601   4.945881   2.332961   2.944565
     7  Ca   2.377623   2.326458   2.320095   2.357775   2.840444
     8  Ca   2.809980   2.346055   2.349462   2.325622   4.068046
     9  H    5.273550   4.291099   5.165690   2.465296   1.441708
                    6          7          8          9
     6  Ca   0.000000
     7  Ca   4.659384   0.000000
     8  Ca   3.539436   3.224841   0.000000
     9  H    3.536720   3.394300   4.401175   0.000000
 Stoichiometry    Ca3HO4P
 Framework group  C1[X(Ca3HO4P)]
 Deg. of freedom    21
 Full point group                 C1
 Largest Abelian subgroup         C1      NOp   1
 Largest concise Abelian subgroup C1      NOp   1
                         Standard orientation:                         
 ---------------------------------------------------------------------
 Center     Atomic     Atomic              Coordinates (Angstroms)
 Number     Number      Type              X           Y           Z
 ---------------------------------------------------------------------
    1          8             0       -2.892530   -0.237806   -0.096658
    2          8             0       -2.094460   -0.214740    1.159520
    3          8             0       -1.949561   -0.543845   -1.207500
    4          8             0        0.808995    0.201289    0.034814
    5         15             0        1.593191    1.780768    0.191333
    6         20             0        2.885119   -0.835221   -0.206145
    7         20             0       -1.192529    1.419130   -0.229506
    8         20             0       -0.516798   -1.696720    0.254705
    9          1             0        1.606751    1.905518    1.627570
 ---------------------------------------------------------------------
 Rotational constants (GHZ):      1.3042500      0.6225547      0.4640904
 Standard basis: 6-31G(d,p) (6D, 7F)
 There are   153 symmetry adapted basis functions of A   symmetry.
 Integral buffers will be    131072 words long.
 Raffenetti 2 integral format.
 Two-electron integral symmetry is turned on.
   153 basis functions,   399 primitive gaussians,   153 cartesian basis functions
    54 alpha electrons       54 beta electrons
       nuclear repulsion energy       873.5050149086 Hartrees.
 NAtoms=    9 NActive=    9 NUniq=    9 SFac= 7.50D-01 NAtFMM=   80 NAOKFM=F Big=F
 One-electron integrals computed using PRISM.
 NBasis=   153 RedAO= T  NBF=   153
 NBsUse=   153 1.00D-06 NBFU=   153
 Harris functional with IExCor=  402 diagonalized for initial guess.
 ExpMin= 2.60D-02 ExpMax= 3.53D+04 ExpMxC= 5.30D+03 IAcc=3 IRadAn=         5 AccDes= 0.00D+00
 HarFok:  IExCor= 402 AccDes= 0.00D+00 IRadAn=         5 IDoV=1
 ScaDFX=  1.000000  1.000000  1.000000  1.000000
 Initial guess orbital symmetries:
       Occupied  (A) (A) (A) (A) (A) (A) (A) (A) (A) (A) (A) (A)
                 (A) (A) (A) (A) (A) (A) (A) (A) (A) (A) (A) (A)
                 (A) (A) (A) (A) (A) (A) (A) (A) (A) (A) (A) (A)
                 (A) (A) (A) (A) (A) (A) (A) (A) (A) (A) (A) (A)
                 (A) (A) (A) (A) (A) (A)
       Virtual   (A) (A) (A) (A) (A) (A) (A) (A) (A) (A) (A) (A)
                 (A) (A) (A) (A) (A) (A) (A) (A) (A) (A) (A) (A)
                 (A) (A) (A) (A) (A) (A) (A) (A) (A) (A) (A) (A)
                 (A) (A) (A) (A) (A) (A) (A) (A) (A) (A) (A) (A)
                 (A) (A) (A) (A) (A) (A) (A) (A) (A) (A) (A) (A)
                 (A) (A) (A) (A) (A) (A) (A) (A) (A) (A) (A) (A)
                 (A) (A) (A) (A) (A) (A) (A) (A) (A) (A) (A) (A)
                 (A) (A) (A) (A) (A) (A) (A) (A) (A) (A) (A) (A)
                 (A) (A) (A)
 The electronic state of the initial guess is 1-A.
 Requested convergence on RMS density matrix=1.00D-04 within 128 cycles.
 Requested convergence on MAX density matrix=1.00D-02.
 Requested convergence on             energy=1.00D-02.
 No special actions if energy rises.
 EnCoef did     3 forward-backward iterations
 SCF Done:  E(RB+HF-LYP) =  -2675.52811975     A.U. after    8 cycles
             Convg  =    0.5710D-04             -V/T =  2.0025
             S**2   =   0.0000

 **********************************************************************

            Population analysis using the SCF density.

 **********************************************************************

 Orbital symmetries:
       Occupied  (A) (A) (A) (A) (A) (A) (A) (A) (A) (A) (A) (A)
                 (A) (A) (A) (A) (A) (A) (A) (A) (A) (A) (A) (A)
                 (A) (A) (A) (A) (A) (A) (A) (A) (A) (A) (A) (A)
                 (A) (A) (A) (A) (A) (A) (A) (A) (A) (A) (A) (A)
                 (A) (A) (A) (A) (A) (A)
       Virtual   (A) (A) (A) (A) (A) (A) (A) (A) (A) (A) (A) (A)
                 (A) (A) (A) (A) (A) (A) (A) (A) (A) (A) (A) (A)
                 (A) (A) (A) (A) (A) (A) (A) (A) (A) (A) (A) (A)
                 (A) (A) (A) (A) (A) (A) (A) (A) (A) (A) (A) (A)
                 (A) (A) (A) (A) (A) (A) (A) (A) (A) (A) (A) (A)
                 (A) (A) (A) (A) (A) (A) (A) (A) (A) (A) (A) (A)
                 (A) (A) (A) (A) (A) (A) (A) (A) (A) (A) (A) (A)
                 (A) (A) (A) (A) (A) (A) (A) (A) (A) (A) (A) (A)
                 (A) (A) (A)
 The electronic state is 1-A.
 Alpha  occ. eigenvalues -- -145.36933-145.36572-145.36228 -77.05774 -19.22435
 Alpha  occ. eigenvalues --  -19.13439 -19.13340 -19.10532 -15.44078 -15.43661
 Alpha  occ. eigenvalues --  -15.43322 -12.57266 -12.57219 -12.57151 -12.56853
 Alpha  occ. eigenvalues --  -12.56839 -12.56745 -12.56508 -12.56490 -12.56413
 Alpha  occ. eigenvalues --   -6.52508  -4.69008  -4.68528  -4.68217  -1.81413
 Alpha  occ. eigenvalues --   -1.81169  -1.80751  -1.11827  -1.09278  -1.08977
 Alpha  occ. eigenvalues --   -1.08804  -1.08773  -1.08601  -1.08296  -1.08189
 Alpha  occ. eigenvalues --   -1.07868  -1.04710  -0.90175  -0.89257  -0.73783
 Alpha  occ. eigenvalues --   -0.55089  -0.43674  -0.41330  -0.40829  -0.37799
 Alpha  occ. eigenvalues --   -0.34159  -0.31842  -0.28711  -0.27431  -0.25609
 Alpha  occ. eigenvalues --   -0.23800  -0.21027  -0.18018  -0.13735
 Alpha virt. eigenvalues --   -0.06994  -0.06483  -0.03158  -0.01533  -0.01294
 Alpha virt. eigenvalues --   -0.00240   0.00689   0.01014   0.02054   0.02615
 Alpha virt. eigenvalues --    0.03994   0.04313   0.05756   0.06436   0.08314
 Alpha virt. eigenvalues --    0.08555   0.09860   0.10763   0.11423   0.12390
 Alpha virt. eigenvalues --    0.13962   0.15163   0.16267   0.17219   0.18991
 Alpha virt. eigenvalues --    0.19534   0.19827   0.20728   0.21336   0.21873
 Alpha virt. eigenvalues --    0.23025   0.24036   0.26512   0.27137   0.29596
 Alpha virt. eigenvalues --    0.29950   0.33584   0.36102   0.36564   0.37576
 Alpha virt. eigenvalues --    0.39837   0.40855   0.41545   0.44670   0.45234
 Alpha virt. eigenvalues --    0.46839   0.52655   0.61158   0.65183   0.72063
 Alpha virt. eigenvalues --    0.74279   0.78996   0.84102   0.87217   0.88749
 Alpha virt. eigenvalues --    0.91374   0.98311   1.04082   1.05366   1.09750
 Alpha virt. eigenvalues --    1.11979   1.13447   1.15822   1.18206   1.20154
 Alpha virt. eigenvalues --    1.34119   1.36769   1.42098   1.45256   1.48574
 Alpha virt. eigenvalues --    1.52545   1.54352   1.63692   1.65073   1.83129
 Alpha virt. eigenvalues --    1.85156   1.87031   1.89469   1.91647   1.93050
 Alpha virt. eigenvalues --    1.96965   1.97953   2.01012   2.01454   2.05075
 Alpha virt. eigenvalues --    2.13874   2.18387   2.35415   2.36519   2.41219
 Alpha virt. eigenvalues --    2.57080   2.71997   3.03073   3.07745   3.58016
 Alpha virt. eigenvalues --    3.65547   3.78443   3.86643   3.98361
          Condensed to atoms (all electrons):
              1          2          3          4          5          6
     1  O    8.132666  -0.006772  -0.007450   0.000191   0.000038   0.003117
     2  O   -0.006772   8.398920  -0.044231  -0.003390  -0.000514  -0.009699
     3  O   -0.007450  -0.044231   8.395711  -0.003567  -0.000545  -0.005407
     4  O    0.000191  -0.003390  -0.003567   8.684397   0.021638   0.061322
     5  P    0.000038  -0.000514  -0.000545   0.021638  14.638825   0.096018
     6  Ca   0.003117  -0.009699  -0.005407   0.061322   0.096018  19.297902
     7  Ca   0.030956   0.099982   0.097263   0.095106   0.127316  -0.023529
     8  Ca  -0.006303   0.106632   0.105999   0.072709   0.000464   0.246055
     9  H    0.000002   0.000007  -0.000004  -0.020441   0.220545   0.002193
              7          8          9
     1  O    0.030956  -0.006303   0.000002
     2  O    0.099982   0.106632   0.000007
     3  O    0.097263   0.105999  -0.000004
     4  O    0.095106   0.072709  -0.020441
     5  P    0.127316   0.000464   0.220545
     6  Ca  -0.023529   0.246055   0.002193
     7  Ca  18.582706  -0.152739   0.007547
     8  Ca  -0.152739  18.811384  -0.006292
     9  H    0.007547  -0.006292   0.849059
 Mulliken atomic charges:
              1
     1  O   -0.146444
     2  O   -0.540935
     3  O   -0.537769
     4  O   -0.907964
     5  P   -0.103784
     6  Ca   0.332029
     7  Ca   1.135391
     8  Ca   0.822091
     9  H   -0.052616
 Sum of Mulliken charges=   0.00000
 Atomic charges with hydrogens summed into heavy atoms:
              1
     1  O   -0.146444
     2  O   -0.540935
     3  O   -0.537769
     4  O   -0.907964
     5  P   -0.156400
     6  Ca   0.332029
     7  Ca   1.135391
     8  Ca   0.822091
     9  H    0.000000
 Sum of Mulliken charges=   0.00000
 Electronic spatial extent (au):  <R**2>=  2255.5515
 Charge=     0.0000 electrons
 Dipole moment (field-independent basis, Debye):
    X=    -0.8084    Y=     2.1551    Z=    -0.5037  Tot=     2.3562
 Quadrupole moment (field-independent basis, Debye-Ang):
   XX=   -98.0466   YY=   -85.2511   ZZ=   -93.4135
   XY=    -7.2507   XZ=     0.1250   YZ=    -4.7991
 Traceless Quadrupole moment (field-independent basis, Debye-Ang):
   XX=    -5.8096   YY=     6.9860   ZZ=    -1.1764
   XY=    -7.2507   XZ=     0.1250   YZ=    -4.7991
 Octapole moment (field-independent basis, Debye-Ang**2):
  XXX=   -29.3979  YYY=    43.8995  ZZZ=    -1.9585  XYY=   -95.4950
  XXY=    35.2962  XXZ=    -5.5831  XZZ=   -17.2044  YZZ=    16.3018
  YYZ=     2.4409  XYZ=     8.8770
 Hexadecapole moment (field-independent basis, Debye-Ang**3):
 XXXX= -2211.3504 YYYY= -1195.5267 ZZZZ=  -332.2138 XXXY=    31.9093
 XXXZ=     8.8340 YYYX=   103.3181 YYYZ=   -14.8629 ZZZX=     6.4970
 ZZZY=   -16.2358 XXYY=  -586.0334 XXZZ=  -445.0626 YYZZ=  -246.3152
 XXYZ=   -11.8353 YYXZ=    11.0772 ZZXY=    18.6189
 N-N= 8.735050149086D+02 E-N=-8.085519266725D+03  KE= 2.668768900499D+03
 Merz-Kollman atomic radii used.
 Read replacement radii for each type of atom:
 Rad(20) =   1.188000000000D+00
 Atom Element Radius
    1     8    1.40
    2     8    1.40
    3     8    1.40
    4     8    1.40
    5    15    1.80
    6    20    1.19
    7    20    1.19
    8    20    1.19
    9     1    1.20

 **********************************************************************

            Electrostatic Properties Using The SCF Density

 **********************************************************************

       Atomic Center    1 is at  -2.892530 -0.237806 -0.096658
       Atomic Center    2 is at  -2.094460 -0.214740  1.159520
       Atomic Center    3 is at  -1.949561 -0.543845 -1.207500
       Atomic Center    4 is at   0.808995  0.201289  0.034814
       Atomic Center    5 is at   1.593191  1.780768  0.191333
       Atomic Center    6 is at   2.885119 -0.835221 -0.206145
       Atomic Center    7 is at  -1.192529  1.419130 -0.229506
       Atomic Center    8 is at  -0.516798 -1.696720  0.254705
       Atomic Center    9 is at   1.606751  1.905518  1.627570
     815 points will be used for fitting atomic charges
 Fitting point charges to eletrostatic potential
 Charges from ESP fit, RMS=   0.02914 RRMS=   0.52641:
 Charge=   0.00000 Dipole=     2.7165    -2.8833    -0.7631 Tot=     4.0342
              1
     1  O   -0.183405
     2  O   -0.527951
     3  O   -0.646713
     4  O   -0.439135
     5  P   -0.692279
     6  Ca   0.389480
     7  Ca   1.324988
     8  Ca   0.782746
     9  H   -0.007732
 -----------------------------------------------------------------

              Electrostatic Properties (Atomic Units)

 -----------------------------------------------------------------
    Center     Electric         -------- Electric Field --------
               Potential          X             Y             Z
 -----------------------------------------------------------------
    1 Atom    -22.253361
    2 Atom    -22.339628
    3 Atom    -22.337725
    4 Atom    -22.359211
    5 Atom    -54.159454
    6 Atom    -80.175621
    7 Atom    -80.176339
    8 Atom    -80.181567
    9 Atom     -1.127429
 -----------------------------------------------------------------
 1\1\GINC-N025\SP\RB3LYP\6-31G(d,p)\Ca3H1O4P1\TIMN\04-May-2015\0\\# b3l
 yp/6-31G(d,p) pop=(ReadRadii,MK)\\Ca3PO4_116\\0,1\O,0,-2.89253,-0.2378
 07,-0.096658\O,0,-2.09446,-0.214741,1.15952\O,0,-1.94956,-0.543846,-1.
 2075\O,0,0.808995,0.20129,0.034814\P,0,1.59319,1.78077,0.191333\Ca,0,2
 .88512,-0.835218,-0.206145\Ca,0,-1.19253,1.41913,-0.229506\Ca,0,-0.516
 797,-1.69672,0.254705\H,0,1.60675,1.90552,1.62757\\Version=EM64T-G03Re
 vE.01\State=1-A\HF=-2675.5281198\RMSD=5.710e-05\Thermal=0.\Dipole=-0.3
 180466,0.8478919,-0.1981753\PG=C01 [X(Ca3H1O4P1)]\\@


 A SLIP OF THE FOOT YOU MAY SOON RECOVER, BUT A SLIP OF THE TONGUE
 YOU MAY NEVER GET OVER. -- BEN FRANKLIN
 Job cpu time:  0 days  0 hours  0 minutes 45.9 seconds.
 File lengths (MBytes):  RWF=     27 Int=      0 D2E=      0 Chk=     10 Scr=      1
 Normal termination of Gaussian 03 at Mon May  4 20:09:29 2015.
