 Entering Gaussian System, Link 0=/home/timn/tmp/g03.e01/g03
 Input=Ca3PO4_4.xyz.gjf
 Output=Ca3PO4_4.xyz.out
 Initial command:
 /home/timn/tmp/g03.e01/l1.exe /home/timn/tmp/g03.e01/Gau-21113.inp -scrdir=/home/timn/tmp/g03.e01/
 Default is to use a total of   2 processors:
                                2 via shared-memory
                                1 via Linda
 Entering Link 1 = /home/timn/tmp/g03.e01/l1.exe PID=     21114.
  
 Copyright (c) 1988,1990,1992,1993,1995,1998,2003,2004,2007, Gaussian, Inc.
                  All Rights Reserved.
  
 This is the Gaussian(R) 03 program.  It is based on the
 the Gaussian(R) 98 system (copyright 1998, Gaussian, Inc.),
 the Gaussian(R) 94 system (copyright 1995, Gaussian, Inc.),
 the Gaussian 92(TM) system (copyright 1992, Gaussian, Inc.),
 the Gaussian 90(TM) system (copyright 1990, Gaussian, Inc.),
 the Gaussian 88(TM) system (copyright 1988, Gaussian, Inc.),
 the Gaussian 86(TM) system (copyright 1986, Carnegie Mellon
 University), and the Gaussian 82(TM) system (copyright 1983,
 Carnegie Mellon University). Gaussian is a federally registered
 trademark of Gaussian, Inc.
  
 This software contains proprietary and confidential information,
 including trade secrets, belonging to Gaussian, Inc.
  
 This software is provided under written license and may be
 used, copied, transmitted, or stored only in accord with that
 written license.
  
 The following legend is applicable only to US Government
 contracts under FAR:
  
                    RESTRICTED RIGHTS LEGEND
  
 Use, reproduction and disclosure by the US Government is
 subject to restrictions as set forth in subparagraphs (a)
 and (c) of the Commercial Computer Software - Restricted
 Rights clause in FAR 52.227-19.
  
 Gaussian, Inc.
 340 Quinnipiac St., Bldg. 40, Wallingford CT 06492
  
  
 ---------------------------------------------------------------
 Warning -- This program may not be used in any manner that
 competes with the business of Gaussian, Inc. or will provide
 assistance to any competitor of Gaussian, Inc.  The licensee
 of this program is prohibited from giving any competitor of
 Gaussian, Inc. access to this program.  By using this program,
 the user acknowledges that Gaussian, Inc. is engaged in the
 business of creating and licensing software in the field of
 computational chemistry and represents and warrants to the
 licensee that it is not a competitor of Gaussian, Inc. and that
 it will not use this program in any manner prohibited above.
 ---------------------------------------------------------------
  

 Cite this work as:
 Gaussian 03, Revision E.01,
 M. J. Frisch, G. W. Trucks, H. B. Schlegel, G. E. Scuseria, 
 M. A. Robb, J. R. Cheeseman, J. A. Montgomery, Jr., T. Vreven, 
 K. N. Kudin, J. C. Burant, J. M. Millam, S. S. Iyengar, J. Tomasi, 
 V. Barone, B. Mennucci, M. Cossi, G. Scalmani, N. Rega, 
 G. A. Petersson, H. Nakatsuji, M. Hada, M. Ehara, K. Toyota, 
 R. Fukuda, J. Hasegawa, M. Ishida, T. Nakajima, Y. Honda, O. Kitao, 
 H. Nakai, M. Klene, X. Li, J. E. Knox, H. P. Hratchian, J. B. Cross, 
 V. Bakken, C. Adamo, J. Jaramillo, R. Gomperts, R. E. Stratmann, 
 O. Yazyev, A. J. Austin, R. Cammi, C. Pomelli, J. W. Ochterski, 
 P. Y. Ayala, K. Morokuma, G. A. Voth, P. Salvador, J. J. Dannenberg, 
 V. G. Zakrzewski, S. Dapprich, A. D. Daniels, M. C. Strain, 
 O. Farkas, D. K. Malick, A. D. Rabuck, K. Raghavachari, 
 J. B. Foresman, J. V. Ortiz, Q. Cui, A. G. Baboul, S. Clifford, 
 J. Cioslowski, B. B. Stefanov, G. Liu, A. Liashenko, P. Piskorz, 
 I. Komaromi, R. L. Martin, D. J. Fox, T. Keith, M. A. Al-Laham, 
 C. Y. Peng, A. Nanayakkara, M. Challacombe, P. M. W. Gill, 
 B. Johnson, W. Chen, M. W. Wong, C. Gonzalez, and J. A. Pople, 
 Gaussian, Inc., Wallingford CT, 2004.
 
 ******************************************
 Gaussian 03:  EM64T-G03RevE.01 11-Sep-2007
                 4-May-2015 
 ******************************************
 %nproc=2
 Will use up to    2 processors via shared memory.
 Default route:  MP2=Direct MaxDisk=2000MB
 -------------------------------------
 # b3lyp/6-31G(d,p) pop=(ReadRadii,MK)
 -------------------------------------
 1/38=1/1;
 2/17=6,18=5,40=1/2;
 3/5=1,6=6,7=101,11=2,16=1,25=1,30=1,74=-5/1,2,3;
 4//1;
 5/5=2,32=1,38=5/2;
 6/7=2,8=2,9=2,10=2,15=8,20=101,28=1/1,2;
 99/5=1,9=1/99;
 --------
 Ca3PO4_4
 --------
 Symbolic Z-matrix:
 Charge =  0 Multiplicity = 1
 O                    -1.83982  -1.59632  -0.55265 
 O                     1.96327   0.7836   -1.03759 
 O                     2.49797   0.79149   0.43582 
 O                    -0.90413   0.12188   1.0241 
 P                    -0.86527  -1.52204   0.72005 
 Ca                   -2.6341    0.51754  -0.46795 
 Ca                    2.16861  -1.32914  -0.29061 
 Ca                    0.50072   1.79234   0.30749 
 H                    -1.46415   2.41056  -0.73684 
 
                          Input orientation:                          
 ---------------------------------------------------------------------
 Center     Atomic     Atomic              Coordinates (Angstroms)
 Number     Number      Type              X           Y           Z
 ---------------------------------------------------------------------
    1          8             0       -1.839820   -1.596320   -0.552652
    2          8             0        1.963270    0.783602   -1.037590
    3          8             0        2.497970    0.791491    0.435815
    4          8             0       -0.904129    0.121880    1.024100
    5         15             0       -0.865267   -1.522040    0.720052
    6         20             0       -2.634100    0.517542   -0.467945
    7         20             0        2.168610   -1.329140   -0.290611
    8         20             0        0.500724    1.792340    0.307488
    9          1             0       -1.464150    2.410560   -0.736839
 ---------------------------------------------------------------------
                    Distance matrix (angstroms):
                    1          2          3          4          5
     1  O    0.000000
     2  O    4.512503   0.000000
     3  O    5.049270   1.567447   0.000000
     4  O    2.512743   3.593107   3.516921   0.000000
     5  P    1.604695   4.050421   4.092014   1.672252   0.000000
     6  Ca   2.259750   4.640161   5.218235   2.318522   2.949577
     7  Ca   4.025862   2.250294   2.265667   3.643576   3.203601
     8  Ca   4.207256   2.228414   2.237668   2.297299   3.608498
     9  H    4.028665   3.805871   4.437893   2.941528   4.236335
                    6          7          8          9
     6  Ca   0.000000
     7  Ca   5.148563   0.000000
     8  Ca   3.471819   3.589318   0.000000
     9  H    2.241563   5.232726   2.309447   0.000000
 Stoichiometry    Ca3HO4P
 Framework group  C1[X(Ca3HO4P)]
 Deg. of freedom    21
 Full point group                 C1
 Largest Abelian subgroup         C1      NOp   1
 Largest concise Abelian subgroup C1      NOp   1
                         Standard orientation:                         
 ---------------------------------------------------------------------
 Center     Atomic     Atomic              Coordinates (Angstroms)
 Number     Number      Type              X           Y           Z
 ---------------------------------------------------------------------
    1          8             0       -1.839818   -1.596321   -0.552652
    2          8             0        1.963271    0.783602   -1.037590
    3          8             0        2.497971    0.791492    0.435815
    4          8             0       -0.904128    0.121879    1.024100
    5         15             0       -0.865265   -1.522041    0.720052
    6         20             0       -2.634099    0.517541   -0.467945
    7         20             0        2.168612   -1.329140   -0.290611
    8         20             0        0.500725    1.792340    0.307488
    9          1             0       -1.464149    2.410559   -0.736839
 ---------------------------------------------------------------------
 Rotational constants (GHZ):      1.1964154      0.6287837      0.4691050
 Standard basis: 6-31G(d,p) (6D, 7F)
 There are   153 symmetry adapted basis functions of A   symmetry.
 Integral buffers will be    131072 words long.
 Raffenetti 2 integral format.
 Two-electron integral symmetry is turned on.
   153 basis functions,   399 primitive gaussians,   153 cartesian basis functions
    54 alpha electrons       54 beta electrons
       nuclear repulsion energy       863.8117154625 Hartrees.
 NAtoms=    9 NActive=    9 NUniq=    9 SFac= 7.50D-01 NAtFMM=   80 NAOKFM=F Big=F
 One-electron integrals computed using PRISM.
 NBasis=   153 RedAO= T  NBF=   153
 NBsUse=   153 1.00D-06 NBFU=   153
 Harris functional with IExCor=  402 diagonalized for initial guess.
 ExpMin= 2.60D-02 ExpMax= 3.53D+04 ExpMxC= 5.30D+03 IAcc=3 IRadAn=         5 AccDes= 0.00D+00
 HarFok:  IExCor= 402 AccDes= 0.00D+00 IRadAn=         5 IDoV=1
 ScaDFX=  1.000000  1.000000  1.000000  1.000000
 Initial guess orbital symmetries:
       Occupied  (A) (A) (A) (A) (A) (A) (A) (A) (A) (A) (A) (A)
                 (A) (A) (A) (A) (A) (A) (A) (A) (A) (A) (A) (A)
                 (A) (A) (A) (A) (A) (A) (A) (A) (A) (A) (A) (A)
                 (A) (A) (A) (A) (A) (A) (A) (A) (A) (A) (A) (A)
                 (A) (A) (A) (A) (A) (A)
       Virtual   (A) (A) (A) (A) (A) (A) (A) (A) (A) (A) (A) (A)
                 (A) (A) (A) (A) (A) (A) (A) (A) (A) (A) (A) (A)
                 (A) (A) (A) (A) (A) (A) (A) (A) (A) (A) (A) (A)
                 (A) (A) (A) (A) (A) (A) (A) (A) (A) (A) (A) (A)
                 (A) (A) (A) (A) (A) (A) (A) (A) (A) (A) (A) (A)
                 (A) (A) (A) (A) (A) (A) (A) (A) (A) (A) (A) (A)
                 (A) (A) (A) (A) (A) (A) (A) (A) (A) (A) (A) (A)
                 (A) (A) (A) (A) (A) (A) (A) (A) (A) (A) (A) (A)
                 (A) (A) (A)
 The electronic state of the initial guess is 1-A.
 Requested convergence on RMS density matrix=1.00D-04 within 128 cycles.
 Requested convergence on MAX density matrix=1.00D-02.
 Requested convergence on             energy=1.00D-02.
 No special actions if energy rises.
 EnCoef did     4 forward-backward iterations
 EnCoef did   100 forward-backward iterations
 EnCoef did     3 forward-backward iterations
 EnCoef did   100 forward-backward iterations
 SCF Done:  E(RB+HF-LYP) =  -2675.61700189     A.U. after   14 cycles
             Convg  =    0.8193D-04             -V/T =  2.0025
             S**2   =   0.0000

 **********************************************************************

            Population analysis using the SCF density.

 **********************************************************************

 Orbital symmetries:
       Occupied  (A) (A) (A) (A) (A) (A) (A) (A) (A) (A) (A) (A)
                 (A) (A) (A) (A) (A) (A) (A) (A) (A) (A) (A) (A)
                 (A) (A) (A) (A) (A) (A) (A) (A) (A) (A) (A) (A)
                 (A) (A) (A) (A) (A) (A) (A) (A) (A) (A) (A) (A)
                 (A) (A) (A) (A) (A) (A)
       Virtual   (A) (A) (A) (A) (A) (A) (A) (A) (A) (A) (A) (A)
                 (A) (A) (A) (A) (A) (A) (A) (A) (A) (A) (A) (A)
                 (A) (A) (A) (A) (A) (A) (A) (A) (A) (A) (A) (A)
                 (A) (A) (A) (A) (A) (A) (A) (A) (A) (A) (A) (A)
                 (A) (A) (A) (A) (A) (A) (A) (A) (A) (A) (A) (A)
                 (A) (A) (A) (A) (A) (A) (A) (A) (A) (A) (A) (A)
                 (A) (A) (A) (A) (A) (A) (A) (A) (A) (A) (A) (A)
                 (A) (A) (A) (A) (A) (A) (A) (A) (A) (A) (A) (A)
                 (A) (A) (A)
 The electronic state is 1-A.
 Alpha  occ. eigenvalues -- -145.37744-145.33946-145.33323 -77.09722 -19.10043
 Alpha  occ. eigenvalues --  -19.08803 -19.08681 -19.08660 -15.44902 -15.41088
 Alpha  occ. eigenvalues --  -15.40494 -12.58119 -12.58048 -12.57963 -12.54288
 Alpha  occ. eigenvalues --  -12.54260 -12.54136 -12.53713 -12.53653 -12.53544
 Alpha  occ. eigenvalues --   -6.55590  -4.71960  -4.71718  -4.71475  -1.82400
 Alpha  occ. eigenvalues --   -1.78554  -1.78172  -1.10231  -1.10163  -1.09504
 Alpha  occ. eigenvalues --   -1.07103  -1.06172  -1.06084  -1.06052  -1.05774
 Alpha  occ. eigenvalues --   -1.05319  -0.93452  -0.91212  -0.88356  -0.72602
 Alpha  occ. eigenvalues --   -0.50028  -0.37321  -0.35382  -0.34113  -0.32400
 Alpha  occ. eigenvalues --   -0.31085  -0.29640  -0.27427  -0.27172  -0.25563
 Alpha  occ. eigenvalues --   -0.24153  -0.19871  -0.17478  -0.11027
 Alpha virt. eigenvalues --   -0.08435  -0.05329  -0.04500  -0.01863  -0.00952
 Alpha virt. eigenvalues --    0.00433   0.01130   0.02072   0.02305   0.03695
 Alpha virt. eigenvalues --    0.04345   0.04939   0.06686   0.08103   0.08664
 Alpha virt. eigenvalues --    0.09485   0.11055   0.12395   0.12566   0.14358
 Alpha virt. eigenvalues --    0.15402   0.15774   0.16277   0.17370   0.18599
 Alpha virt. eigenvalues --    0.19158   0.20947   0.21519   0.23061   0.23365
 Alpha virt. eigenvalues --    0.25252   0.25556   0.27332   0.30499   0.31133
 Alpha virt. eigenvalues --    0.33227   0.35925   0.37206   0.39248   0.40040
 Alpha virt. eigenvalues --    0.40962   0.42421   0.43758   0.45272   0.46987
 Alpha virt. eigenvalues --    0.49029   0.56156   0.58722   0.61236   0.71754
 Alpha virt. eigenvalues --    0.73404   0.77309   0.90950   0.95711   0.96760
 Alpha virt. eigenvalues --    1.01527   1.03725   1.06645   1.09297   1.11844
 Alpha virt. eigenvalues --    1.12786   1.14606   1.21473   1.23150   1.25309
 Alpha virt. eigenvalues --    1.29083   1.30564   1.40260   1.47569   1.55184
 Alpha virt. eigenvalues --    1.60009   1.64122   1.65562   1.84948   1.87060
 Alpha virt. eigenvalues --    1.87442   1.88748   1.90810   1.92899   1.94983
 Alpha virt. eigenvalues --    1.96046   1.97554   1.99461   2.01005   2.04002
 Alpha virt. eigenvalues --    2.10723   2.11391   2.24585   2.26796   2.33229
 Alpha virt. eigenvalues --    2.34683   2.53265   2.71637   3.07535   3.57264
 Alpha virt. eigenvalues --    3.74693   3.82205   3.84652   3.88742
          Condensed to atoms (all electrons):
              1          2          3          4          5          6
     1  O    8.410370   0.000000   0.000002  -0.045705   0.206056   0.181174
     2  O    0.000000   8.377457  -0.005141  -0.000496  -0.002344   0.008858
     3  O    0.000002  -0.005141   8.384697  -0.000606  -0.002604  -0.009557
     4  O   -0.045705  -0.000496  -0.000606   8.546758   0.110201   0.125568
     5  P    0.206056  -0.002344  -0.002604   0.110201  14.050825   0.001416
     6  Ca   0.181174   0.008858  -0.009557   0.125568   0.001416  18.835399
     7  Ca  -0.007679   0.104959   0.105489  -0.006932   0.164048  -0.010002
     8  Ca  -0.010619   0.108080   0.120089   0.117505  -0.022206  -0.239893
     9  H   -0.000250  -0.000572  -0.000065  -0.008822   0.000074   0.170487
              7          8          9
     1  O   -0.007679  -0.010619  -0.000250
     2  O    0.104959   0.108080  -0.000572
     3  O    0.105489   0.120089  -0.000065
     4  O   -0.006932   0.117505  -0.008822
     5  P    0.164048  -0.022206   0.000074
     6  Ca  -0.010002  -0.239893   0.170487
     7  Ca  18.943379  -0.030956   0.004496
     8  Ca  -0.030956  18.827622   0.132091
     9  H    0.004496   0.132091   1.111202
 Mulliken atomic charges:
              1
     1  O   -0.733349
     2  O   -0.590802
     3  O   -0.592305
     4  O   -0.837471
     5  P    0.494534
     6  Ca   0.936550
     7  Ca   0.733197
     8  Ca   0.998287
     9  H   -0.408641
 Sum of Mulliken charges=   0.00000
 Atomic charges with hydrogens summed into heavy atoms:
              1
     1  O   -0.733349
     2  O   -0.590802
     3  O   -0.592305
     4  O   -0.837471
     5  P    0.494534
     6  Ca   0.527909
     7  Ca   0.733197
     8  Ca   0.998287
     9  H    0.000000
 Sum of Mulliken charges=   0.00000
 Electronic spatial extent (au):  <R**2>=  2257.6792
 Charge=     0.0000 electrons
 Dipole moment (field-independent basis, Debye):
    X=    -4.2163    Y=     4.2815    Z=     0.7384  Tot=     6.0542
 Quadrupole moment (field-independent basis, Debye-Ang):
   XX=   -80.4442   YY=   -88.6925   ZZ=   -87.6077
   XY=   -11.0706   XZ=     5.7116   YZ=     7.0576
 Traceless Quadrupole moment (field-independent basis, Debye-Ang):
   XX=     5.1373   YY=    -3.1110   ZZ=    -2.0263
   XY=   -11.0706   XZ=     5.7116   YZ=     7.0576
 Octapole moment (field-independent basis, Debye-Ang**2):
  XXX=   -85.1562  YYY=    65.5290  ZZZ=     2.0008  XYY=    31.7454
  XXY=    -1.4959  XXZ=    -4.0459  XZZ=    -4.6291  YZZ=    11.1466
  YYZ=    27.1121  XYZ=     5.0248
 Hexadecapole moment (field-independent basis, Debye-Ang**3):
 XXXX= -1920.4083 YYYY= -1117.8517 ZZZZ=  -321.8879 XXXY=   -22.6678
 XXXZ=    30.6394 YYYX=   170.3728 YYYZ=    54.1542 ZZZX=    30.5863
 ZZZY=    23.0684 XXYY=  -592.6481 XXZZ=  -381.2593 YYZZ=  -243.7197
 XXYZ=    -3.0487 YYXZ=    -5.7154 ZZXY=    17.0441
 N-N= 8.638117154625D+02 E-N=-8.068395265351D+03  KE= 2.668828623438D+03
 Merz-Kollman atomic radii used.
 Read replacement radii for each type of atom:
 Rad(20) =   1.188000000000D+00
 Atom Element Radius
    1     8    1.40
    2     8    1.40
    3     8    1.40
    4     8    1.40
    5    15    1.80
    6    20    1.19
    7    20    1.19
    8    20    1.19
    9     1    1.20

 **********************************************************************

            Electrostatic Properties Using The SCF Density

 **********************************************************************

       Atomic Center    1 is at  -1.839818 -1.596321 -0.552652
       Atomic Center    2 is at   1.963271  0.783602 -1.037590
       Atomic Center    3 is at   2.497971  0.791492  0.435815
       Atomic Center    4 is at  -0.904128  0.121879  1.024100
       Atomic Center    5 is at  -0.865265 -1.522041  0.720052
       Atomic Center    6 is at  -2.634099  0.517541 -0.467945
       Atomic Center    7 is at   2.168612 -1.329140 -0.290611
       Atomic Center    8 is at   0.500725  1.792340  0.307488
       Atomic Center    9 is at  -1.464149  2.410559 -0.736839
     824 points will be used for fitting atomic charges
 Fitting point charges to eletrostatic potential
 Charges from ESP fit, RMS=   0.01684 RRMS=   0.29018:
 Charge=   0.00000 Dipole=    -3.6935     3.0416    -0.0710 Tot=     4.7852
              1
     1  O   -0.627594
     2  O   -0.652392
     3  O   -0.756949
     4  O   -0.635388
     5  P   -0.330061
     6  Ca   1.348985
     7  Ca   0.910847
     8  Ca   1.553925
     9  H   -0.811373
 -----------------------------------------------------------------

              Electrostatic Properties (Atomic Units)

 -----------------------------------------------------------------
    Center     Electric         -------- Electric Field --------
               Potential          X             Y             Z
 -----------------------------------------------------------------
    1 Atom    -22.382669
    2 Atom    -22.386817
    3 Atom    -22.386869
    4 Atom    -22.361322
    5 Atom    -54.122351
    6 Atom    -80.161276
    7 Atom    -80.209639
    8 Atom    -80.209327
    9 Atom     -1.190263
 -----------------------------------------------------------------
 1\1\GINC-N036\SP\RB3LYP\6-31G(d,p)\Ca3H1O4P1\TIMN\04-May-2015\0\\# b3l
 yp/6-31G(d,p) pop=(ReadRadii,MK)\\Ca3PO4_4\\0,1\O,0,-1.83982,-1.59632,
 -0.552652\O,0,1.96327,0.783602,-1.03759\O,0,2.49797,0.791491,0.435815\
 O,0,-0.904129,0.12188,1.0241\P,0,-0.865267,-1.52204,0.720052\Ca,0,-2.6
 341,0.517542,-0.467945\Ca,0,2.16861,-1.32914,-0.290611\Ca,0,0.500724,1
 .79234,0.307488\H,0,-1.46415,2.41056,-0.736839\\Version=EM64T-G03RevE.
 01\State=1-A\HF=-2675.6170019\RMSD=8.193e-05\Thermal=0.\Dipole=-1.6588
 044,1.6844569,0.2905142\PG=C01 [X(Ca3H1O4P1)]\\@


 I MET A TRAVELLER FROM AN ANTIQUE LAND
 WHO SAID... TWO VAST AND TRUNKLESS LEGS OF STONE
 STAND IN THE DESERT..... NEAR THEM,  ON THE SAND,
 HALF SUNK,  A SHATTERED VISAGE LIES,  WHOSE FROWN,
 AND WRINKLED LIP,  AND SNEER OF COLD COMMAND
 TELL THAT ITS SCULPTOR WELL THOSE PASSIONS READ
 WHICH YET SURVIVE,  STAMPED ON THESE LIFELESS THINGS
 THE HAND THAT MOCKED THEM,  AND THE HEART THAT FED-
 AND ON THE PEDESTAL THESE WORDS APPEAR 
 MY NAME IS OZYMANDIAS, KING OF KINGS--   
 LOOK ON MY WORKS YE MIGHTY AND DESPAIR. 
 NOTHING BESIDE REMAINS,  ROUND THE DECAY 
 OF THAT COLOSSAL WRECK,  BOUNDLESS AND BARE
 THE LONE AND LEVEL SANDS STRETCH FAR AWAY.
                                    SHELLEY
 Job cpu time:  0 days  0 hours  1 minutes 13.4 seconds.
 File lengths (MBytes):  RWF=     27 Int=      0 D2E=      0 Chk=     10 Scr=      1
 Normal termination of Gaussian 03 at Mon May  4 20:12:49 2015.
