 Entering Gaussian System, Link 0=/home/timn/tmp/g03.e01/g03
 Input=Ca3PO4_115.xyz.gjf
 Output=Ca3PO4_115.xyz.out
 Initial command:
 /home/timn/tmp/g03.e01/l1.exe /home/timn/tmp/g03.e01/Gau-11877.inp -scrdir=/home/timn/tmp/g03.e01/
 Default is to use a total of   2 processors:
                                2 via shared-memory
                                1 via Linda
 Entering Link 1 = /home/timn/tmp/g03.e01/l1.exe PID=     11878.
  
 Copyright (c) 1988,1990,1992,1993,1995,1998,2003,2004,2007, Gaussian, Inc.
                  All Rights Reserved.
  
 This is the Gaussian(R) 03 program.  It is based on the
 the Gaussian(R) 98 system (copyright 1998, Gaussian, Inc.),
 the Gaussian(R) 94 system (copyright 1995, Gaussian, Inc.),
 the Gaussian 92(TM) system (copyright 1992, Gaussian, Inc.),
 the Gaussian 90(TM) system (copyright 1990, Gaussian, Inc.),
 the Gaussian 88(TM) system (copyright 1988, Gaussian, Inc.),
 the Gaussian 86(TM) system (copyright 1986, Carnegie Mellon
 University), and the Gaussian 82(TM) system (copyright 1983,
 Carnegie Mellon University). Gaussian is a federally registered
 trademark of Gaussian, Inc.
  
 This software contains proprietary and confidential information,
 including trade secrets, belonging to Gaussian, Inc.
  
 This software is provided under written license and may be
 used, copied, transmitted, or stored only in accord with that
 written license.
  
 The following legend is applicable only to US Government
 contracts under FAR:
  
                    RESTRICTED RIGHTS LEGEND
  
 Use, reproduction and disclosure by the US Government is
 subject to restrictions as set forth in subparagraphs (a)
 and (c) of the Commercial Computer Software - Restricted
 Rights clause in FAR 52.227-19.
  
 Gaussian, Inc.
 340 Quinnipiac St., Bldg. 40, Wallingford CT 06492
  
  
 ---------------------------------------------------------------
 Warning -- This program may not be used in any manner that
 competes with the business of Gaussian, Inc. or will provide
 assistance to any competitor of Gaussian, Inc.  The licensee
 of this program is prohibited from giving any competitor of
 Gaussian, Inc. access to this program.  By using this program,
 the user acknowledges that Gaussian, Inc. is engaged in the
 business of creating and licensing software in the field of
 computational chemistry and represents and warrants to the
 licensee that it is not a competitor of Gaussian, Inc. and that
 it will not use this program in any manner prohibited above.
 ---------------------------------------------------------------
  

 Cite this work as:
 Gaussian 03, Revision E.01,
 M. J. Frisch, G. W. Trucks, H. B. Schlegel, G. E. Scuseria, 
 M. A. Robb, J. R. Cheeseman, J. A. Montgomery, Jr., T. Vreven, 
 K. N. Kudin, J. C. Burant, J. M. Millam, S. S. Iyengar, J. Tomasi, 
 V. Barone, B. Mennucci, M. Cossi, G. Scalmani, N. Rega, 
 G. A. Petersson, H. Nakatsuji, M. Hada, M. Ehara, K. Toyota, 
 R. Fukuda, J. Hasegawa, M. Ishida, T. Nakajima, Y. Honda, O. Kitao, 
 H. Nakai, M. Klene, X. Li, J. E. Knox, H. P. Hratchian, J. B. Cross, 
 V. Bakken, C. Adamo, J. Jaramillo, R. Gomperts, R. E. Stratmann, 
 O. Yazyev, A. J. Austin, R. Cammi, C. Pomelli, J. W. Ochterski, 
 P. Y. Ayala, K. Morokuma, G. A. Voth, P. Salvador, J. J. Dannenberg, 
 V. G. Zakrzewski, S. Dapprich, A. D. Daniels, M. C. Strain, 
 O. Farkas, D. K. Malick, A. D. Rabuck, K. Raghavachari, 
 J. B. Foresman, J. V. Ortiz, Q. Cui, A. G. Baboul, S. Clifford, 
 J. Cioslowski, B. B. Stefanov, G. Liu, A. Liashenko, P. Piskorz, 
 I. Komaromi, R. L. Martin, D. J. Fox, T. Keith, M. A. Al-Laham, 
 C. Y. Peng, A. Nanayakkara, M. Challacombe, P. M. W. Gill, 
 B. Johnson, W. Chen, M. W. Wong, C. Gonzalez, and J. A. Pople, 
 Gaussian, Inc., Wallingford CT, 2004.
 
 ******************************************
 Gaussian 03:  EM64T-G03RevE.01 11-Sep-2007
                 4-May-2015 
 ******************************************
 %nproc=2
 Will use up to    2 processors via shared memory.
 Default route:  MP2=Direct MaxDisk=2000MB
 -------------------------------------
 # b3lyp/6-31G(d,p) pop=(ReadRadii,MK)
 -------------------------------------
 1/38=1/1;
 2/17=6,18=5,40=1/2;
 3/5=1,6=6,7=101,11=2,16=1,25=1,30=1,74=-5/1,2,3;
 4//1;
 5/5=2,32=1,38=5/2;
 6/7=2,8=2,9=2,10=2,15=8,20=101,28=1/1,2;
 99/5=1,9=1/99;
 ----------
 Ca3PO4_115
 ----------
 Symbolic Z-matrix:
 Charge =  0 Multiplicity = 1
 O                     0.63049   0.81383   0.86803 
 O                    -1.72387  -0.45498  -0.91104 
 O                     0.95067   1.65041  -0.41388 
 O                     2.19441  -1.69274  -0.25563 
 P                    -2.95117  -0.66193   0.2748 
 Ca                   -1.29648   1.61019  -0.07504 
 Ca                    2.73771   0.3341    0.0676 
 Ca                    0.05582  -1.51147   0.01902 
 H                    -2.0871   -1.25947   1.34661 
 
                          Input orientation:                          
 ---------------------------------------------------------------------
 Center     Atomic     Atomic              Coordinates (Angstroms)
 Number     Number      Type              X           Y           Z
 ---------------------------------------------------------------------
    1          8             0        0.630490    0.813832    0.868027
    2          8             0       -1.723870   -0.454978   -0.911039
    3          8             0        0.950674    1.650410   -0.413883
    4          8             0        2.194410   -1.692740   -0.255631
    5         15             0       -2.951170   -0.661931    0.274804
    6         20             0       -1.296480    1.610190   -0.075044
    7         20             0        2.737710    0.334095    0.067600
    8         20             0        0.055816   -1.511470    0.019021
    9          1             0       -2.087100   -1.259470    1.346610
 ---------------------------------------------------------------------
                    Distance matrix (angstroms):
                    1          2          3          4          5
     1  O    0.000000
     2  O    3.212159   0.000000
     3  O    1.563865   3.439914   0.000000
     4  O    3.160911   4.161073   3.570515   0.000000
     5  P    3.918938   1.719104   4.587548   5.274554   0.000000
     6  Ca   2.288402   2.268583   2.272912   4.809186   2.832477
     7  Ca   2.304606   4.635307   2.271125   2.123138   5.779131
     8  Ca   2.541277   2.269024   3.314463   2.163765   3.135141
     9  H    3.451510   2.424071   4.560132   4.591974   1.500812
                    6          7          8          9
     6  Ca   0.000000
     7  Ca   4.233610   0.000000
     8  Ca   3.403280   3.255922   0.000000
     9  H    3.298656   5.239667   2.533394   0.000000
 Stoichiometry    Ca3HO4P
 Framework group  C1[X(Ca3HO4P)]
 Deg. of freedom    21
 Full point group                 C1
 Largest Abelian subgroup         C1      NOp   1
 Largest concise Abelian subgroup C1      NOp   1
                         Standard orientation:                         
 ---------------------------------------------------------------------
 Center     Atomic     Atomic              Coordinates (Angstroms)
 Number     Number      Type              X           Y           Z
 ---------------------------------------------------------------------
    1          8             0        0.630491    0.813832    0.868027
    2          8             0       -1.723869   -0.454979   -0.911039
    3          8             0        0.950674    1.650410   -0.413883
    4          8             0        2.194412   -1.692740   -0.255631
    5         15             0       -2.951169   -0.661933    0.274804
    6         20             0       -1.296480    1.610189   -0.075044
    7         20             0        2.737711    0.334095    0.067600
    8         20             0        0.055817   -1.511471    0.019021
    9          1             0       -2.087099   -1.259471    1.346610
 ---------------------------------------------------------------------
 Rotational constants (GHZ):      1.4376537      0.6162967      0.4576919
 Standard basis: 6-31G(d,p) (6D, 7F)
 There are   153 symmetry adapted basis functions of A   symmetry.
 Integral buffers will be    131072 words long.
 Raffenetti 2 integral format.
 Two-electron integral symmetry is turned on.
   153 basis functions,   399 primitive gaussians,   153 cartesian basis functions
    54 alpha electrons       54 beta electrons
       nuclear repulsion energy       876.9335799741 Hartrees.
 NAtoms=    9 NActive=    9 NUniq=    9 SFac= 7.50D-01 NAtFMM=   80 NAOKFM=F Big=F
 One-electron integrals computed using PRISM.
 NBasis=   153 RedAO= T  NBF=   153
 NBsUse=   153 1.00D-06 NBFU=   153
 Harris functional with IExCor=  402 diagonalized for initial guess.
 ExpMin= 2.60D-02 ExpMax= 3.53D+04 ExpMxC= 5.30D+03 IAcc=3 IRadAn=         5 AccDes= 0.00D+00
 HarFok:  IExCor= 402 AccDes= 0.00D+00 IRadAn=         5 IDoV=1
 ScaDFX=  1.000000  1.000000  1.000000  1.000000
 Initial guess orbital symmetries:
       Occupied  (A) (A) (A) (A) (A) (A) (A) (A) (A) (A) (A) (A)
                 (A) (A) (A) (A) (A) (A) (A) (A) (A) (A) (A) (A)
                 (A) (A) (A) (A) (A) (A) (A) (A) (A) (A) (A) (A)
                 (A) (A) (A) (A) (A) (A) (A) (A) (A) (A) (A) (A)
                 (A) (A) (A) (A) (A) (A)
       Virtual   (A) (A) (A) (A) (A) (A) (A) (A) (A) (A) (A) (A)
                 (A) (A) (A) (A) (A) (A) (A) (A) (A) (A) (A) (A)
                 (A) (A) (A) (A) (A) (A) (A) (A) (A) (A) (A) (A)
                 (A) (A) (A) (A) (A) (A) (A) (A) (A) (A) (A) (A)
                 (A) (A) (A) (A) (A) (A) (A) (A) (A) (A) (A) (A)
                 (A) (A) (A) (A) (A) (A) (A) (A) (A) (A) (A) (A)
                 (A) (A) (A) (A) (A) (A) (A) (A) (A) (A) (A) (A)
                 (A) (A) (A) (A) (A) (A) (A) (A) (A) (A) (A) (A)
                 (A) (A) (A)
 The electronic state of the initial guess is 1-A.
 Requested convergence on RMS density matrix=1.00D-04 within 128 cycles.
 Requested convergence on MAX density matrix=1.00D-02.
 Requested convergence on             energy=1.00D-02.
 No special actions if energy rises.
 SCF Done:  E(RB+HF-LYP) =  -2675.61455519     A.U. after    9 cycles
             Convg  =    0.6298D-04             -V/T =  2.0025
             S**2   =   0.0000

 **********************************************************************

            Population analysis using the SCF density.

 **********************************************************************

 Orbital symmetries:
       Occupied  (A) (A) (A) (A) (A) (A) (A) (A) (A) (A) (A) (A)
                 (A) (A) (A) (A) (A) (A) (A) (A) (A) (A) (A) (A)
                 (A) (A) (A) (A) (A) (A) (A) (A) (A) (A) (A) (A)
                 (A) (A) (A) (A) (A) (A) (A) (A) (A) (A) (A) (A)
                 (A) (A) (A) (A) (A) (A)
       Virtual   (A) (A) (A) (A) (A) (A) (A) (A) (A) (A) (A) (A)
                 (A) (A) (A) (A) (A) (A) (A) (A) (A) (A) (A) (A)
                 (A) (A) (A) (A) (A) (A) (A) (A) (A) (A) (A) (A)
                 (A) (A) (A) (A) (A) (A) (A) (A) (A) (A) (A) (A)
                 (A) (A) (A) (A) (A) (A) (A) (A) (A) (A) (A) (A)
                 (A) (A) (A) (A) (A) (A) (A) (A) (A) (A) (A) (A)
                 (A) (A) (A) (A) (A) (A) (A) (A) (A) (A) (A) (A)
                 (A) (A) (A) (A) (A) (A) (A) (A) (A) (A) (A) (A)
                 (A) (A) (A)
 The electronic state is 1-A.
 Alpha  occ. eigenvalues -- -145.34181-145.33475-145.31105 -77.03820 -19.11840
 Alpha  occ. eigenvalues --  -19.11499 -19.06217 -18.98732 -15.41331 -15.40605
 Alpha  occ. eigenvalues --  -15.38251 -12.54539 -12.54486 -12.54402 -12.53812
 Alpha  occ. eigenvalues --  -12.53779 -12.53645 -12.51474 -12.51465 -12.51253
 Alpha  occ. eigenvalues --   -6.50341  -4.66777  -4.66462  -4.66022  -1.78941
 Alpha  occ. eigenvalues --   -1.78249  -1.75898  -1.07556  -1.06739  -1.06554
 Alpha  occ. eigenvalues --   -1.06080  -1.06038  -1.05381  -1.03860  -1.03719
 Alpha  occ. eigenvalues --   -1.02940  -0.94168  -0.86770  -0.75522  -0.72587
 Alpha  occ. eigenvalues --   -0.51622  -0.35710  -0.34742  -0.34243  -0.32593
 Alpha  occ. eigenvalues --   -0.29192  -0.27968  -0.23315  -0.21361  -0.20080
 Alpha  occ. eigenvalues --   -0.18281  -0.16794  -0.16523  -0.12796
 Alpha virt. eigenvalues --   -0.07510  -0.06223  -0.02891  -0.01425   0.00416
 Alpha virt. eigenvalues --    0.01352   0.01984   0.02752   0.03123   0.03809
 Alpha virt. eigenvalues --    0.04603   0.06388   0.06573   0.07027   0.09060
 Alpha virt. eigenvalues --    0.09650   0.11795   0.12338   0.14276   0.14973
 Alpha virt. eigenvalues --    0.17019   0.18230   0.18357   0.20439   0.21273
 Alpha virt. eigenvalues --    0.22129   0.22713   0.23560   0.25238   0.27473
 Alpha virt. eigenvalues --    0.27508   0.28144   0.31032   0.31702   0.33716
 Alpha virt. eigenvalues --    0.36083   0.37617   0.38329   0.40197   0.43413
 Alpha virt. eigenvalues --    0.43949   0.44805   0.45941   0.47075   0.49934
 Alpha virt. eigenvalues --    0.51985   0.55540   0.61983   0.65781   0.74381
 Alpha virt. eigenvalues --    0.77749   0.80519   0.86614   0.94007   0.97610
 Alpha virt. eigenvalues --    1.02596   1.08053   1.08502   1.09570   1.13056
 Alpha virt. eigenvalues --    1.15141   1.18584   1.23627   1.26055   1.27561
 Alpha virt. eigenvalues --    1.31768   1.34736   1.44301   1.45286   1.48509
 Alpha virt. eigenvalues --    1.60510   1.63324   1.63806   1.85020   1.86023
 Alpha virt. eigenvalues --    1.91516   1.93064   1.94928   1.95187   1.97670
 Alpha virt. eigenvalues --    1.98407   1.99080   2.00233   2.01210   2.04213
 Alpha virt. eigenvalues --    2.06773   2.10952   2.13894   2.25045   2.30599
 Alpha virt. eigenvalues --    2.31268   2.50774   2.66339   3.05813   3.61031
 Alpha virt. eigenvalues --    3.76601   3.84010   3.88306   3.89871
          Condensed to atoms (all electrons):
              1          2          3          4          5          6
     1  O    8.391761  -0.002240  -0.007024  -0.004461  -0.002182   0.083522
     2  O   -0.002240   8.558554  -0.000713  -0.000110   0.059685   0.145353
     3  O   -0.007024  -0.000713   8.392850  -0.000377  -0.000142   0.117982
     4  O   -0.004461  -0.000110  -0.000377   8.426904  -0.000153  -0.015943
     5  P   -0.002182   0.059685  -0.000142  -0.000153  14.603887   0.166210
     6  Ca   0.083522   0.145353   0.117982  -0.015943   0.166210  18.686087
     7  Ca   0.079037   0.009683   0.107931   0.251152  -0.006906  -0.061050
     8  Ca   0.072031   0.114897  -0.013375   0.238045   0.013777  -0.180249
     9  H   -0.000497  -0.032522   0.000027  -0.000020   0.116495  -0.005931
              7          8          9
     1  O    0.079037   0.072031  -0.000497
     2  O    0.009683   0.114897  -0.032522
     3  O    0.107931  -0.013375   0.000027
     4  O    0.251152   0.238045  -0.000020
     5  P   -0.006906   0.013777   0.116495
     6  Ca  -0.061050  -0.180249  -0.005931
     7  Ca  18.910734  -0.380361  -0.019158
     8  Ca  -0.380361  19.134387   0.082722
     9  H   -0.019158   0.082722   1.044564
 Mulliken atomic charges:
              1
     1  O   -0.609947
     2  O   -0.852588
     3  O   -0.597159
     4  O   -0.895036
     5  P    0.049329
     6  Ca   1.064017
     7  Ca   1.108938
     8  Ca   0.918126
     9  H   -0.185680
 Sum of Mulliken charges=   0.00000
 Atomic charges with hydrogens summed into heavy atoms:
              1
     1  O   -0.609947
     2  O   -0.852588
     3  O   -0.597159
     4  O   -0.895036
     5  P   -0.136351
     6  Ca   1.064017
     7  Ca   1.108938
     8  Ca   0.918126
     9  H    0.000000
 Sum of Mulliken charges=   0.00000
 Electronic spatial extent (au):  <R**2>=  2213.3497
 Charge=     0.0000 electrons
 Dipole moment (field-independent basis, Debye):
    X=     5.4858    Y=     6.6241    Z=     0.8736  Tot=     8.6450
 Quadrupole moment (field-independent basis, Debye-Ang):
   XX=   -85.1964   YY=   -75.5324   ZZ=   -85.1617
   XY=     5.2879   XZ=     4.8643   YZ=    -5.9921
 Traceless Quadrupole moment (field-independent basis, Debye-Ang):
   XX=    -3.2329   YY=     6.4311   ZZ=    -3.1982
   XY=     5.2879   XZ=     4.8643   YZ=    -5.9921
 Octapole moment (field-independent basis, Debye-Ang**2):
  XXX=   191.2708  YYY=    34.8115  ZZZ=    -7.6972  XYY=   -37.7253
  XXY=    91.5537  XXZ=     2.8538  XZZ=    19.2346  YZZ=     5.1531
  YYZ=    -1.9909  XYZ=     2.9563
 Hexadecapole moment (field-independent basis, Debye-Ang**3):
 XXXX= -1966.5855 YYYY=  -789.9071 ZZZZ=  -228.5478 XXXY=   112.3166
 XXXZ=    68.9065 YYYX=     1.3425 YYYZ=   -14.4774 ZZZX=    22.9264
 ZZZY=   -13.4476 XXYY=  -563.6459 XXZZ=  -375.2958 YYZZ=  -173.9549
 XXYZ=   -26.5146 YYXZ=    27.1671 ZZXY=     1.8383
 N-N= 8.769335799741D+02 E-N=-8.097050187187D+03  KE= 2.668824079084D+03
 Merz-Kollman atomic radii used.
 Read replacement radii for each type of atom:
 Rad(20) =   1.188000000000D+00
 Atom Element Radius
    1     8    1.40
    2     8    1.40
    3     8    1.40
    4     8    1.40
    5    15    1.80
    6    20    1.19
    7    20    1.19
    8    20    1.19
    9     1    1.20

 **********************************************************************

            Electrostatic Properties Using The SCF Density

 **********************************************************************

       Atomic Center    1 is at   0.630491  0.813832  0.868027
       Atomic Center    2 is at  -1.723869 -0.454979 -0.911039
       Atomic Center    3 is at   0.950674  1.650410 -0.413883
       Atomic Center    4 is at   2.194412 -1.692740 -0.255631
       Atomic Center    5 is at  -2.951169 -0.661933  0.274804
       Atomic Center    6 is at  -1.296480  1.610189 -0.075044
       Atomic Center    7 is at   2.737711  0.334095  0.067600
       Atomic Center    8 is at   0.055817 -1.511471  0.019021
       Atomic Center    9 is at  -2.087099 -1.259471  1.346610
     840 points will be used for fitting atomic charges
 Fitting point charges to eletrostatic potential
 Charges from ESP fit, RMS=   0.01096 RRMS=   0.18440:
 Charge=   0.00000 Dipole=     5.9896     7.4752     1.2606 Tot=     9.6615
              1
     1  O   -0.896474
     2  O   -0.689422
     3  O   -0.713922
     4  O   -1.427740
     5  P   -0.607222
     6  Ca   1.326663
     7  Ca   1.497320
     8  Ca   1.594762
     9  H   -0.083965
 -----------------------------------------------------------------

              Electrostatic Properties (Atomic Units)

 -----------------------------------------------------------------
    Center     Electric         -------- Electric Field --------
               Potential          X             Y             Z
 -----------------------------------------------------------------
    1 Atom    -22.349989
    2 Atom    -22.397681
    3 Atom    -22.352781
    4 Atom    -22.475343
    5 Atom    -54.175657
    6 Atom    -80.201323
    7 Atom    -80.208147
    8 Atom    -80.230403
    9 Atom     -1.144304
 -----------------------------------------------------------------
 1\1\GINC-N038\SP\RB3LYP\6-31G(d,p)\Ca3H1O4P1\TIMN\04-May-2015\0\\# b3l
 yp/6-31G(d,p) pop=(ReadRadii,MK)\\Ca3PO4_115\\0,1\O,0,0.63049,0.813832
 ,0.868027\O,0,-1.72387,-0.454978,-0.911039\O,0,0.950674,1.65041,-0.413
 883\O,0,2.19441,-1.69274,-0.255631\P,0,-2.95117,-0.661931,0.274804\Ca,
 0,-1.29648,1.61019,-0.075044\Ca,0,2.73771,0.334095,0.0676\Ca,0,0.05581
 6,-1.51147,0.019021\H,0,-2.0871,-1.25947,1.34661\\Version=EM64T-G03Rev
 E.01\State=1-A\HF=-2675.6145552\RMSD=6.298e-05\Thermal=0.\Dipole=2.158
 2915,2.6061058,0.3436908\PG=C01 [X(Ca3H1O4P1)]\\@


 MY DESCRIPTION OF EXPERIENCE IS NOT WHAT HAPPENS
 TO A MAN.  EXPERIENCE IS WHAT A MAN DOES WITH WHAT
 HAPPENS TO HIM.
                         - CHUCK KNOX, SEATTLE SEAHAWKS, 1985
 Job cpu time:  0 days  0 hours  0 minutes 50.7 seconds.
 File lengths (MBytes):  RWF=     27 Int=      0 D2E=      0 Chk=     10 Scr=      1
 Normal termination of Gaussian 03 at Mon May  4 20:09:31 2015.
