 Entering Gaussian System, Link 0=/home/timn/tmp/g03.e01/g03
 Input=Ca3PO4_156.xyz.gjf
 Output=Ca3PO4_156.xyz.out
 Initial command:
 /home/timn/tmp/g03.e01/l1.exe /home/timn/tmp/g03.e01/Gau-5734.inp -scrdir=/home/timn/tmp/g03.e01/
 Default is to use a total of   2 processors:
                                2 via shared-memory
                                1 via Linda
 Entering Link 1 = /home/timn/tmp/g03.e01/l1.exe PID=      5735.
  
 Copyright (c) 1988,1990,1992,1993,1995,1998,2003,2004,2007, Gaussian, Inc.
                  All Rights Reserved.
  
 This is the Gaussian(R) 03 program.  It is based on the
 the Gaussian(R) 98 system (copyright 1998, Gaussian, Inc.),
 the Gaussian(R) 94 system (copyright 1995, Gaussian, Inc.),
 the Gaussian 92(TM) system (copyright 1992, Gaussian, Inc.),
 the Gaussian 90(TM) system (copyright 1990, Gaussian, Inc.),
 the Gaussian 88(TM) system (copyright 1988, Gaussian, Inc.),
 the Gaussian 86(TM) system (copyright 1986, Carnegie Mellon
 University), and the Gaussian 82(TM) system (copyright 1983,
 Carnegie Mellon University). Gaussian is a federally registered
 trademark of Gaussian, Inc.
  
 This software contains proprietary and confidential information,
 including trade secrets, belonging to Gaussian, Inc.
  
 This software is provided under written license and may be
 used, copied, transmitted, or stored only in accord with that
 written license.
  
 The following legend is applicable only to US Government
 contracts under FAR:
  
                    RESTRICTED RIGHTS LEGEND
  
 Use, reproduction and disclosure by the US Government is
 subject to restrictions as set forth in subparagraphs (a)
 and (c) of the Commercial Computer Software - Restricted
 Rights clause in FAR 52.227-19.
  
 Gaussian, Inc.
 340 Quinnipiac St., Bldg. 40, Wallingford CT 06492
  
  
 ---------------------------------------------------------------
 Warning -- This program may not be used in any manner that
 competes with the business of Gaussian, Inc. or will provide
 assistance to any competitor of Gaussian, Inc.  The licensee
 of this program is prohibited from giving any competitor of
 Gaussian, Inc. access to this program.  By using this program,
 the user acknowledges that Gaussian, Inc. is engaged in the
 business of creating and licensing software in the field of
 computational chemistry and represents and warrants to the
 licensee that it is not a competitor of Gaussian, Inc. and that
 it will not use this program in any manner prohibited above.
 ---------------------------------------------------------------
  

 Cite this work as:
 Gaussian 03, Revision E.01,
 M. J. Frisch, G. W. Trucks, H. B. Schlegel, G. E. Scuseria, 
 M. A. Robb, J. R. Cheeseman, J. A. Montgomery, Jr., T. Vreven, 
 K. N. Kudin, J. C. Burant, J. M. Millam, S. S. Iyengar, J. Tomasi, 
 V. Barone, B. Mennucci, M. Cossi, G. Scalmani, N. Rega, 
 G. A. Petersson, H. Nakatsuji, M. Hada, M. Ehara, K. Toyota, 
 R. Fukuda, J. Hasegawa, M. Ishida, T. Nakajima, Y. Honda, O. Kitao, 
 H. Nakai, M. Klene, X. Li, J. E. Knox, H. P. Hratchian, J. B. Cross, 
 V. Bakken, C. Adamo, J. Jaramillo, R. Gomperts, R. E. Stratmann, 
 O. Yazyev, A. J. Austin, R. Cammi, C. Pomelli, J. W. Ochterski, 
 P. Y. Ayala, K. Morokuma, G. A. Voth, P. Salvador, J. J. Dannenberg, 
 V. G. Zakrzewski, S. Dapprich, A. D. Daniels, M. C. Strain, 
 O. Farkas, D. K. Malick, A. D. Rabuck, K. Raghavachari, 
 J. B. Foresman, J. V. Ortiz, Q. Cui, A. G. Baboul, S. Clifford, 
 J. Cioslowski, B. B. Stefanov, G. Liu, A. Liashenko, P. Piskorz, 
 I. Komaromi, R. L. Martin, D. J. Fox, T. Keith, M. A. Al-Laham, 
 C. Y. Peng, A. Nanayakkara, M. Challacombe, P. M. W. Gill, 
 B. Johnson, W. Chen, M. W. Wong, C. Gonzalez, and J. A. Pople, 
 Gaussian, Inc., Wallingford CT, 2004.
 
 ******************************************
 Gaussian 03:  EM64T-G03RevE.01 11-Sep-2007
                 4-May-2015 
 ******************************************
 %nproc=2
 Will use up to    2 processors via shared memory.
 Default route:  MP2=Direct MaxDisk=2000MB
 -------------------------------------
 # b3lyp/6-31G(d,p) pop=(ReadRadii,MK)
 -------------------------------------
 1/38=1/1;
 2/17=6,18=5,40=1/2;
 3/5=1,6=6,7=101,11=2,16=1,25=1,30=1,74=-5/1,2,3;
 4//1;
 5/5=2,32=1,38=5/2;
 6/7=2,8=2,9=2,10=2,15=8,20=101,28=1/1,2;
 99/5=1,9=1/99;
 ----------
 Ca3PO4_156
 ----------
 Symbolic Z-matrix:
 Charge =  0 Multiplicity = 1
 O                     1.0687   -0.26287   1.38001 
 O                     0.94112  -2.28252  -0.1516 
 O                    -0.72042  -0.33159  -0.30099 
 O                     1.56778   1.94715  -0.76487 
 P                     0.03149  -1.45378   0.85249 
 Ca                    1.75651  -0.30387  -0.91635 
 Ca                   -2.94628  -0.02824  -0.55041 
 Ca                   -0.07054   1.65752   0.82316 
 H                     1.87647   2.73712  -1.21583 
 
                          Input orientation:                          
 ---------------------------------------------------------------------
 Center     Atomic     Atomic              Coordinates (Angstroms)
 Number     Number      Type              X           Y           Z
 ---------------------------------------------------------------------
    1          8             0        1.068700   -0.262869    1.380010
    2          8             0        0.941115   -2.282520   -0.151597
    3          8             0       -0.720417   -0.331585   -0.300985
    4          8             0        1.567780    1.947150   -0.764874
    5         15             0        0.031488   -1.453780    0.852491
    6         20             0        1.756510   -0.303870   -0.916352
    7         20             0       -2.946280   -0.028236   -0.550409
    8         20             0       -0.070543    1.657520    0.823163
    9          1             0        1.876470    2.737120   -1.215830
 ---------------------------------------------------------------------
                    Distance matrix (angstroms):
                    1          2          3          4          5
     1  O    0.000000
     2  O    2.537930   0.000000
     3  O    2.455892   2.566935   0.000000
     4  O    3.119903   4.319598   3.262464   0.000000
     5  P    1.665039   1.588214   1.776285   4.067233   0.000000
     6  Ca   2.397507   2.272614   2.552374   2.263991   2.725215
     7  Ca   4.461125   4.511395   2.260243   4.932026   3.587117
     8  Ca   2.301271   4.183004   2.375412   2.299967   3.113111
     9  H    4.048557   5.215771   4.122828   0.960575   5.024495
                    6          7          8          9
     6  Ca   0.000000
     7  Ca   4.725053   0.000000
     8  Ca   3.195479   3.605321   0.000000
     9  H    3.058055   5.599009   3.018922   0.000000
 Stoichiometry    Ca3HO4P
 Framework group  C1[X(Ca3HO4P)]
 Deg. of freedom    21
 Full point group                 C1
 Largest Abelian subgroup         C1      NOp   1
 Largest concise Abelian subgroup C1      NOp   1
                         Standard orientation:                         
 ---------------------------------------------------------------------
 Center     Atomic     Atomic              Coordinates (Angstroms)
 Number     Number      Type              X           Y           Z
 ---------------------------------------------------------------------
    1          8             0        1.068700   -0.262871    1.380010
    2          8             0        0.941114   -2.282522   -0.151597
    3          8             0       -0.720417   -0.331585   -0.300985
    4          8             0        1.567782    1.947148   -0.764874
    5         15             0        0.031487   -1.453781    0.852491
    6         20             0        1.756510   -0.303872   -0.916352
    7         20             0       -2.946280   -0.028235   -0.550409
    8         20             0       -0.070541    1.657519    0.823163
    9          1             0        1.876472    2.737118   -1.215830
 ---------------------------------------------------------------------
 Rotational constants (GHZ):      1.0718328      0.7298274      0.5695504
 Standard basis: 6-31G(d,p) (6D, 7F)
 There are   153 symmetry adapted basis functions of A   symmetry.
 Integral buffers will be    131072 words long.
 Raffenetti 2 integral format.
 Two-electron integral symmetry is turned on.
   153 basis functions,   399 primitive gaussians,   153 cartesian basis functions
    54 alpha electrons       54 beta electrons
       nuclear repulsion energy       904.8746246747 Hartrees.
 NAtoms=    9 NActive=    9 NUniq=    9 SFac= 7.50D-01 NAtFMM=   80 NAOKFM=F Big=F
 One-electron integrals computed using PRISM.
 NBasis=   153 RedAO= T  NBF=   153
 NBsUse=   153 1.00D-06 NBFU=   153
 Harris functional with IExCor=  402 diagonalized for initial guess.
 ExpMin= 2.60D-02 ExpMax= 3.53D+04 ExpMxC= 5.30D+03 IAcc=3 IRadAn=         5 AccDes= 0.00D+00
 HarFok:  IExCor= 402 AccDes= 0.00D+00 IRadAn=         5 IDoV=1
 ScaDFX=  1.000000  1.000000  1.000000  1.000000
 Initial guess orbital symmetries:
       Occupied  (A) (A) (A) (A) (A) (A) (A) (A) (A) (A) (A) (A)
                 (A) (A) (A) (A) (A) (A) (A) (A) (A) (A) (A) (A)
                 (A) (A) (A) (A) (A) (A) (A) (A) (A) (A) (A) (A)
                 (A) (A) (A) (A) (A) (A) (A) (A) (A) (A) (A) (A)
                 (A) (A) (A) (A) (A) (A)
       Virtual   (A) (A) (A) (A) (A) (A) (A) (A) (A) (A) (A) (A)
                 (A) (A) (A) (A) (A) (A) (A) (A) (A) (A) (A) (A)
                 (A) (A) (A) (A) (A) (A) (A) (A) (A) (A) (A) (A)
                 (A) (A) (A) (A) (A) (A) (A) (A) (A) (A) (A) (A)
                 (A) (A) (A) (A) (A) (A) (A) (A) (A) (A) (A) (A)
                 (A) (A) (A) (A) (A) (A) (A) (A) (A) (A) (A) (A)
                 (A) (A) (A) (A) (A) (A) (A) (A) (A) (A) (A) (A)
                 (A) (A) (A) (A) (A) (A) (A) (A) (A) (A) (A) (A)
                 (A) (A) (A)
 The electronic state of the initial guess is 1-A.
 Requested convergence on RMS density matrix=1.00D-04 within 128 cycles.
 Requested convergence on MAX density matrix=1.00D-02.
 Requested convergence on             energy=1.00D-02.
 No special actions if energy rises.
 EnCoef did     3 forward-backward iterations
 EnCoef did     3 forward-backward iterations
 EnCoef did   100 forward-backward iterations
 SCF Done:  E(RB+HF-LYP) =  -2675.78580480     A.U. after   11 cycles
             Convg  =    0.4615D-04             -V/T =  2.0026
             S**2   =   0.0000

 **********************************************************************

            Population analysis using the SCF density.

 **********************************************************************

 Orbital symmetries:
       Occupied  (A) (A) (A) (A) (A) (A) (A) (A) (A) (A) (A) (A)
                 (A) (A) (A) (A) (A) (A) (A) (A) (A) (A) (A) (A)
                 (A) (A) (A) (A) (A) (A) (A) (A) (A) (A) (A) (A)
                 (A) (A) (A) (A) (A) (A) (A) (A) (A) (A) (A) (A)
                 (A) (A) (A) (A) (A) (A)
       Virtual   (A) (A) (A) (A) (A) (A) (A) (A) (A) (A) (A) (A)
                 (A) (A) (A) (A) (A) (A) (A) (A) (A) (A) (A) (A)
                 (A) (A) (A) (A) (A) (A) (A) (A) (A) (A) (A) (A)
                 (A) (A) (A) (A) (A) (A) (A) (A) (A) (A) (A) (A)
                 (A) (A) (A) (A) (A) (A) (A) (A) (A) (A) (A) (A)
                 (A) (A) (A) (A) (A) (A) (A) (A) (A) (A) (A) (A)
                 (A) (A) (A) (A) (A) (A) (A) (A) (A) (A) (A) (A)
                 (A) (A) (A) (A) (A) (A) (A) (A) (A) (A) (A) (A)
                 (A) (A) (A)
 The electronic state is 1-A.
 Alpha  occ. eigenvalues -- -145.36376-145.35381-145.35291 -77.10316 -19.10535
 Alpha  occ. eigenvalues --  -19.08231 -19.06327 -19.05271 -15.43534 -15.42507
 Alpha  occ. eigenvalues --  -15.42402 -12.56716 -12.56706 -12.56572 -12.55694
 Alpha  occ. eigenvalues --  -12.55634 -12.55627 -12.55619 -12.55597 -12.55431
 Alpha  occ. eigenvalues --   -6.55578  -4.72001  -4.71861  -4.71397  -1.80876
 Alpha  occ. eigenvalues --   -1.80070  -1.79944  -1.08736  -1.08443  -1.08395
 Alpha  occ. eigenvalues --   -1.08053  -1.07809  -1.07638  -1.07514  -1.07329
 Alpha  occ. eigenvalues --   -1.06963  -0.92641  -0.91815  -0.86046  -0.85548
 Alpha  occ. eigenvalues --   -0.48068  -0.43817  -0.36268  -0.35007  -0.34397
 Alpha  occ. eigenvalues --   -0.30492  -0.29258  -0.28593  -0.27332  -0.24488
 Alpha  occ. eigenvalues --   -0.23436  -0.21742  -0.18143  -0.13086
 Alpha virt. eigenvalues --   -0.07537  -0.06424  -0.02776  -0.02410  -0.00244
 Alpha virt. eigenvalues --    0.00225   0.00547   0.01392   0.02742   0.03978
 Alpha virt. eigenvalues --    0.04954   0.06634   0.08845   0.09371   0.10446
 Alpha virt. eigenvalues --    0.10848   0.12093   0.12647   0.13902   0.14765
 Alpha virt. eigenvalues --    0.15461   0.16566   0.17906   0.17998   0.19615
 Alpha virt. eigenvalues --    0.19984   0.20447   0.21672   0.22189   0.24019
 Alpha virt. eigenvalues --    0.24209   0.25439   0.26785   0.28202   0.29589
 Alpha virt. eigenvalues --    0.32749   0.33975   0.37366   0.39231   0.40945
 Alpha virt. eigenvalues --    0.41804   0.43641   0.45043   0.46609   0.47534
 Alpha virt. eigenvalues --    0.48996   0.53039   0.57767   0.64654   0.72166
 Alpha virt. eigenvalues --    0.79064   0.86459   0.86697   0.95140   0.95883
 Alpha virt. eigenvalues --    0.99249   1.07175   1.13047   1.13281   1.15694
 Alpha virt. eigenvalues --    1.17469   1.18674   1.20604   1.22689   1.23315
 Alpha virt. eigenvalues --    1.29974   1.35391   1.40995   1.48346   1.53835
 Alpha virt. eigenvalues --    1.65749   1.76462   1.81121   1.83417   1.86313
 Alpha virt. eigenvalues --    1.87895   1.88895   1.90909   1.91209   1.92978
 Alpha virt. eigenvalues --    1.93778   1.97334   2.00339   2.01397   2.07034
 Alpha virt. eigenvalues --    2.12195   2.19840   2.39237   2.39910   2.62533
 Alpha virt. eigenvalues --    2.66644   2.67210   2.77743   3.43351   3.62563
 Alpha virt. eigenvalues --    3.80326   3.85479   3.97975   4.16003
          Condensed to atoms (all electrons):
              1          2          3          4          5          6
     1  O    8.512421  -0.040356  -0.051979  -0.003487   0.155361   0.132768
     2  O   -0.040356   8.375036  -0.037118  -0.000076   0.278323   0.170703
     3  O   -0.051979  -0.037118   8.667720  -0.002379   0.080891   0.086183
     4  O   -0.003487  -0.000076  -0.002379   8.339297   0.003502   0.113461
     5  P    0.155361   0.278323   0.080891   0.003502  13.533839  -0.042591
     6  Ca   0.132768   0.170703   0.086183   0.113461  -0.042591  18.699651
     7  Ca  -0.009828  -0.005625   0.067594  -0.019185   0.032617   0.060801
     8  Ca   0.134471   0.004007   0.093362   0.141645   0.001344  -0.225791
     9  H    0.000117   0.000001   0.000032   0.276718  -0.000132  -0.007392
              7          8          9
     1  O   -0.009828   0.134471   0.000117
     2  O   -0.005625   0.004007   0.000001
     3  O    0.067594   0.093362   0.000032
     4  O   -0.019185   0.141645   0.276718
     5  P    0.032617   0.001344  -0.000132
     6  Ca   0.060801  -0.225791  -0.007392
     7  Ca  19.643764   0.005381   0.000331
     8  Ca   0.005381  19.011843  -0.006653
     9  H    0.000331  -0.006653   0.442383
 Mulliken atomic charges:
              1
     1  O   -0.829489
     2  O   -0.744896
     3  O   -0.904306
     4  O   -0.849497
     5  P    0.956845
     6  Ca   1.012205
     7  Ca   0.224151
     8  Ca   0.840392
     9  H    0.294593
 Sum of Mulliken charges=   0.00000
 Atomic charges with hydrogens summed into heavy atoms:
              1
     1  O   -0.829489
     2  O   -0.744896
     3  O   -0.904306
     4  O   -0.554903
     5  P    0.956845
     6  Ca   1.012205
     7  Ca   0.224151
     8  Ca   0.840392
     9  H    0.000000
 Sum of Mulliken charges=   0.00000
 Electronic spatial extent (au):  <R**2>=  2047.0817
 Charge=     0.0000 electrons
 Dipole moment (field-independent basis, Debye):
    X=     3.8585    Y=     4.6636    Z=    -4.0524  Tot=     7.2841
 Quadrupole moment (field-independent basis, Debye-Ang):
   XX=   -83.8021   YY=   -96.9003   ZZ=   -84.4077
   XY=    10.7302   XZ=   -10.8699   YZ=     8.8266
 Traceless Quadrupole moment (field-independent basis, Debye-Ang):
   XX=     4.5679   YY=    -8.5302   ZZ=     3.9623
   XY=    10.7302   XZ=   -10.8699   YZ=     8.8266
 Octapole moment (field-independent basis, Debye-Ang**2):
  XXX=   150.3185  YYY=    34.9294  ZZZ=   -20.0243  XYY=    32.9612
  XXY=   -42.8228  XXZ=   -29.8665  XZZ=    42.9238  YZZ=     1.8569
  YYZ=     7.4462  XYZ=     0.9774
 Hexadecapole moment (field-independent basis, Debye-Ang**3):
 XXXX= -1938.2373 YYYY= -1057.0242 ZZZZ=  -512.7054 XXXY=   142.6778
 XXXZ=  -104.6207 YYYX=   143.1549 YYYZ=    -4.4583 ZZZX=   -72.6632
 ZZZY=    20.8155 XXYY=  -520.6314 XXZZ=  -390.6342 YYZZ=  -241.0854
 XXYZ=    12.2892 YYXZ=   -12.7731 ZZXY=    26.1944
 N-N= 9.048746246747D+02 E-N=-8.150037808828D+03  KE= 2.668875877785D+03
 Merz-Kollman atomic radii used.
 Read replacement radii for each type of atom:
 Rad(20) =   1.188000000000D+00
 Atom Element Radius
    1     8    1.40
    2     8    1.40
    3     8    1.40
    4     8    1.40
    5    15    1.80
    6    20    1.19
    7    20    1.19
    8    20    1.19
    9     1    1.20

 **********************************************************************

            Electrostatic Properties Using The SCF Density

 **********************************************************************

       Atomic Center    1 is at   1.068700 -0.262871  1.380010
       Atomic Center    2 is at   0.941114 -2.282522 -0.151597
       Atomic Center    3 is at  -0.720417 -0.331585 -0.300985
       Atomic Center    4 is at   1.567782  1.947148 -0.764874
       Atomic Center    5 is at   0.031487 -1.453781  0.852491
       Atomic Center    6 is at   1.756510 -0.303872 -0.916352
       Atomic Center    7 is at  -2.946280 -0.028235 -0.550409
       Atomic Center    8 is at  -0.070541  1.657519  0.823163
       Atomic Center    9 is at   1.876472  2.737118 -1.215830
     769 points will be used for fitting atomic charges
 Fitting point charges to eletrostatic potential
 Charges from ESP fit, RMS=   0.03150 RRMS=   0.50673:
 Charge=   0.00000 Dipole=    -3.0063     7.5441    -4.0696 Tot=     9.0837
              1
     1  O   -0.599830
     2  O   -0.713248
     3  O   -0.419487
     4  O   -0.817416
     5  P   -0.038135
     6  Ca   1.380649
     7  Ca   0.291944
     8  Ca   0.830002
     9  H    0.085522
 -----------------------------------------------------------------

              Electrostatic Properties (Atomic Units)

 -----------------------------------------------------------------
    Center     Electric         -------- Electric Field --------
               Potential          X             Y             Z
 -----------------------------------------------------------------
    1 Atom    -22.399750
    2 Atom    -22.412815
    3 Atom    -22.381574
    4 Atom    -22.353291
    5 Atom    -54.112178
    6 Atom    -80.189848
    7 Atom    -80.180479
    8 Atom    -80.189478
    9 Atom     -1.030269
 -----------------------------------------------------------------
 1\1\GINC-N027\SP\RB3LYP\6-31G(d,p)\Ca3H1O4P1\TIMN\04-May-2015\0\\# b3l
 yp/6-31G(d,p) pop=(ReadRadii,MK)\\Ca3PO4_156\\0,1\O,0,1.0687,-0.262869
 ,1.38001\O,0,0.941115,-2.28252,-0.151597\O,0,-0.720417,-0.331585,-0.30
 0985\O,0,1.56778,1.94715,-0.764874\P,0,0.031488,-1.45378,0.852491\Ca,0
 ,1.75651,-0.30387,-0.916352\Ca,0,-2.94628,-0.028236,-0.550409\Ca,0,-0.
 070543,1.65752,0.823163\H,0,1.87647,2.73712,-1.21583\\Version=EM64T-G0
 3RevE.01\State=1-A\HF=-2675.7858048\RMSD=4.615e-05\Thermal=0.\Dipole=1
 .5180505,1.8347941,-1.5943256\PG=C01 [X(Ca3H1O4P1)]\\@


  DISAPPOINTMENT IS THE NURSE OF WISDOM.               
                              SIR BOYLE ROCHE                 
 Job cpu time:  0 days  0 hours  1 minutes  3.3 seconds.
 File lengths (MBytes):  RWF=     27 Int=      0 D2E=      0 Chk=     10 Scr=      1
 Normal termination of Gaussian 03 at Mon May  4 20:10:37 2015.
