 Entering Gaussian System, Link 0=/home/timn/tmp/g03.e01/g03
 Input=Ca3PO4_111.xyz.gjf
 Output=Ca3PO4_111.xyz.out
 Initial command:
 /home/timn/tmp/g03.e01/l1.exe /home/timn/tmp/g03.e01/Gau-30724.inp -scrdir=/home/timn/tmp/g03.e01/
 Default is to use a total of   2 processors:
                                2 via shared-memory
                                1 via Linda
 Entering Link 1 = /home/timn/tmp/g03.e01/l1.exe PID=     30725.
  
 Copyright (c) 1988,1990,1992,1993,1995,1998,2003,2004,2007, Gaussian, Inc.
                  All Rights Reserved.
  
 This is the Gaussian(R) 03 program.  It is based on the
 the Gaussian(R) 98 system (copyright 1998, Gaussian, Inc.),
 the Gaussian(R) 94 system (copyright 1995, Gaussian, Inc.),
 the Gaussian 92(TM) system (copyright 1992, Gaussian, Inc.),
 the Gaussian 90(TM) system (copyright 1990, Gaussian, Inc.),
 the Gaussian 88(TM) system (copyright 1988, Gaussian, Inc.),
 the Gaussian 86(TM) system (copyright 1986, Carnegie Mellon
 University), and the Gaussian 82(TM) system (copyright 1983,
 Carnegie Mellon University). Gaussian is a federally registered
 trademark of Gaussian, Inc.
  
 This software contains proprietary and confidential information,
 including trade secrets, belonging to Gaussian, Inc.
  
 This software is provided under written license and may be
 used, copied, transmitted, or stored only in accord with that
 written license.
  
 The following legend is applicable only to US Government
 contracts under FAR:
  
                    RESTRICTED RIGHTS LEGEND
  
 Use, reproduction and disclosure by the US Government is
 subject to restrictions as set forth in subparagraphs (a)
 and (c) of the Commercial Computer Software - Restricted
 Rights clause in FAR 52.227-19.
  
 Gaussian, Inc.
 340 Quinnipiac St., Bldg. 40, Wallingford CT 06492
  
  
 ---------------------------------------------------------------
 Warning -- This program may not be used in any manner that
 competes with the business of Gaussian, Inc. or will provide
 assistance to any competitor of Gaussian, Inc.  The licensee
 of this program is prohibited from giving any competitor of
 Gaussian, Inc. access to this program.  By using this program,
 the user acknowledges that Gaussian, Inc. is engaged in the
 business of creating and licensing software in the field of
 computational chemistry and represents and warrants to the
 licensee that it is not a competitor of Gaussian, Inc. and that
 it will not use this program in any manner prohibited above.
 ---------------------------------------------------------------
  

 Cite this work as:
 Gaussian 03, Revision E.01,
 M. J. Frisch, G. W. Trucks, H. B. Schlegel, G. E. Scuseria, 
 M. A. Robb, J. R. Cheeseman, J. A. Montgomery, Jr., T. Vreven, 
 K. N. Kudin, J. C. Burant, J. M. Millam, S. S. Iyengar, J. Tomasi, 
 V. Barone, B. Mennucci, M. Cossi, G. Scalmani, N. Rega, 
 G. A. Petersson, H. Nakatsuji, M. Hada, M. Ehara, K. Toyota, 
 R. Fukuda, J. Hasegawa, M. Ishida, T. Nakajima, Y. Honda, O. Kitao, 
 H. Nakai, M. Klene, X. Li, J. E. Knox, H. P. Hratchian, J. B. Cross, 
 V. Bakken, C. Adamo, J. Jaramillo, R. Gomperts, R. E. Stratmann, 
 O. Yazyev, A. J. Austin, R. Cammi, C. Pomelli, J. W. Ochterski, 
 P. Y. Ayala, K. Morokuma, G. A. Voth, P. Salvador, J. J. Dannenberg, 
 V. G. Zakrzewski, S. Dapprich, A. D. Daniels, M. C. Strain, 
 O. Farkas, D. K. Malick, A. D. Rabuck, K. Raghavachari, 
 J. B. Foresman, J. V. Ortiz, Q. Cui, A. G. Baboul, S. Clifford, 
 J. Cioslowski, B. B. Stefanov, G. Liu, A. Liashenko, P. Piskorz, 
 I. Komaromi, R. L. Martin, D. J. Fox, T. Keith, M. A. Al-Laham, 
 C. Y. Peng, A. Nanayakkara, M. Challacombe, P. M. W. Gill, 
 B. Johnson, W. Chen, M. W. Wong, C. Gonzalez, and J. A. Pople, 
 Gaussian, Inc., Wallingford CT, 2004.
 
 ******************************************
 Gaussian 03:  EM64T-G03RevE.01 11-Sep-2007
                 4-May-2015 
 ******************************************
 %nproc=2
 Will use up to    2 processors via shared memory.
 Default route:  MP2=Direct MaxDisk=2000MB
 -------------------------------------
 # b3lyp/6-31G(d,p) pop=(ReadRadii,MK)
 -------------------------------------
 1/38=1/1;
 2/17=6,18=5,40=1/2;
 3/5=1,6=6,7=101,11=2,16=1,25=1,30=1,74=-5/1,2,3;
 4//1;
 5/5=2,32=1,38=5/2;
 6/7=2,8=2,9=2,10=2,15=8,20=101,28=1/1,2;
 99/5=1,9=1/99;
 ----------
 Ca3PO4_111
 ----------
 Symbolic Z-matrix:
 Charge =  0 Multiplicity = 1
 O                    -0.5615    1.16954  -0.32489 
 O                    -1.44055  -0.22633   1.58349 
 O                     1.22828   0.03795   1.06921 
 O                    -0.30005  -1.35235  -0.39277 
 P                    -0.2783   -0.11478   0.59903 
 Ca                    1.62276   1.94756  -0.28519 
 Ca                    1.98971  -1.67594  -0.39149 
 Ca                   -2.74384  -0.03712  -0.47471 
 H                    -4.60772   0.00125  -1.43792 
 
                          Input orientation:                          
 ---------------------------------------------------------------------
 Center     Atomic     Atomic              Coordinates (Angstroms)
 Number     Number      Type              X           Y           Z
 ---------------------------------------------------------------------
    1          8             0       -0.561499    1.169540   -0.324885
    2          8             0       -1.440550   -0.226333    1.583490
    3          8             0        1.228280    0.037947    1.069210
    4          8             0       -0.300048   -1.352350   -0.392774
    5         15             0       -0.278297   -0.114778    0.599029
    6         20             0        1.622760    1.947560   -0.285194
    7         20             0        1.989710   -1.675940   -0.391491
    8         20             0       -2.743840   -0.037120   -0.474707
    9          1             0       -4.607720    0.001252   -1.437920
 ---------------------------------------------------------------------
                    Distance matrix (angstroms):
                    1          2          3          4          5
     1  O    0.000000
     2  O    2.522516   0.000000
     3  O    2.535214   2.730747   0.000000
     4  O    2.536315   2.544460   2.531029   0.000000
     5  P    1.607263   1.527233   1.585613   1.586106   0.000000
     6  Ca   2.319025   4.195433   2.374162   3.820755   2.940936
     7  Ca   3.822285   4.215281   2.377148   2.312510   2.926126
     8  Ca   2.498217   2.443469   4.262282   2.776448   2.690324
     9  H    4.356105   4.383113   6.351846   4.634718   4.786076
                    6          7          8          9
     6  Ca   0.000000
     7  Ca   3.643584   0.000000
     8  Ca   4.800215   5.009905   0.000000
     9  H    6.628407   6.887240   2.098404   0.000000
 Stoichiometry    Ca3HO4P
 Framework group  C1[X(Ca3HO4P)]
 Deg. of freedom    21
 Full point group                 C1
 Largest Abelian subgroup         C1      NOp   1
 Largest concise Abelian subgroup C1      NOp   1
                         Standard orientation:                         
 ---------------------------------------------------------------------
 Center     Atomic     Atomic              Coordinates (Angstroms)
 Number     Number      Type              X           Y           Z
 ---------------------------------------------------------------------
    1          8             0       -0.561498    1.169540   -0.324885
    2          8             0       -1.440549   -0.226333    1.583490
    3          8             0        1.228281    0.037947    1.069210
    4          8             0       -0.300047   -1.352350   -0.392774
    5         15             0       -0.278296   -0.114778    0.599029
    6         20             0        1.622761    1.947560   -0.285194
    7         20             0        1.989711   -1.675940   -0.391491
    8         20             0       -2.743839   -0.037121   -0.474707
    9          1             0       -4.607719    0.001251   -1.437920
 ---------------------------------------------------------------------
 Rotational constants (GHZ):      1.2317767      0.6775107      0.5219942
 Standard basis: 6-31G(d,p) (6D, 7F)
 There are   153 symmetry adapted basis functions of A   symmetry.
 Integral buffers will be    131072 words long.
 Raffenetti 2 integral format.
 Two-electron integral symmetry is turned on.
   153 basis functions,   399 primitive gaussians,   153 cartesian basis functions
    54 alpha electrons       54 beta electrons
       nuclear repulsion energy       913.3247892131 Hartrees.
 NAtoms=    9 NActive=    9 NUniq=    9 SFac= 7.50D-01 NAtFMM=   80 NAOKFM=F Big=F
 One-electron integrals computed using PRISM.
 NBasis=   153 RedAO= T  NBF=   153
 NBsUse=   153 1.00D-06 NBFU=   153
 Harris functional with IExCor=  402 diagonalized for initial guess.
 ExpMin= 2.60D-02 ExpMax= 3.53D+04 ExpMxC= 5.30D+03 IAcc=3 IRadAn=         5 AccDes= 0.00D+00
 HarFok:  IExCor= 402 AccDes= 0.00D+00 IRadAn=         5 IDoV=1
 ScaDFX=  1.000000  1.000000  1.000000  1.000000
 Initial guess orbital symmetries:
       Occupied  (A) (A) (A) (A) (A) (A) (A) (A) (A) (A) (A) (A)
                 (A) (A) (A) (A) (A) (A) (A) (A) (A) (A) (A) (A)
                 (A) (A) (A) (A) (A) (A) (A) (A) (A) (A) (A) (A)
                 (A) (A) (A) (A) (A) (A) (A) (A) (A) (A) (A) (A)
                 (A) (A) (A) (A) (A) (A)
       Virtual   (A) (A) (A) (A) (A) (A) (A) (A) (A) (A) (A) (A)
                 (A) (A) (A) (A) (A) (A) (A) (A) (A) (A) (A) (A)
                 (A) (A) (A) (A) (A) (A) (A) (A) (A) (A) (A) (A)
                 (A) (A) (A) (A) (A) (A) (A) (A) (A) (A) (A) (A)
                 (A) (A) (A) (A) (A) (A) (A) (A) (A) (A) (A) (A)
                 (A) (A) (A) (A) (A) (A) (A) (A) (A) (A) (A) (A)
                 (A) (A) (A) (A) (A) (A) (A) (A) (A) (A) (A) (A)
                 (A) (A) (A) (A) (A) (A) (A) (A) (A) (A) (A) (A)
                 (A) (A) (A)
 The electronic state of the initial guess is 1-A.
 Requested convergence on RMS density matrix=1.00D-04 within 128 cycles.
 Requested convergence on MAX density matrix=1.00D-02.
 Requested convergence on             energy=1.00D-02.
 No special actions if energy rises.
 SCF Done:  E(RB+HF-LYP) =  -2675.77963302     A.U. after    8 cycles
             Convg  =    0.7154D-04             -V/T =  2.0026
             S**2   =   0.0000

 **********************************************************************

            Population analysis using the SCF density.

 **********************************************************************

 Orbital symmetries:
       Occupied  (A) (A) (A) (A) (A) (A) (A) (A) (A) (A) (A) (A)
                 (A) (A) (A) (A) (A) (A) (A) (A) (A) (A) (A) (A)
                 (A) (A) (A) (A) (A) (A) (A) (A) (A) (A) (A) (A)
                 (A) (A) (A) (A) (A) (A) (A) (A) (A) (A) (A) (A)
                 (A) (A) (A) (A) (A) (A)
       Virtual   (A) (A) (A) (A) (A) (A) (A) (A) (A) (A) (A) (A)
                 (A) (A) (A) (A) (A) (A) (A) (A) (A) (A) (A) (A)
                 (A) (A) (A) (A) (A) (A) (A) (A) (A) (A) (A) (A)
                 (A) (A) (A) (A) (A) (A) (A) (A) (A) (A) (A) (A)
                 (A) (A) (A) (A) (A) (A) (A) (A) (A) (A) (A) (A)
                 (A) (A) (A) (A) (A) (A) (A) (A) (A) (A) (A) (A)
                 (A) (A) (A) (A) (A) (A) (A) (A) (A) (A) (A) (A)
                 (A) (A) (A) (A) (A) (A) (A) (A) (A) (A) (A) (A)
                 (A) (A) (A)
 The electronic state is 1-A.
 Alpha  occ. eigenvalues -- -145.39601-145.39496-145.36378 -77.19513 -19.12733
 Alpha  occ. eigenvalues --  -19.10993 -19.10616 -19.09073 -15.46683 -15.46581
 Alpha  occ. eigenvalues --  -15.43533 -12.59890 -12.59833 -12.59788 -12.59763
 Alpha  occ. eigenvalues --  -12.59730 -12.59661 -12.56755 -12.56729 -12.56543
 Alpha  occ. eigenvalues --   -6.64158  -4.80567  -4.80488  -4.80392  -1.83952
 Alpha  occ. eigenvalues --   -1.83855  -1.80955  -1.12019  -1.11519  -1.11432
 Alpha  occ. eigenvalues --   -1.11273  -1.11200  -1.11138  -1.08712  -1.08598
 Alpha  occ. eigenvalues --   -1.08309  -1.01349  -0.93690  -0.91746  -0.91344
 Alpha  occ. eigenvalues --   -0.51223  -0.43391  -0.41978  -0.40939  -0.35512
 Alpha  occ. eigenvalues --   -0.34151  -0.32236  -0.31371  -0.30613  -0.28134
 Alpha  occ. eigenvalues --   -0.27106  -0.24496  -0.20659  -0.15018
 Alpha virt. eigenvalues --   -0.10004  -0.04648  -0.03360  -0.01677  -0.01650
 Alpha virt. eigenvalues --   -0.00789   0.00082   0.00885   0.01038   0.02296
 Alpha virt. eigenvalues --    0.05605   0.06230   0.08215   0.08276   0.11481
 Alpha virt. eigenvalues --    0.11704   0.12866   0.13443   0.13926   0.14341
 Alpha virt. eigenvalues --    0.15198   0.15506   0.16172   0.16764   0.18030
 Alpha virt. eigenvalues --    0.18622   0.18971   0.20191   0.21711   0.22010
 Alpha virt. eigenvalues --    0.22224   0.22583   0.24193   0.26622   0.28328
 Alpha virt. eigenvalues --    0.29411   0.30559   0.31418   0.34261   0.36749
 Alpha virt. eigenvalues --    0.39147   0.41137   0.42835   0.44377   0.45528
 Alpha virt. eigenvalues --    0.49982   0.51932   0.55043   0.62906   0.71499
 Alpha virt. eigenvalues --    0.73624   0.89048   0.93233   0.94025   1.00701
 Alpha virt. eigenvalues --    1.04853   1.06808   1.07559   1.09246   1.13712
 Alpha virt. eigenvalues --    1.17922   1.18644   1.23008   1.23292   1.27496
 Alpha virt. eigenvalues --    1.29600   1.36793   1.44211   1.47301   1.56644
 Alpha virt. eigenvalues --    1.77341   1.79240   1.79754   1.80159   1.81906
 Alpha virt. eigenvalues --    1.83622   1.85757   1.86280   1.89477   1.90047
 Alpha virt. eigenvalues --    1.94594   1.99412   2.07773   2.15257   2.15723
 Alpha virt. eigenvalues --    2.15847   2.18584   2.25058   2.29980   2.37808
 Alpha virt. eigenvalues --    2.57645   2.76058   2.79771   2.84429   3.53680
 Alpha virt. eigenvalues --    3.82745   3.86843   3.98016   4.20477
          Condensed to atoms (all electrons):
              1          2          3          4          5          6
     1  O    8.528135  -0.046315  -0.040504  -0.039853   0.210713   0.123259
     2  O   -0.046315   8.281795  -0.017880  -0.042748   0.369562  -0.002650
     3  O   -0.040504  -0.017880   8.462991  -0.041474   0.241160   0.088414
     4  O   -0.039853  -0.042748  -0.041474   8.478584   0.248645  -0.012883
     5  P    0.210713   0.369562   0.241160   0.248645  12.599655  -0.017377
     6  Ca   0.123259  -0.002650   0.088414  -0.012883  -0.017377  19.057124
     7  Ca  -0.009618  -0.002867   0.086652   0.131231  -0.019812   0.192038
     8  Ca   0.104122   0.136778   0.005273   0.076190  -0.022519  -0.013600
     9  H   -0.000095  -0.000110   0.000000  -0.000018  -0.000281   0.000863
              7          8          9
     1  O   -0.009618   0.104122  -0.000095
     2  O   -0.002867   0.136778  -0.000110
     3  O    0.086652   0.005273   0.000000
     4  O    0.131231   0.076190  -0.000018
     5  P   -0.019812  -0.022519  -0.000281
     6  Ca   0.192038  -0.013600   0.000863
     7  Ca  19.053070  -0.007349   0.001147
     8  Ca  -0.007349  18.551653   0.336113
     9  H    0.001147   0.336113   0.958576
 Mulliken atomic charges:
              1
     1  O   -0.829845
     2  O   -0.675567
     3  O   -0.784633
     4  O   -0.797675
     5  P    1.390254
     6  Ca   0.584812
     7  Ca   0.575509
     8  Ca   0.833340
     9  H   -0.296194
 Sum of Mulliken charges=   0.00000
 Atomic charges with hydrogens summed into heavy atoms:
              1
     1  O   -0.829845
     2  O   -0.675567
     3  O   -0.784633
     4  O   -0.797675
     5  P    1.390254
     6  Ca   0.584812
     7  Ca   0.575509
     8  Ca   0.537145
     9  H    0.000000
 Sum of Mulliken charges=   0.00000
 Electronic spatial extent (au):  <R**2>=  2154.1159
 Charge=     0.0000 electrons
 Dipole moment (field-independent basis, Debye):
    X=     5.8112    Y=     0.5951    Z=    -0.4219  Tot=     5.8568
 Quadrupole moment (field-independent basis, Debye-Ang):
   XX=  -116.3636   YY=   -71.1685   ZZ=  -102.1039
   XY=    -2.4722   XZ=    -5.2875   YZ=     1.6593
 Traceless Quadrupole moment (field-independent basis, Debye-Ang):
   XX=   -19.8183   YY=    25.3768   ZZ=    -5.5586
   XY=    -2.4722   XZ=    -5.2875   YZ=     1.6593
 Octapole moment (field-independent basis, Debye-Ang**2):
  XXX=    88.3589  YYY=     1.3039  ZZZ=    23.7231  XYY=    16.7836
  XXY=   -12.3818  XXZ=    80.7604  XZZ=     6.4495  YZZ=    -1.0279
  YYZ=    14.8266  XYZ=     0.2145
 Hexadecapole moment (field-independent basis, Debye-Ang**3):
 XXXX= -3257.9700 YYYY=  -912.5291 ZZZZ=  -485.9186 XXXY=   -23.5150
 XXXZ=  -256.5374 YYYX=   -16.6729 YYYZ=     8.9969 ZZZX=     5.7178
 ZZZY=     6.8598 XXYY=  -504.1334 XXZZ=  -583.4169 YYZZ=  -240.5270
 XXYZ=     7.2230 YYXZ=    17.2352 ZZXY=    -6.5274
 N-N= 9.133247892131D+02 E-N=-8.162958590675D+03  KE= 2.668794674600D+03
 Merz-Kollman atomic radii used.
 Read replacement radii for each type of atom:
 Rad(20) =   1.188000000000D+00
 Atom Element Radius
    1     8    1.40
    2     8    1.40
    3     8    1.40
    4     8    1.40
    5    15    1.80
    6    20    1.19
    7    20    1.19
    8    20    1.19
    9     1    1.20

 **********************************************************************

            Electrostatic Properties Using The SCF Density

 **********************************************************************

       Atomic Center    1 is at  -0.561498  1.169540 -0.324885
       Atomic Center    2 is at  -1.440549 -0.226333  1.583490
       Atomic Center    3 is at   1.228281  0.037947  1.069210
       Atomic Center    4 is at  -0.300047 -1.352350 -0.392774
       Atomic Center    5 is at  -0.278296 -0.114778  0.599029
       Atomic Center    6 is at   1.622761  1.947560 -0.285194
       Atomic Center    7 is at   1.989711 -1.675940 -0.391491
       Atomic Center    8 is at  -2.743839 -0.037121 -0.474707
       Atomic Center    9 is at  -4.607719  0.001251 -1.437920
     781 points will be used for fitting atomic charges
 Fitting point charges to eletrostatic potential
 Charges from ESP fit, RMS=   0.03018 RRMS=   0.46505:
 Charge=   0.00000 Dipole=    12.6733     1.1397    -3.2345 Tot=    13.1291
              1
     1  O   -1.159383
     2  O   -1.239291
     3  O   -1.099212
     4  O   -1.162355
     5  P    2.653472
     6  Ca   0.636067
     7  Ca   0.651789
     8  Ca   1.569627
     9  H   -0.850713
 -----------------------------------------------------------------

              Electrostatic Properties (Atomic Units)

 -----------------------------------------------------------------
    Center     Electric         -------- Electric Field --------
               Potential          X             Y             Z
 -----------------------------------------------------------------
    1 Atom    -22.354641
    2 Atom    -22.373740
    3 Atom    -22.337679
    4 Atom    -22.359742
    5 Atom    -54.010817
    6 Atom    -80.146997
    7 Atom    -80.149828
    8 Atom    -80.179025
    9 Atom     -1.223328
 -----------------------------------------------------------------
 1\1\GINC-N028\SP\RB3LYP\6-31G(d,p)\Ca3H1O4P1\TIMN\04-May-2015\0\\# b3l
 yp/6-31G(d,p) pop=(ReadRadii,MK)\\Ca3PO4_111\\0,1\O,0,-0.561499,1.1695
 4,-0.324885\O,0,-1.44055,-0.226333,1.58349\O,0,1.22828,0.037947,1.0692
 1\O,0,-0.300048,-1.35235,-0.392774\P,0,-0.278297,-0.114778,0.599029\Ca
 ,0,1.62276,1.94756,-0.285194\Ca,0,1.98971,-1.67594,-0.391491\Ca,0,-2.7
 4384,-0.03712,-0.474707\H,0,-4.60772,0.001252,-1.43792\\Version=EM64T-
 G03RevE.01\State=1-A\HF=-2675.779633\RMSD=7.154e-05\Thermal=0.\Dipole=
 2.2862837,0.2341313,-0.1659791\PG=C01 [X(Ca3H1O4P1)]\\@


 A SLIP OF THE FOOT YOU MAY SOON RECOVER, BUT A SLIP OF THE TONGUE
 YOU MAY NEVER GET OVER. -- BEN FRANKLIN
 Job cpu time:  0 days  0 hours  0 minutes 47.9 seconds.
 File lengths (MBytes):  RWF=     27 Int=      0 D2E=      0 Chk=     10 Scr=      1
 Normal termination of Gaussian 03 at Mon May  4 20:09:29 2015.
