 Entering Gaussian System, Link 0=/home/timn/tmp/g03.e01/g03
 Input=Ca3PO4_215.xyz.gjf
 Output=Ca3PO4_215.xyz.out
 Initial command:
 /home/timn/tmp/g03.e01/l1.exe /home/timn/tmp/g03.e01/Gau-13232.inp -scrdir=/home/timn/tmp/g03.e01/
 Default is to use a total of   2 processors:
                                2 via shared-memory
                                1 via Linda
 Entering Link 1 = /home/timn/tmp/g03.e01/l1.exe PID=     13233.
  
 Copyright (c) 1988,1990,1992,1993,1995,1998,2003,2004,2007, Gaussian, Inc.
                  All Rights Reserved.
  
 This is the Gaussian(R) 03 program.  It is based on the
 the Gaussian(R) 98 system (copyright 1998, Gaussian, Inc.),
 the Gaussian(R) 94 system (copyright 1995, Gaussian, Inc.),
 the Gaussian 92(TM) system (copyright 1992, Gaussian, Inc.),
 the Gaussian 90(TM) system (copyright 1990, Gaussian, Inc.),
 the Gaussian 88(TM) system (copyright 1988, Gaussian, Inc.),
 the Gaussian 86(TM) system (copyright 1986, Carnegie Mellon
 University), and the Gaussian 82(TM) system (copyright 1983,
 Carnegie Mellon University). Gaussian is a federally registered
 trademark of Gaussian, Inc.
  
 This software contains proprietary and confidential information,
 including trade secrets, belonging to Gaussian, Inc.
  
 This software is provided under written license and may be
 used, copied, transmitted, or stored only in accord with that
 written license.
  
 The following legend is applicable only to US Government
 contracts under FAR:
  
                    RESTRICTED RIGHTS LEGEND
  
 Use, reproduction and disclosure by the US Government is
 subject to restrictions as set forth in subparagraphs (a)
 and (c) of the Commercial Computer Software - Restricted
 Rights clause in FAR 52.227-19.
  
 Gaussian, Inc.
 340 Quinnipiac St., Bldg. 40, Wallingford CT 06492
  
  
 ---------------------------------------------------------------
 Warning -- This program may not be used in any manner that
 competes with the business of Gaussian, Inc. or will provide
 assistance to any competitor of Gaussian, Inc.  The licensee
 of this program is prohibited from giving any competitor of
 Gaussian, Inc. access to this program.  By using this program,
 the user acknowledges that Gaussian, Inc. is engaged in the
 business of creating and licensing software in the field of
 computational chemistry and represents and warrants to the
 licensee that it is not a competitor of Gaussian, Inc. and that
 it will not use this program in any manner prohibited above.
 ---------------------------------------------------------------
  

 Cite this work as:
 Gaussian 03, Revision E.01,
 M. J. Frisch, G. W. Trucks, H. B. Schlegel, G. E. Scuseria, 
 M. A. Robb, J. R. Cheeseman, J. A. Montgomery, Jr., T. Vreven, 
 K. N. Kudin, J. C. Burant, J. M. Millam, S. S. Iyengar, J. Tomasi, 
 V. Barone, B. Mennucci, M. Cossi, G. Scalmani, N. Rega, 
 G. A. Petersson, H. Nakatsuji, M. Hada, M. Ehara, K. Toyota, 
 R. Fukuda, J. Hasegawa, M. Ishida, T. Nakajima, Y. Honda, O. Kitao, 
 H. Nakai, M. Klene, X. Li, J. E. Knox, H. P. Hratchian, J. B. Cross, 
 V. Bakken, C. Adamo, J. Jaramillo, R. Gomperts, R. E. Stratmann, 
 O. Yazyev, A. J. Austin, R. Cammi, C. Pomelli, J. W. Ochterski, 
 P. Y. Ayala, K. Morokuma, G. A. Voth, P. Salvador, J. J. Dannenberg, 
 V. G. Zakrzewski, S. Dapprich, A. D. Daniels, M. C. Strain, 
 O. Farkas, D. K. Malick, A. D. Rabuck, K. Raghavachari, 
 J. B. Foresman, J. V. Ortiz, Q. Cui, A. G. Baboul, S. Clifford, 
 J. Cioslowski, B. B. Stefanov, G. Liu, A. Liashenko, P. Piskorz, 
 I. Komaromi, R. L. Martin, D. J. Fox, T. Keith, M. A. Al-Laham, 
 C. Y. Peng, A. Nanayakkara, M. Challacombe, P. M. W. Gill, 
 B. Johnson, W. Chen, M. W. Wong, C. Gonzalez, and J. A. Pople, 
 Gaussian, Inc., Wallingford CT, 2004.
 
 ******************************************
 Gaussian 03:  EM64T-G03RevE.01 11-Sep-2007
                 4-May-2015 
 ******************************************
 %nproc=2
 Will use up to    2 processors via shared memory.
 Default route:  MP2=Direct MaxDisk=2000MB
 -------------------------------------
 # b3lyp/6-31G(d,p) pop=(ReadRadii,MK)
 -------------------------------------
 1/38=1/1;
 2/17=6,18=5,40=1/2;
 3/5=1,6=6,7=101,11=2,16=1,25=1,30=1,74=-5/1,2,3;
 4//1;
 5/5=2,32=1,38=5/2;
 6/7=2,8=2,9=2,10=2,15=8,20=101,28=1/1,2;
 99/5=1,9=1/99;
 ----------
 Ca3PO4_215
 ----------
 Symbolic Z-matrix:
 Charge =  0 Multiplicity = 1
 O                    -3.23825   0.17499  -0.19293 
 O                    -3.3463   -2.45248  -0.16686 
 O                    -1.09227  -1.15948   0.1915 
 O                     2.90338  -0.10105   0.21268 
 P                    -2.58865  -1.19198  -0.06092 
 Ca                   -2.29485   2.29011  -0.07903 
 Ca                    0.80795   0.14095   0.33655 
 Ca                    4.98447  -0.11688  -0.19898 
 H                     7.06577  -0.09986  -0.61232 
 
                          Input orientation:                          
 ---------------------------------------------------------------------
 Center     Atomic     Atomic              Coordinates (Angstroms)
 Number     Number      Type              X           Y           Z
 ---------------------------------------------------------------------
    1          8             0       -3.238250    0.174993   -0.192925
    2          8             0       -3.346300   -2.452480   -0.166861
    3          8             0       -1.092270   -1.159480    0.191501
    4          8             0        2.903380   -0.101047    0.212681
    5         15             0       -2.588650   -1.191980   -0.060919
    6         20             0       -2.294850    2.290110   -0.079029
    7         20             0        0.807952    0.140953    0.336554
    8         20             0        4.984470   -0.116882   -0.198978
    9          1             0        7.065770   -0.099859   -0.612315
 ---------------------------------------------------------------------
                    Distance matrix (angstroms):
                    1          2          3          4          5
     1  O    0.000000
     2  O    2.629823   0.000000
     3  O    2.556136   2.623151   0.000000
     4  O    6.161196   6.688183   4.133515   0.000000
     5  P    1.519217   1.474489   1.517869   5.606013   0.000000
     6  Ca   2.318770   4.858541   3.663203   5.729251   3.494510
     7  Ca   4.080840   4.923122   2.307165   2.112990   3.670368
     8  Ca   8.227901   8.652039   6.177884   2.121473   7.650297
     9  H   10.316213  10.683841   8.265745   4.243361   9.731628
                    6          7          8          9
     6  Ca   0.000000
     7  Ca   3.797231   0.000000
     8  Ca   7.667887   4.218599   0.000000
     9  H    9.675616   6.333927   2.122015   0.000000
 Stoichiometry    Ca3HO4P
 Framework group  C1[X(Ca3HO4P)]
 Deg. of freedom    21
 Full point group                 C1
 Largest Abelian subgroup         C1      NOp   1
 Largest concise Abelian subgroup C1      NOp   1
                         Standard orientation:                         
 ---------------------------------------------------------------------
 Center     Atomic     Atomic              Coordinates (Angstroms)
 Number     Number      Type              X           Y           Z
 ---------------------------------------------------------------------
    1          8             0       -3.238249    0.174995   -0.192925
    2          8             0       -3.346301   -2.452478   -0.166861
    3          8             0       -1.092270   -1.159479    0.191501
    4          8             0        2.903380   -0.101048    0.212681
    5         15             0       -2.588650   -1.191978   -0.060919
    6         20             0       -2.294848    2.290112   -0.079029
    7         20             0        0.807953    0.140953    0.336554
    8         20             0        4.984470   -0.116885   -0.198978
    9          1             0        7.065770   -0.099863   -0.612315
 ---------------------------------------------------------------------
 Rotational constants (GHZ):      1.3213151      0.2530929      0.2140608
 Standard basis: 6-31G(d,p) (6D, 7F)
 There are   153 symmetry adapted basis functions of A   symmetry.
 Integral buffers will be    131072 words long.
 Raffenetti 2 integral format.
 Two-electron integral symmetry is turned on.
   153 basis functions,   399 primitive gaussians,   153 cartesian basis functions
    54 alpha electrons       54 beta electrons
       nuclear repulsion energy       729.9008765782 Hartrees.
 NAtoms=    9 NActive=    9 NUniq=    9 SFac= 7.50D-01 NAtFMM=   80 NAOKFM=F Big=F
 One-electron integrals computed using PRISM.
 NBasis=   153 RedAO= T  NBF=   153
 NBsUse=   153 1.00D-06 NBFU=   153
 Harris functional with IExCor=  402 diagonalized for initial guess.
 ExpMin= 2.60D-02 ExpMax= 3.53D+04 ExpMxC= 5.30D+03 IAcc=3 IRadAn=         5 AccDes= 0.00D+00
 HarFok:  IExCor= 402 AccDes= 0.00D+00 IRadAn=         5 IDoV=1
 ScaDFX=  1.000000  1.000000  1.000000  1.000000
 Initial guess orbital symmetries:
       Occupied  (A) (A) (A) (A) (A) (A) (A) (A) (A) (A) (A) (A)
                 (A) (A) (A) (A) (A) (A) (A) (A) (A) (A) (A) (A)
                 (A) (A) (A) (A) (A) (A) (A) (A) (A) (A) (A) (A)
                 (A) (A) (A) (A) (A) (A) (A) (A) (A) (A) (A) (A)
                 (A) (A) (A) (A) (A) (A)
       Virtual   (A) (A) (A) (A) (A) (A) (A) (A) (A) (A) (A) (A)
                 (A) (A) (A) (A) (A) (A) (A) (A) (A) (A) (A) (A)
                 (A) (A) (A) (A) (A) (A) (A) (A) (A) (A) (A) (A)
                 (A) (A) (A) (A) (A) (A) (A) (A) (A) (A) (A) (A)
                 (A) (A) (A) (A) (A) (A) (A) (A) (A) (A) (A) (A)
                 (A) (A) (A) (A) (A) (A) (A) (A) (A) (A) (A) (A)
                 (A) (A) (A) (A) (A) (A) (A) (A) (A) (A) (A) (A)
                 (A) (A) (A) (A) (A) (A) (A) (A) (A) (A) (A) (A)
                 (A) (A) (A)
 The electronic state of the initial guess is 1-A.
 Requested convergence on RMS density matrix=1.00D-04 within 128 cycles.
 Requested convergence on MAX density matrix=1.00D-02.
 Requested convergence on             energy=1.00D-02.
 No special actions if energy rises.
 EnCoef did     4 forward-backward iterations
 EnCoef did     2 forward-backward iterations
 EnCoef did     2 forward-backward iterations
 SCF Done:  E(RB+HF-LYP) =  -2675.66089015     A.U. after   10 cycles
             Convg  =    0.7754D-04             -V/T =  2.0026
             S**2   =   0.0000

 **********************************************************************

            Population analysis using the SCF density.

 **********************************************************************

 Orbital symmetries:
       Occupied  (A) (A) (A) (A) (A) (A) (A) (A) (A) (A) (A) (A)
                 (A) (A) (A) (A) (A) (A) (A) (A) (A) (A) (A) (A)
                 (A) (A) (A) (A) (A) (A) (A) (A) (A) (A) (A) (A)
                 (A) (A) (A) (A) (A) (A) (A) (A) (A) (A) (A) (A)
                 (A) (A) (A) (A) (A) (A)
       Virtual   (A) (A) (A) (A) (A) (A) (A) (A) (A) (A) (A) (A)
                 (A) (A) (A) (A) (A) (A) (A) (A) (A) (A) (A) (A)
                 (A) (A) (A) (A) (A) (A) (A) (A) (A) (A) (A) (A)
                 (A) (A) (A) (A) (A) (A) (A) (A) (A) (A) (A) (A)
                 (A) (A) (A) (A) (A) (A) (A) (A) (A) (A) (A) (A)
                 (A) (A) (A) (A) (A) (A) (A) (A) (A) (A) (A) (A)
                 (A) (A) (A) (A) (A) (A) (A) (A) (A) (A) (A) (A)
                 (A) (A) (A) (A) (A) (A) (A) (A) (A) (A) (A) (A)
                 (A) (A) (A)
 The electronic state is 1-A.
 Alpha  occ. eigenvalues -- -145.39639-145.34760-145.33828 -77.22623 -19.16685
 Alpha  occ. eigenvalues --  -19.16374 -19.14538 -19.00828 -15.46798 -15.41985
 Alpha  occ. eigenvalues --  -15.41217 -12.59963 -12.59959 -12.59854 -12.55224
 Alpha  occ. eigenvalues --  -12.55169 -12.54968 -12.54446 -12.54446 -12.54110
 Alpha  occ. eigenvalues --   -6.67935  -4.84541  -4.84072  -4.83981  -1.84118
 Alpha  occ. eigenvalues --   -1.79654  -1.79053  -1.11599  -1.11578  -1.11405
 Alpha  occ. eigenvalues --   -1.07715  -1.07656  -1.07162  -1.07153  -1.06933
 Alpha  occ. eigenvalues --   -1.05478  -1.04964  -0.98063  -0.97375  -0.75173
 Alpha  occ. eigenvalues --   -0.54454  -0.46515  -0.43700  -0.43142  -0.37320
 Alpha  occ. eigenvalues --   -0.34850  -0.34554  -0.32530  -0.29641  -0.23103
 Alpha  occ. eigenvalues --   -0.20049  -0.19549  -0.19517  -0.16442
 Alpha virt. eigenvalues --   -0.07664  -0.05148  -0.05083  -0.04338  -0.01630
 Alpha virt. eigenvalues --   -0.01056  -0.00869  -0.00799   0.00166   0.00536
 Alpha virt. eigenvalues --    0.02712   0.03691   0.05464   0.05703   0.09175
 Alpha virt. eigenvalues --    0.09894   0.10020   0.12101   0.13112   0.14030
 Alpha virt. eigenvalues --    0.14358   0.14858   0.16140   0.17150   0.17786
 Alpha virt. eigenvalues --    0.18659   0.18849   0.20032   0.21068   0.21094
 Alpha virt. eigenvalues --    0.21535   0.21902   0.22734   0.24076   0.26108
 Alpha virt. eigenvalues --    0.26878   0.28384   0.30686   0.31864   0.33022
 Alpha virt. eigenvalues --    0.35778   0.38452   0.39536   0.43217   0.43667
 Alpha virt. eigenvalues --    0.45175   0.47988   0.49328   0.51024   0.63980
 Alpha virt. eigenvalues --    0.65761   0.83132   0.87515   0.96758   0.97218
 Alpha virt. eigenvalues --    0.99368   1.00212   1.01322   1.01990   1.09435
 Alpha virt. eigenvalues --    1.11832   1.12491   1.14193   1.14790   1.21244
 Alpha virt. eigenvalues --    1.33709   1.34905   1.38094   1.38966   1.40966
 Alpha virt. eigenvalues --    1.45439   1.76050   1.76593   1.76810   1.78977
 Alpha virt. eigenvalues --    1.79678   1.81160   1.83956   1.92010   1.92150
 Alpha virt. eigenvalues --    1.93561   1.97129   1.99025   2.03623   2.06273
 Alpha virt. eigenvalues --    2.10687   2.14535   2.14557   2.26436   2.28656
 Alpha virt. eigenvalues --    2.45443   2.65356   2.80416   2.81858   3.43286
 Alpha virt. eigenvalues --    3.66474   3.81223   3.84522   3.88563
          Condensed to atoms (all electrons):
              1          2          3          4          5          6
     1  O    8.270374  -0.028081  -0.036278   0.000000   0.367237   0.081220
     2  O   -0.028081   8.016462  -0.028536   0.000000   0.526784  -0.004707
     3  O   -0.036278  -0.028536   8.263176  -0.000112   0.373020  -0.018395
     4  O    0.000000   0.000000  -0.000112   8.456471  -0.000002  -0.010900
     5  P    0.367237   0.526784   0.373020  -0.000002  12.608833  -0.008398
     6  Ca   0.081220  -0.004707  -0.018395  -0.010900  -0.008398  19.673956
     7  Ca  -0.013846   0.002068   0.101282   0.267371  -0.007304   0.031828
     8  Ca   0.000104   0.000061  -0.001197   0.225738  -0.000104  -0.018087
     9  H    0.000000   0.000000   0.000000  -0.000413   0.000000   0.000041
              7          8          9
     1  O   -0.013846   0.000104   0.000000
     2  O    0.002068   0.000061   0.000000
     3  O    0.101282  -0.001197   0.000000
     4  O    0.267371   0.225738  -0.000413
     5  P   -0.007304  -0.000104   0.000000
     6  Ca   0.031828  -0.018087   0.000041
     7  Ca  18.892996  -0.029870   0.012473
     8  Ca  -0.029870  18.665260   0.324043
     9  H    0.012473   0.324043   0.938386
 Mulliken atomic charges:
              1
     1  O   -0.640732
     2  O   -0.484051
     3  O   -0.652961
     4  O   -0.938153
     5  P    1.139933
     6  Ca   0.273441
     7  Ca   0.743001
     8  Ca   0.834051
     9  H   -0.274530
 Sum of Mulliken charges=   0.00000
 Atomic charges with hydrogens summed into heavy atoms:
              1
     1  O   -0.640732
     2  O   -0.484051
     3  O   -0.652961
     4  O   -0.938153
     5  P    1.139933
     6  Ca   0.273441
     7  Ca   0.743001
     8  Ca   0.559521
     9  H    0.000000
 Sum of Mulliken charges=   0.00000
 Electronic spatial extent (au):  <R**2>=  4547.1718
 Charge=     0.0000 electrons
 Dipole moment (field-independent basis, Debye):
    X=    -2.1143    Y=     3.6522    Z=     0.8435  Tot=     4.3035
 Quadrupole moment (field-independent basis, Debye-Ang):
   XX=  -138.4967   YY=   -96.1255   ZZ=   -83.7778
   XY=   -16.8007   XZ=     5.0693   YZ=    -1.1528
 Traceless Quadrupole moment (field-independent basis, Debye-Ang):
   XX=   -32.3633   YY=    10.0078   ZZ=    22.3555
   XY=   -16.8007   XZ=     5.0693   YZ=    -1.1528
 Octapole moment (field-independent basis, Debye-Ang**2):
  XXX=  -413.4087  YYY=   -36.8670  ZZZ=     3.3162  XYY=    13.6938
  XXY=    45.8770  XXZ=    60.3098  XZZ=    -7.1644  YZZ=   -22.1288
  YYZ=    -1.4613  XYZ=     4.3700
 Hexadecapole moment (field-independent basis, Debye-Ang**3):
 XXXX= -9412.2219 YYYY= -1353.1035 ZZZZ=  -199.9107 XXXY=   -88.8924
 XXXZ=   460.9624 YYYX=   -29.8359 YYYZ=   -11.9113 ZZZX=    32.9018
 ZZZY=    -2.5547 XXYY= -1075.3764 XXZZ=  -913.2897 YYZZ=  -241.7523
 XXYZ=   -20.2898 YYXZ=     9.7319 ZZXY=    35.9400
 N-N= 7.299008765782D+02 E-N=-7.796617799762D+03  KE= 2.668811629920D+03
 Merz-Kollman atomic radii used.
 Read replacement radii for each type of atom:
 Rad(20) =   1.188000000000D+00
 Atom Element Radius
    1     8    1.40
    2     8    1.40
    3     8    1.40
    4     8    1.40
    5    15    1.80
    6    20    1.19
    7    20    1.19
    8    20    1.19
    9     1    1.20

 **********************************************************************

            Electrostatic Properties Using The SCF Density

 **********************************************************************

       Atomic Center    1 is at  -3.238249  0.174995 -0.192925
       Atomic Center    2 is at  -3.346301 -2.452478 -0.166861
       Atomic Center    3 is at  -1.092270 -1.159479  0.191501
       Atomic Center    4 is at   2.903380 -0.101048  0.212681
       Atomic Center    5 is at  -2.588650 -1.191978 -0.060919
       Atomic Center    6 is at  -2.294848  2.290112 -0.079029
       Atomic Center    7 is at   0.807953  0.140953  0.336554
       Atomic Center    8 is at   4.984470 -0.116885 -0.198978
       Atomic Center    9 is at   7.065770 -0.099863 -0.612315
     968 points will be used for fitting atomic charges
 Fitting point charges to eletrostatic potential
 Charges from ESP fit, RMS=   0.02315 RRMS=   0.39734:
 Charge=   0.00000 Dipole=    -2.8212     8.4730     1.2182 Tot=     9.0131
              1
     1  O   -0.072292
     2  O   -0.329290
     3  O   -0.058031
     4  O   -1.282283
     5  P   -0.056341
     6  Ca   0.294454
     7  Ca   0.853805
     8  Ca   1.449260
     9  H   -0.799282
 -----------------------------------------------------------------

              Electrostatic Properties (Atomic Units)

 -----------------------------------------------------------------
    Center     Electric         -------- Electric Field --------
               Potential          X             Y             Z
 -----------------------------------------------------------------
    1 Atom    -22.298437
    2 Atom    -22.324608
    3 Atom    -22.300600
    4 Atom    -22.441548
    5 Atom    -53.981877
    6 Atom    -80.149967
    7 Atom    -80.193799
    8 Atom    -80.204035
    9 Atom     -1.210299
 -----------------------------------------------------------------
 1\1\GINC-N029\SP\RB3LYP\6-31G(d,p)\Ca3H1O4P1\TIMN\04-May-2015\0\\# b3l
 yp/6-31G(d,p) pop=(ReadRadii,MK)\\Ca3PO4_215\\0,1\O,0,-3.23825,0.17499
 3,-0.192925\O,0,-3.3463,-2.45248,-0.166861\O,0,-1.09227,-1.15948,0.191
 501\O,0,2.90338,-0.101047,0.212681\P,0,-2.58865,-1.19198,-0.060919\Ca,
 0,-2.29485,2.29011,-0.079029\Ca,0,0.807952,0.140953,0.336554\Ca,0,4.98
 447,-0.116882,-0.198978\H,0,7.06577,-0.099859,-0.612315\\Version=EM64T
 -G03RevE.01\State=1-A\HF=-2675.6608901\RMSD=7.754e-05\Thermal=0.\Dipol
 e=-0.8318264,1.4368743,0.3318389\PG=C01 [X(Ca3H1O4P1)]\\@


 UNLESS WE CHANGE DIRECTIONS, WE WILL WIND UP WHERE WE ARE HEADED.
     -- CONFUCIUS
 Job cpu time:  0 days  0 hours  0 minutes 41.4 seconds.
 File lengths (MBytes):  RWF=     27 Int=      0 D2E=      0 Chk=     10 Scr=      1
 Normal termination of Gaussian 03 at Mon May  4 20:11:43 2015.
