 Entering Gaussian System, Link 0=/home/timn/tmp/g03.e01/g03
 Input=Ca3PO4_167.xyz.gjf
 Output=Ca3PO4_167.xyz.out
 Initial command:
 /home/timn/tmp/g03.e01/l1.exe /home/timn/tmp/g03.e01/Gau-13048.inp -scrdir=/home/timn/tmp/g03.e01/
 Default is to use a total of   2 processors:
                                2 via shared-memory
                                1 via Linda
 Entering Link 1 = /home/timn/tmp/g03.e01/l1.exe PID=     13049.
  
 Copyright (c) 1988,1990,1992,1993,1995,1998,2003,2004,2007, Gaussian, Inc.
                  All Rights Reserved.
  
 This is the Gaussian(R) 03 program.  It is based on the
 the Gaussian(R) 98 system (copyright 1998, Gaussian, Inc.),
 the Gaussian(R) 94 system (copyright 1995, Gaussian, Inc.),
 the Gaussian 92(TM) system (copyright 1992, Gaussian, Inc.),
 the Gaussian 90(TM) system (copyright 1990, Gaussian, Inc.),
 the Gaussian 88(TM) system (copyright 1988, Gaussian, Inc.),
 the Gaussian 86(TM) system (copyright 1986, Carnegie Mellon
 University), and the Gaussian 82(TM) system (copyright 1983,
 Carnegie Mellon University). Gaussian is a federally registered
 trademark of Gaussian, Inc.
  
 This software contains proprietary and confidential information,
 including trade secrets, belonging to Gaussian, Inc.
  
 This software is provided under written license and may be
 used, copied, transmitted, or stored only in accord with that
 written license.
  
 The following legend is applicable only to US Government
 contracts under FAR:
  
                    RESTRICTED RIGHTS LEGEND
  
 Use, reproduction and disclosure by the US Government is
 subject to restrictions as set forth in subparagraphs (a)
 and (c) of the Commercial Computer Software - Restricted
 Rights clause in FAR 52.227-19.
  
 Gaussian, Inc.
 340 Quinnipiac St., Bldg. 40, Wallingford CT 06492
  
  
 ---------------------------------------------------------------
 Warning -- This program may not be used in any manner that
 competes with the business of Gaussian, Inc. or will provide
 assistance to any competitor of Gaussian, Inc.  The licensee
 of this program is prohibited from giving any competitor of
 Gaussian, Inc. access to this program.  By using this program,
 the user acknowledges that Gaussian, Inc. is engaged in the
 business of creating and licensing software in the field of
 computational chemistry and represents and warrants to the
 licensee that it is not a competitor of Gaussian, Inc. and that
 it will not use this program in any manner prohibited above.
 ---------------------------------------------------------------
  

 Cite this work as:
 Gaussian 03, Revision E.01,
 M. J. Frisch, G. W. Trucks, H. B. Schlegel, G. E. Scuseria, 
 M. A. Robb, J. R. Cheeseman, J. A. Montgomery, Jr., T. Vreven, 
 K. N. Kudin, J. C. Burant, J. M. Millam, S. S. Iyengar, J. Tomasi, 
 V. Barone, B. Mennucci, M. Cossi, G. Scalmani, N. Rega, 
 G. A. Petersson, H. Nakatsuji, M. Hada, M. Ehara, K. Toyota, 
 R. Fukuda, J. Hasegawa, M. Ishida, T. Nakajima, Y. Honda, O. Kitao, 
 H. Nakai, M. Klene, X. Li, J. E. Knox, H. P. Hratchian, J. B. Cross, 
 V. Bakken, C. Adamo, J. Jaramillo, R. Gomperts, R. E. Stratmann, 
 O. Yazyev, A. J. Austin, R. Cammi, C. Pomelli, J. W. Ochterski, 
 P. Y. Ayala, K. Morokuma, G. A. Voth, P. Salvador, J. J. Dannenberg, 
 V. G. Zakrzewski, S. Dapprich, A. D. Daniels, M. C. Strain, 
 O. Farkas, D. K. Malick, A. D. Rabuck, K. Raghavachari, 
 J. B. Foresman, J. V. Ortiz, Q. Cui, A. G. Baboul, S. Clifford, 
 J. Cioslowski, B. B. Stefanov, G. Liu, A. Liashenko, P. Piskorz, 
 I. Komaromi, R. L. Martin, D. J. Fox, T. Keith, M. A. Al-Laham, 
 C. Y. Peng, A. Nanayakkara, M. Challacombe, P. M. W. Gill, 
 B. Johnson, W. Chen, M. W. Wong, C. Gonzalez, and J. A. Pople, 
 Gaussian, Inc., Wallingford CT, 2004.
 
 ******************************************
 Gaussian 03:  EM64T-G03RevE.01 11-Sep-2007
                 4-May-2015 
 ******************************************
 %nproc=2
 Will use up to    2 processors via shared memory.
 Default route:  MP2=Direct MaxDisk=2000MB
 -------------------------------------
 # b3lyp/6-31G(d,p) pop=(ReadRadii,MK)
 -------------------------------------
 1/38=1/1;
 2/17=6,18=5,40=1/2;
 3/5=1,6=6,7=101,11=2,16=1,25=1,30=1,74=-5/1,2,3;
 4//1;
 5/5=2,32=1,38=5/2;
 6/7=2,8=2,9=2,10=2,15=8,20=101,28=1/1,2;
 99/5=1,9=1/99;
 ----------
 Ca3PO4_167
 ----------
 Symbolic Z-matrix:
 Charge =  0 Multiplicity = 1
 O                    -0.37061  -1.30969   0.64733 
 O                     2.25676   0.01805  -1.48471 
 O                    -0.38225   1.29212   0.6674 
 O                    -3.87794   0.01524  -1.22655 
 P                     0.12999  -0.01358   1.67107 
 Ca                    1.62341   1.66627  -0.28558 
 Ca                    1.63973  -1.6524   -0.30795 
 Ca                   -2.17843  -0.01207  -0.01181 
 H                    -4.65182   0.04198  -1.78681 
 
                          Input orientation:                          
 ---------------------------------------------------------------------
 Center     Atomic     Atomic              Coordinates (Angstroms)
 Number     Number      Type              X           Y           Z
 ---------------------------------------------------------------------
    1          8             0       -0.370607   -1.309690    0.647330
    2          8             0        2.256760    0.018045   -1.484710
    3          8             0       -0.382253    1.292120    0.667404
    4          8             0       -3.877940    0.015240   -1.226550
    5         15             0        0.129986   -0.013582    1.671070
    6         20             0        1.623410    1.666270   -0.285582
    7         20             0        1.639730   -1.652400   -0.307950
    8         20             0       -2.178430   -0.012070   -0.011814
    9          1             0       -4.651820    0.041984   -1.786810
 ---------------------------------------------------------------------
                    Distance matrix (angstroms):
                    1          2          3          4          5
     1  O    0.000000
     2  O    3.634767   0.000000
     3  O    2.601914   3.635829   0.000000
     4  O    4.191450   6.140130   4.175801   0.000000
     5  P    1.725843   3.805669   1.724701   4.945756   0.000000
     6  Ca   3.701725   2.134405   2.251856   5.820324   2.980051
     7  Ca   2.251991   2.134450   3.702692   5.836911   2.980197
     8  Ca   2.320886   4.673461   2.321314   2.089178   2.856726
     9  H    5.106941   6.915223   5.080867   0.955770   5.901330
                    6          7          8          9
     6  Ca   0.000000
     7  Ca   3.318786   0.000000
     8  Ca   4.164824   4.166140   0.000000
     9  H    6.653608   6.681434   3.044863   0.000000
 Stoichiometry    Ca3HO4P
 Framework group  C1[X(Ca3HO4P)]
 Deg. of freedom    21
 Full point group                 C1
 Largest Abelian subgroup         C1      NOp   1
 Largest concise Abelian subgroup C1      NOp   1
                         Standard orientation:                         
 ---------------------------------------------------------------------
 Center     Atomic     Atomic              Coordinates (Angstroms)
 Number     Number      Type              X           Y           Z
 ---------------------------------------------------------------------
    1          8             0       -0.370604   -1.309690    0.647329
    2          8             0        2.256761    0.018047   -1.484711
    3          8             0       -0.382253    1.292120    0.667403
    4          8             0       -3.877939    0.015237   -1.226551
    5         15             0        0.129987   -0.013582    1.671069
    6         20             0        1.623410    1.666272   -0.285583
    7         20             0        1.639733   -1.652398   -0.307951
    8         20             0       -2.178429   -0.012072   -0.011815
    9          1             0       -4.651819    0.041980   -1.786811
 ---------------------------------------------------------------------
 Rotational constants (GHZ):      1.1382930      0.5487073      0.4928027
 Standard basis: 6-31G(d,p) (6D, 7F)
 There are   153 symmetry adapted basis functions of A   symmetry.
 Integral buffers will be    131072 words long.
 Raffenetti 2 integral format.
 Two-electron integral symmetry is turned on.
   153 basis functions,   399 primitive gaussians,   153 cartesian basis functions
    54 alpha electrons       54 beta electrons
       nuclear repulsion energy       859.6402182377 Hartrees.
 NAtoms=    9 NActive=    9 NUniq=    9 SFac= 7.50D-01 NAtFMM=   80 NAOKFM=F Big=F
 One-electron integrals computed using PRISM.
 NBasis=   153 RedAO= T  NBF=   153
 NBsUse=   153 1.00D-06 NBFU=   153
 Harris functional with IExCor=  402 diagonalized for initial guess.
 ExpMin= 2.60D-02 ExpMax= 3.53D+04 ExpMxC= 5.30D+03 IAcc=3 IRadAn=         5 AccDes= 0.00D+00
 HarFok:  IExCor= 402 AccDes= 0.00D+00 IRadAn=         5 IDoV=1
 ScaDFX=  1.000000  1.000000  1.000000  1.000000
 Initial guess orbital symmetries:
       Occupied  (A) (A) (A) (A) (A) (A) (A) (A) (A) (A) (A) (A)
                 (A) (A) (A) (A) (A) (A) (A) (A) (A) (A) (A) (A)
                 (A) (A) (A) (A) (A) (A) (A) (A) (A) (A) (A) (A)
                 (A) (A) (A) (A) (A) (A) (A) (A) (A) (A) (A) (A)
                 (A) (A) (A) (A) (A) (A)
       Virtual   (A) (A) (A) (A) (A) (A) (A) (A) (A) (A) (A) (A)
                 (A) (A) (A) (A) (A) (A) (A) (A) (A) (A) (A) (A)
                 (A) (A) (A) (A) (A) (A) (A) (A) (A) (A) (A) (A)
                 (A) (A) (A) (A) (A) (A) (A) (A) (A) (A) (A) (A)
                 (A) (A) (A) (A) (A) (A) (A) (A) (A) (A) (A) (A)
                 (A) (A) (A) (A) (A) (A) (A) (A) (A) (A) (A) (A)
                 (A) (A) (A) (A) (A) (A) (A) (A) (A) (A) (A) (A)
                 (A) (A) (A) (A) (A) (A) (A) (A) (A) (A) (A) (A)
                 (A) (A) (A)
 The electronic state of the initial guess is 1-A.
 Requested convergence on RMS density matrix=1.00D-04 within 128 cycles.
 Requested convergence on MAX density matrix=1.00D-02.
 Requested convergence on             energy=1.00D-02.
 No special actions if energy rises.
 EnCoef did     3 forward-backward iterations
 EnCoef did     3 forward-backward iterations
 SCF Done:  E(RB+HF-LYP) =  -2675.70646807     A.U. after   11 cycles
             Convg  =    0.7464D-04             -V/T =  2.0025
             S**2   =   0.0000

 **********************************************************************

            Population analysis using the SCF density.

 **********************************************************************

 Orbital symmetries:
       Occupied  (A) (A) (A) (A) (A) (A) (A) (A) (A) (A) (A) (A)
                 (A) (A) (A) (A) (A) (A) (A) (A) (A) (A) (A) (A)
                 (A) (A) (A) (A) (A) (A) (A) (A) (A) (A) (A) (A)
                 (A) (A) (A) (A) (A) (A) (A) (A) (A) (A) (A) (A)
                 (A) (A) (A) (A) (A) (A)
       Virtual   (A) (A) (A) (A) (A) (A) (A) (A) (A) (A) (A) (A)
                 (A) (A) (A) (A) (A) (A) (A) (A) (A) (A) (A) (A)
                 (A) (A) (A) (A) (A) (A) (A) (A) (A) (A) (A) (A)
                 (A) (A) (A) (A) (A) (A) (A) (A) (A) (A) (A) (A)
                 (A) (A) (A) (A) (A) (A) (A) (A) (A) (A) (A) (A)
                 (A) (A) (A) (A) (A) (A) (A) (A) (A) (A) (A) (A)
                 (A) (A) (A) (A) (A) (A) (A) (A) (A) (A) (A) (A)
                 (A) (A) (A) (A) (A) (A) (A) (A) (A) (A) (A) (A)
                 (A) (A) (A)
 The electronic state is 1-A.
 Alpha  occ. eigenvalues -- -145.33750-145.33745-145.31228 -77.07127 -19.07900
 Alpha  occ. eigenvalues --  -19.07890 -19.03305 -18.99718 -15.40889 -15.40884
 Alpha  occ. eigenvalues --  -15.38492 -12.54108 -12.54103 -12.54065 -12.54060
 Alpha  occ. eigenvalues --  -12.53917 -12.53912 -12.51745 -12.51664 -12.51474
 Alpha  occ. eigenvalues --   -6.53160  -4.69612  -4.69334  -4.68873  -1.78531
 Alpha  occ. eigenvalues --   -1.78465  -1.76282  -1.06723  -1.06365  -1.06288
 Alpha  occ. eigenvalues --   -1.06139  -1.05884  -1.05162  -1.04449  -1.04044
 Alpha  occ. eigenvalues --   -1.04002  -0.89968  -0.85979  -0.84258  -0.73625
 Alpha  occ. eigenvalues --   -0.49305  -0.37019  -0.34760  -0.33526  -0.32057
 Alpha  occ. eigenvalues --   -0.28205  -0.24208  -0.23933  -0.20941  -0.20842
 Alpha  occ. eigenvalues --   -0.19370  -0.18157  -0.17690  -0.11974
 Alpha virt. eigenvalues --   -0.07469  -0.06665  -0.02263  -0.00521  -0.00407
 Alpha virt. eigenvalues --    0.01030   0.01533   0.02320   0.03197   0.03868
 Alpha virt. eigenvalues --    0.03999   0.05713   0.07613   0.08244   0.11358
 Alpha virt. eigenvalues --    0.11791   0.12877   0.13835   0.15064   0.16322
 Alpha virt. eigenvalues --    0.16549   0.18000   0.19471   0.20118   0.20436
 Alpha virt. eigenvalues --    0.20800   0.22520   0.22885   0.24729   0.25666
 Alpha virt. eigenvalues --    0.25858   0.26695   0.29811   0.30298   0.33922
 Alpha virt. eigenvalues --    0.35273   0.37696   0.39245   0.39379   0.42637
 Alpha virt. eigenvalues --    0.43621   0.43913   0.45626   0.45857   0.49023
 Alpha virt. eigenvalues --    0.51809   0.54150   0.60514   0.68006   0.76997
 Alpha virt. eigenvalues --    0.79455   0.83668   0.88242   0.96010   0.96748
 Alpha virt. eigenvalues --    1.03562   1.03645   1.05829   1.09376   1.12264
 Alpha virt. eigenvalues --    1.12623   1.17743   1.18607   1.24410   1.28443
 Alpha virt. eigenvalues --    1.33803   1.35850   1.44625   1.49491   1.51402
 Alpha virt. eigenvalues --    1.58148   1.72812   1.73442   1.86145   1.90312
 Alpha virt. eigenvalues --    1.90341   1.92063   1.93205   1.93395   1.96822
 Alpha virt. eigenvalues --    1.96980   1.97247   1.98432   1.99381   2.00968
 Alpha virt. eigenvalues --    2.02596   2.08061   2.13172   2.42621   2.47800
 Alpha virt. eigenvalues --    2.57572   2.74086   2.74542   3.50480   3.60553
 Alpha virt. eigenvalues --    3.80025   3.83225   3.85601   3.92441
          Condensed to atoms (all electrons):
              1          2          3          4          5          6
     1  O    8.600007  -0.000405  -0.031097  -0.000098   0.032000  -0.011258
     2  O   -0.000405   8.419684  -0.000402   0.000000  -0.009749   0.241986
     3  O   -0.031097  -0.000402   8.599521  -0.000098   0.032337   0.142410
     4  O   -0.000098   0.000000  -0.000098   8.307458  -0.000107  -0.008769
     5  P    0.032000  -0.009749   0.032337  -0.000107  14.461916   0.080933
     6  Ca  -0.011258   0.241986   0.142410  -0.008769   0.080933  18.954357
     7  Ca   0.142142   0.241968  -0.011401  -0.008534   0.080597  -0.093667
     8  Ca   0.131122  -0.006299   0.130836   0.259001   0.033906  -0.217951
     9  H    0.000003   0.000000   0.000003   0.277532   0.000004   0.000032
              7          8          9
     1  O    0.142142   0.131122   0.000003
     2  O    0.241968  -0.006299   0.000000
     3  O   -0.011401   0.130836   0.000003
     4  O   -0.008534   0.259001   0.277532
     5  P    0.080597   0.033906   0.000004
     6  Ca  -0.093667  -0.217951   0.000032
     7  Ca  18.954760  -0.216570   0.000092
     8  Ca  -0.216570  18.852091  -0.026007
     9  H    0.000092  -0.026007   0.481220
 Mulliken atomic charges:
              1
     1  O   -0.862416
     2  O   -0.886784
     3  O   -0.862109
     4  O   -0.826386
     5  P    0.288165
     6  Ca   0.911926
     7  Ca   0.910614
     8  Ca   1.059871
     9  H    0.267120
 Sum of Mulliken charges=   0.00000
 Atomic charges with hydrogens summed into heavy atoms:
              1
     1  O   -0.862416
     2  O   -0.886784
     3  O   -0.862109
     4  O   -0.559266
     5  P    0.288165
     6  Ca   0.911926
     7  Ca   0.910614
     8  Ca   1.059871
     9  H    0.000000
 Sum of Mulliken charges=   0.00000
 Electronic spatial extent (au):  <R**2>=  2358.5566
 Charge=     0.0000 electrons
 Dipole moment (field-independent basis, Debye):
    X=     3.4159    Y=    -0.0107    Z=     0.0243  Tot=     3.4161
 Quadrupole moment (field-independent basis, Debye-Ang):
   XX=   -90.8582   YY=   -56.1039   ZZ=  -100.0759
   XY=    -0.1148   XZ=     3.5639   YZ=     0.2963
 Traceless Quadrupole moment (field-independent basis, Debye-Ang):
   XX=    -8.5122   YY=    26.2421   ZZ=   -17.7299
   XY=    -0.1148   XZ=     3.5639   YZ=     0.2963
 Octapole moment (field-independent basis, Debye-Ang**2):
  XXX=    -0.3477  YYY=     1.2853  ZZZ=   -15.5043  XYY=    58.6958
  XXY=    -0.6354  XXZ=    40.2206  XZZ=   -29.7118  YZZ=    -0.1982
  YYZ=   -26.8917  XYZ=     1.1388
 Hexadecapole moment (field-independent basis, Debye-Ang**3):
 XXXX= -2066.1187 YYYY=  -572.2091 ZZZZ=  -660.1460 XXXY=    -5.2601
 XXXZ=    54.7646 YYYX=     0.7059 YYYZ=     1.0490 ZZZX=    57.7401
 ZZZY=     0.9512 XXYY=  -332.1330 XXZZ=  -450.6267 YYZZ=  -209.1451
 XXYZ=    -0.2077 YYXZ=   -19.5929 ZZXY=    -1.5975
 N-N= 8.596402182377D+02 E-N=-8.062736913181D+03  KE= 2.668985347022D+03
 Merz-Kollman atomic radii used.
 Read replacement radii for each type of atom:
 Rad(20) =   1.188000000000D+00
 Atom Element Radius
    1     8    1.40
    2     8    1.40
    3     8    1.40
    4     8    1.40
    5    15    1.80
    6    20    1.19
    7    20    1.19
    8    20    1.19
    9     1    1.20

 **********************************************************************

            Electrostatic Properties Using The SCF Density

 **********************************************************************

       Atomic Center    1 is at  -0.370604 -1.309690  0.647329
       Atomic Center    2 is at   2.256761  0.018047 -1.484711
       Atomic Center    3 is at  -0.382253  1.292120  0.667403
       Atomic Center    4 is at  -3.877939  0.015237 -1.226551
       Atomic Center    5 is at   0.129987 -0.013582  1.671069
       Atomic Center    6 is at   1.623410  1.666272 -0.285583
       Atomic Center    7 is at   1.639733 -1.652398 -0.307951
       Atomic Center    8 is at  -2.178429 -0.012072 -0.011815
       Atomic Center    9 is at  -4.651819  0.041980 -1.786811
     868 points will be used for fitting atomic charges
 Fitting point charges to eletrostatic potential
 Charges from ESP fit, RMS=   0.01130 RRMS=   0.20139:
 Charge=   0.00000 Dipole=     4.9051    -0.0084     0.1153 Tot=     4.9065
              1
     1  O   -0.730416
     2  O   -1.372780
     3  O   -0.728212
     4  O   -1.424056
     5  P   -0.635253
     6  Ca   1.322946
     7  Ca   1.322415
     8  Ca   1.722033
     9  H    0.523322
 -----------------------------------------------------------------

              Electrostatic Properties (Atomic Units)

 -----------------------------------------------------------------
    Center     Electric         -------- Electric Field --------
               Potential          X             Y             Z
 -----------------------------------------------------------------
    1 Atom    -22.384307
    2 Atom    -22.465538
    3 Atom    -22.384092
    4 Atom    -22.428338
    5 Atom    -54.148817
    6 Atom    -80.205382
    7 Atom    -80.205455
    8 Atom    -80.230294
    9 Atom     -1.103356
 -----------------------------------------------------------------
 1\1\GINC-N029\SP\RB3LYP\6-31G(d,p)\Ca3H1O4P1\TIMN\04-May-2015\0\\# b3l
 yp/6-31G(d,p) pop=(ReadRadii,MK)\\Ca3PO4_167\\0,1\O,0,-0.370607,-1.309
 69,0.64733\O,0,2.25676,0.018045,-1.48471\O,0,-0.382253,1.29212,0.66740
 4\O,0,-3.87794,0.01524,-1.22655\P,0,0.129986,-0.013582,1.67107\Ca,0,1.
 62341,1.66627,-0.285582\Ca,0,1.63973,-1.6524,-0.30795\Ca,0,-2.17843,-0
 .01207,-0.011814\H,0,-4.65182,0.041984,-1.78681\\Version=EM64T-G03RevE
 .01\State=1-A\HF=-2675.7064681\RMSD=7.464e-05\Thermal=0.\Dipole=1.3439
 371,-0.0042028,0.0095731\PG=C01 [X(Ca3H1O4P1)]\\@


 IMAGINATION WILL OFTEN CARRY US TO WORLDS THAT NEVER WERE.
 BUT WITHOUT IT, WE GO NOWHERE. -- CARL SAGAN (COSMOS)
 Job cpu time:  0 days  0 hours  0 minutes 56.3 seconds.
 File lengths (MBytes):  RWF=     27 Int=      0 D2E=      0 Chk=     10 Scr=      1
 Normal termination of Gaussian 03 at Mon May  4 20:10:47 2015.
