 Entering Gaussian System, Link 0=/home/timn/tmp/g03.e01/g03
 Input=Ca3PO4_34.xyz.gjf
 Output=Ca3PO4_34.xyz.out
 Initial command:
 /home/timn/tmp/g03.e01/l1.exe /home/timn/tmp/g03.e01/Gau-21067.inp -scrdir=/home/timn/tmp/g03.e01/
 Default is to use a total of   2 processors:
                                2 via shared-memory
                                1 via Linda
 Entering Link 1 = /home/timn/tmp/g03.e01/l1.exe PID=     21068.
  
 Copyright (c) 1988,1990,1992,1993,1995,1998,2003,2004,2007, Gaussian, Inc.
                  All Rights Reserved.
  
 This is the Gaussian(R) 03 program.  It is based on the
 the Gaussian(R) 98 system (copyright 1998, Gaussian, Inc.),
 the Gaussian(R) 94 system (copyright 1995, Gaussian, Inc.),
 the Gaussian 92(TM) system (copyright 1992, Gaussian, Inc.),
 the Gaussian 90(TM) system (copyright 1990, Gaussian, Inc.),
 the Gaussian 88(TM) system (copyright 1988, Gaussian, Inc.),
 the Gaussian 86(TM) system (copyright 1986, Carnegie Mellon
 University), and the Gaussian 82(TM) system (copyright 1983,
 Carnegie Mellon University). Gaussian is a federally registered
 trademark of Gaussian, Inc.
  
 This software contains proprietary and confidential information,
 including trade secrets, belonging to Gaussian, Inc.
  
 This software is provided under written license and may be
 used, copied, transmitted, or stored only in accord with that
 written license.
  
 The following legend is applicable only to US Government
 contracts under FAR:
  
                    RESTRICTED RIGHTS LEGEND
  
 Use, reproduction and disclosure by the US Government is
 subject to restrictions as set forth in subparagraphs (a)
 and (c) of the Commercial Computer Software - Restricted
 Rights clause in FAR 52.227-19.
  
 Gaussian, Inc.
 340 Quinnipiac St., Bldg. 40, Wallingford CT 06492
  
  
 ---------------------------------------------------------------
 Warning -- This program may not be used in any manner that
 competes with the business of Gaussian, Inc. or will provide
 assistance to any competitor of Gaussian, Inc.  The licensee
 of this program is prohibited from giving any competitor of
 Gaussian, Inc. access to this program.  By using this program,
 the user acknowledges that Gaussian, Inc. is engaged in the
 business of creating and licensing software in the field of
 computational chemistry and represents and warrants to the
 licensee that it is not a competitor of Gaussian, Inc. and that
 it will not use this program in any manner prohibited above.
 ---------------------------------------------------------------
  

 Cite this work as:
 Gaussian 03, Revision E.01,
 M. J. Frisch, G. W. Trucks, H. B. Schlegel, G. E. Scuseria, 
 M. A. Robb, J. R. Cheeseman, J. A. Montgomery, Jr., T. Vreven, 
 K. N. Kudin, J. C. Burant, J. M. Millam, S. S. Iyengar, J. Tomasi, 
 V. Barone, B. Mennucci, M. Cossi, G. Scalmani, N. Rega, 
 G. A. Petersson, H. Nakatsuji, M. Hada, M. Ehara, K. Toyota, 
 R. Fukuda, J. Hasegawa, M. Ishida, T. Nakajima, Y. Honda, O. Kitao, 
 H. Nakai, M. Klene, X. Li, J. E. Knox, H. P. Hratchian, J. B. Cross, 
 V. Bakken, C. Adamo, J. Jaramillo, R. Gomperts, R. E. Stratmann, 
 O. Yazyev, A. J. Austin, R. Cammi, C. Pomelli, J. W. Ochterski, 
 P. Y. Ayala, K. Morokuma, G. A. Voth, P. Salvador, J. J. Dannenberg, 
 V. G. Zakrzewski, S. Dapprich, A. D. Daniels, M. C. Strain, 
 O. Farkas, D. K. Malick, A. D. Rabuck, K. Raghavachari, 
 J. B. Foresman, J. V. Ortiz, Q. Cui, A. G. Baboul, S. Clifford, 
 J. Cioslowski, B. B. Stefanov, G. Liu, A. Liashenko, P. Piskorz, 
 I. Komaromi, R. L. Martin, D. J. Fox, T. Keith, M. A. Al-Laham, 
 C. Y. Peng, A. Nanayakkara, M. Challacombe, P. M. W. Gill, 
 B. Johnson, W. Chen, M. W. Wong, C. Gonzalez, and J. A. Pople, 
 Gaussian, Inc., Wallingford CT, 2004.
 
 ******************************************
 Gaussian 03:  EM64T-G03RevE.01 11-Sep-2007
                 4-May-2015 
 ******************************************
 %nproc=2
 Will use up to    2 processors via shared memory.
 Default route:  MP2=Direct MaxDisk=2000MB
 -------------------------------------
 # b3lyp/6-31G(d,p) pop=(ReadRadii,MK)
 -------------------------------------
 1/38=1/1;
 2/17=6,18=5,40=1/2;
 3/5=1,6=6,7=101,11=2,16=1,25=1,30=1,74=-5/1,2,3;
 4//1;
 5/5=2,32=1,38=5/2;
 6/7=2,8=2,9=2,10=2,15=8,20=101,28=1/1,2;
 99/5=1,9=1/99;
 ---------
 Ca3PO4_34
 ---------
 Symbolic Z-matrix:
 Charge =  0 Multiplicity = 1
 O                     1.46909   0.06974   1.05304 
 O                    -0.67698  -1.30787   1.0501 
 O                    -0.79679   1.23947   1.04921 
 O                     0.00188  -0.0006   -1.63261 
 P                    -0.00238   0.00061   1.58475 
 Ca                   -2.00292  -0.09505  -0.6509 
 Ca                    0.9209    1.7822   -0.64825 
 Ca                    1.08517  -1.68795  -0.64691 
 H                    -0.00479   0.00099   2.9919 
 
                          Input orientation:                          
 ---------------------------------------------------------------------
 Center     Atomic     Atomic              Coordinates (Angstroms)
 Number     Number      Type              X           Y           Z
 ---------------------------------------------------------------------
    1          8             0        1.469090    0.069739    1.053040
    2          8             0       -0.676979   -1.307870    1.050100
    3          8             0       -0.796790    1.239470    1.049210
    4          8             0        0.001876   -0.000603   -1.632610
    5         15             0       -0.002378    0.000611    1.584750
    6         20             0       -2.002920   -0.095053   -0.650899
    7         20             0        0.920900    1.782200   -0.648245
    8         20             0        1.085170   -1.687950   -0.646913
    9          1             0       -0.004786    0.000989    2.991900
 ---------------------------------------------------------------------
                    Distance matrix (angstroms):
                    1          2          3          4          5
     1  O    0.000000
     2  O    2.550182   0.000000
     3  O    2.550000   2.550156   0.000000
     4  O    3.061108   3.060510   3.060687   0.000000
     5  P    1.566114   1.566225   1.566099   3.217363   0.000000
     6  Ca   3.871100   2.474357   2.475090   2.234253   3.001574
     7  Ca   2.475360   3.871192   2.475150   2.234271   3.002127
     8  Ca   2.475218   2.475779   3.871485   2.234338   3.002385
     9  H    2.436435   2.436297   2.436216   4.624515   1.407152
                    6          7          8          9
     6  Ca   0.000000
     7  Ca   3.474595   0.000000
     8  Ca   3.474714   3.474036   0.000000
     9  H    4.155929   4.156954   4.157100   0.000000
 Stoichiometry    Ca3HO4P
 Framework group  C1[X(Ca3HO4P)]
 Deg. of freedom    21
 Full point group                 C1
 Largest Abelian subgroup         C1      NOp   1
 Largest concise Abelian subgroup C1      NOp   1
                         Standard orientation:                         
 ---------------------------------------------------------------------
 Center     Atomic     Atomic              Coordinates (Angstroms)
 Number     Number      Type              X           Y           Z
 ---------------------------------------------------------------------
    1          8             0        1.469076    0.070007    1.053041
    2          8             0       -0.676741   -1.307993    1.050101
    3          8             0       -0.797017    1.239325    1.049211
    4          8             0        0.001875   -0.000602   -1.632609
    5         15             0       -0.002379    0.000611    1.584751
    6         20             0       -2.002904   -0.095419   -0.650898
    7         20             0        0.920573    1.782368   -0.648244
    8         20             0        1.085477   -1.687752   -0.646912
    9          1             0       -0.004787    0.000988    2.991901
 ---------------------------------------------------------------------
 Rotational constants (GHZ):      0.9607464      0.9605429      0.8617800
 Standard basis: 6-31G(d,p) (6D, 7F)
 There are   153 symmetry adapted basis functions of A   symmetry.
 Integral buffers will be    131072 words long.
 Raffenetti 2 integral format.
 Two-electron integral symmetry is turned on.
   153 basis functions,   399 primitive gaussians,   153 cartesian basis functions
    54 alpha electrons       54 beta electrons
       nuclear repulsion energy       959.7744082766 Hartrees.
 NAtoms=    9 NActive=    9 NUniq=    9 SFac= 7.50D-01 NAtFMM=   80 NAOKFM=F Big=F
 One-electron integrals computed using PRISM.
 NBasis=   153 RedAO= T  NBF=   153
 NBsUse=   153 1.00D-06 NBFU=   153
 Harris functional with IExCor=  402 diagonalized for initial guess.
 ExpMin= 2.60D-02 ExpMax= 3.53D+04 ExpMxC= 5.30D+03 IAcc=3 IRadAn=         5 AccDes= 0.00D+00
 HarFok:  IExCor= 402 AccDes= 0.00D+00 IRadAn=         5 IDoV=1
 ScaDFX=  1.000000  1.000000  1.000000  1.000000
 Initial guess orbital symmetries:
       Occupied  (A) (A) (A) (A) (A) (A) (A) (A) (A) (A) (A) (A)
                 (A) (A) (A) (A) (A) (A) (A) (A) (A) (A) (A) (A)
                 (A) (A) (A) (A) (A) (A) (A) (A) (A) (A) (A) (A)
                 (A) (A) (A) (A) (A) (A) (A) (A) (A) (A) (A) (A)
                 (A) (A) (A) (A) (A) (A)
       Virtual   (A) (A) (A) (A) (A) (A) (A) (A) (A) (A) (A) (A)
                 (A) (A) (A) (A) (A) (A) (A) (A) (A) (A) (A) (A)
                 (A) (A) (A) (A) (A) (A) (A) (A) (A) (A) (A) (A)
                 (A) (A) (A) (A) (A) (A) (A) (A) (A) (A) (A) (A)
                 (A) (A) (A) (A) (A) (A) (A) (A) (A) (A) (A) (A)
                 (A) (A) (A) (A) (A) (A) (A) (A) (A) (A) (A) (A)
                 (A) (A) (A) (A) (A) (A) (A) (A) (A) (A) (A) (A)
                 (A) (A) (A) (A) (A) (A) (A) (A) (A) (A) (A) (A)
                 (A) (A) (A)
 The electronic state of the initial guess is 1-A.
 Requested convergence on RMS density matrix=1.00D-04 within 128 cycles.
 Requested convergence on MAX density matrix=1.00D-02.
 Requested convergence on             energy=1.00D-02.
 No special actions if energy rises.
 EnCoef did     2 forward-backward iterations
 EnCoef did     4 forward-backward iterations
 EnCoef did     4 forward-backward iterations
 SCF Done:  E(RB+HF-LYP) =  -2675.80666932     A.U. after    9 cycles
             Convg  =    0.8893D-04             -V/T =  2.0026
             S**2   =   0.0000

 **********************************************************************

            Population analysis using the SCF density.

 **********************************************************************

 Orbital symmetries:
       Occupied  (A) (A) (A) (A) (A) (A) (A) (A) (A) (A) (A) (A)
                 (A) (A) (A) (A) (A) (A) (A) (A) (A) (A) (A) (A)
                 (A) (A) (A) (A) (A) (A) (A) (A) (A) (A) (A) (A)
                 (A) (A) (A) (A) (A) (A) (A) (A) (A) (A) (A) (A)
                 (A) (A) (A) (A) (A) (A)
       Virtual   (A) (A) (A) (A) (A) (A) (A) (A) (A) (A) (A) (A)
                 (A) (A) (A) (A) (A) (A) (A) (A) (A) (A) (A) (A)
                 (A) (A) (A) (A) (A) (A) (A) (A) (A) (A) (A) (A)
                 (A) (A) (A) (A) (A) (A) (A) (A) (A) (A) (A) (A)
                 (A) (A) (A) (A) (A) (A) (A) (A) (A) (A) (A) (A)
                 (A) (A) (A) (A) (A) (A) (A) (A) (A) (A) (A) (A)
                 (A) (A) (A) (A) (A) (A) (A) (A) (A) (A) (A) (A)
                 (A) (A) (A) (A) (A) (A) (A) (A) (A) (A) (A) (A)
                 (A) (A) (A)
 The electronic state is 1-A.
 Alpha  occ. eigenvalues -- -145.35799-145.35772-145.35705 -77.19745 -19.12224
 Alpha  occ. eigenvalues --  -19.12194 -19.12040 -19.03410 -15.42861 -15.42834
 Alpha  occ. eigenvalues --  -15.42774 -12.56062 -12.56035 -12.56003 -12.55977
 Alpha  occ. eigenvalues --  -12.55974 -12.55965 -12.55938 -12.55916 -12.55877
 Alpha  occ. eigenvalues --   -6.64741  -4.81072  -4.81071  -4.80946  -1.80254
 Alpha  occ. eigenvalues --   -1.80196  -1.80151  -1.08843  -1.08107  -1.08083
 Alpha  occ. eigenvalues --   -1.07837  -1.07730  -1.07657  -1.07629  -1.07098
 Alpha  occ. eigenvalues --   -1.07058  -1.01100  -0.93647  -0.93607  -0.78401
 Alpha  occ. eigenvalues --   -0.56474  -0.45173  -0.42298  -0.42285  -0.34652
 Alpha  occ. eigenvalues --   -0.34648  -0.32078  -0.30230  -0.30201  -0.28138
 Alpha  occ. eigenvalues --   -0.23751  -0.23750  -0.21463  -0.11634
 Alpha virt. eigenvalues --   -0.07650  -0.07631  -0.02142  -0.02127  -0.00249
 Alpha virt. eigenvalues --    0.00394   0.00408   0.01264   0.02399   0.03965
 Alpha virt. eigenvalues --    0.03978   0.06561   0.08588   0.08599   0.10633
 Alpha virt. eigenvalues --    0.12596   0.12604   0.13004   0.13019   0.13626
 Alpha virt. eigenvalues --    0.15693   0.15716   0.16593   0.16870   0.18313
 Alpha virt. eigenvalues --    0.18318   0.20237   0.22949   0.22966   0.23951
 Alpha virt. eigenvalues --    0.26995   0.27003   0.27526   0.29729   0.30516
 Alpha virt. eigenvalues --    0.30521   0.33105   0.37111   0.37123   0.39799
 Alpha virt. eigenvalues --    0.42799   0.42805   0.43667   0.45485   0.45582
 Alpha virt. eigenvalues --    0.45606   0.61731   0.61743   0.66933   0.71832
 Alpha virt. eigenvalues --    0.71837   0.85147   0.90316   0.90325   0.98540
 Alpha virt. eigenvalues --    1.09179   1.11265   1.11275   1.14696   1.15630
 Alpha virt. eigenvalues --    1.17289   1.17301   1.24088   1.24101   1.26779
 Alpha virt. eigenvalues --    1.28090   1.28094   1.43387   1.45284   1.45296
 Alpha virt. eigenvalues --    1.75101   1.78406   1.80710   1.80734   1.82780
 Alpha virt. eigenvalues --    1.82790   1.89063   1.89454   1.91600   1.91615
 Alpha virt. eigenvalues --    1.97104   1.97107   2.01936   2.05585   2.05593
 Alpha virt. eigenvalues --    2.16718   2.16733   2.24389   2.28637   2.28640
 Alpha virt. eigenvalues --    2.57119   2.79182   2.79192   2.85396   3.53118
 Alpha virt. eigenvalues --    3.80377   3.80410   3.88493   4.23804
          Condensed to atoms (all electrons):
              1          2          3          4          5          6
     1  O    8.418221  -0.034035  -0.034004  -0.007086   0.280431   0.009577
     2  O   -0.034035   8.415072  -0.034022  -0.007109   0.280779   0.082356
     3  O   -0.034004  -0.034022   8.418028  -0.007096   0.280187   0.082126
     4  O   -0.007086  -0.007109  -0.007096   8.479833   0.023098   0.143936
     5  P    0.280431   0.280779   0.280187   0.023098  12.652601  -0.000495
     6  Ca   0.009577   0.082356   0.082126   0.143936  -0.000495  19.167728
     7  Ca   0.081556   0.009155   0.081615   0.143144   0.000305  -0.080469
     8  Ca   0.081874   0.082013   0.009476   0.143699  -0.000167  -0.081925
     9  H   -0.040881  -0.040931  -0.040904   0.000000   0.249525   0.003209
              7          8          9
     1  O    0.081556   0.081874  -0.040881
     2  O    0.009155   0.082013  -0.040931
     3  O    0.081615   0.009476  -0.040904
     4  O    0.143144   0.143699   0.000000
     5  P    0.000305  -0.000167   0.249525
     6  Ca  -0.080469  -0.081925   0.003209
     7  Ca  19.159424  -0.079919   0.002852
     8  Ca  -0.079919  19.164796   0.003074
     9  H    0.002852   0.003074   0.954412
 Mulliken atomic charges:
              1
     1  O   -0.755652
     2  O   -0.753279
     3  O   -0.755405
     4  O   -0.912419
     5  P    1.233736
     6  Ca   0.673959
     7  Ca   0.682337
     8  Ca   0.677079
     9  H   -0.090355
 Sum of Mulliken charges=   0.00000
 Atomic charges with hydrogens summed into heavy atoms:
              1
     1  O   -0.755652
     2  O   -0.753279
     3  O   -0.755405
     4  O   -0.912419
     5  P    1.143380
     6  Ca   0.673959
     7  Ca   0.682337
     8  Ca   0.677079
     9  H    0.000000
 Sum of Mulliken charges=   0.00000
 Electronic spatial extent (au):  <R**2>=  1681.9913
 Charge=     0.0000 electrons
 Dipole moment (field-independent basis, Debye):
    X=     0.1620    Y=     0.1480    Z=     0.1422  Tot=     0.2615
 Quadrupole moment (field-independent basis, Debye-Ang):
   XX=   -88.7156   YY=   -88.2315   ZZ=  -100.9254
   XY=     0.1746   XZ=    -0.1505   YZ=    -0.1581
 Traceless Quadrupole moment (field-independent basis, Debye-Ang):
   XX=     3.9085   YY=     4.3927   ZZ=    -8.3012
   XY=     0.1746   XZ=    -0.1505   YZ=    -0.1581
 Octapole moment (field-independent basis, Debye-Ang**2):
  XXX=    -5.3985  YYY=     3.0079  ZZZ=    66.4333  XYY=     8.0364
  XXY=    -0.4082  XXZ=     3.5955  XZZ=     0.3402  YZZ=     0.4168
  YYZ=     3.1943  XYZ=    -0.1466
 Hexadecapole moment (field-independent basis, Debye-Ang**3):
 XXXX= -1192.7461 YYYY= -1182.9634 ZZZZ=  -849.4716 XXXY=     1.1188
 XXXZ=   -21.1898 YYYX=     2.3958 YYYZ=     1.0620 ZZZX=    -1.0809
 ZZZY=    -0.8338 XXYY=  -395.4009 XXZZ=  -343.0344 YYZZ=  -341.6281
 XXYZ=    -3.3139 YYXZ=    18.6419 ZZXY=     0.4237
 N-N= 9.597744082766D+02 E-N=-8.257629617668D+03  KE= 2.668799898884D+03
 Merz-Kollman atomic radii used.
 Read replacement radii for each type of atom:
 Rad(20) =   1.188000000000D+00
 Atom Element Radius
    1     8    1.40
    2     8    1.40
    3     8    1.40
    4     8    1.40
    5    15    1.80
    6    20    1.19
    7    20    1.19
    8    20    1.19
    9     1    1.20

 **********************************************************************

            Electrostatic Properties Using The SCF Density

 **********************************************************************

       Atomic Center    1 is at   1.469076  0.070007  1.053041
       Atomic Center    2 is at  -0.676741 -1.307993  1.050101
       Atomic Center    3 is at  -0.797017  1.239325  1.049211
       Atomic Center    4 is at   0.001875 -0.000602 -1.632609
       Atomic Center    5 is at  -0.002379  0.000611  1.584751
       Atomic Center    6 is at  -2.002904 -0.095419 -0.650898
       Atomic Center    7 is at   0.920573  1.782368 -0.648244
       Atomic Center    8 is at   1.085477 -1.687752 -0.646912
       Atomic Center    9 is at  -0.004787  0.000988  2.991901
     688 points will be used for fitting atomic charges
 Fitting point charges to eletrostatic potential
 Charges from ESP fit, RMS=   0.03413 RRMS=   0.59198:
 Charge=   0.00000 Dipole=     0.1519    -0.0789    -4.4619 Tot=     4.4652
              1
     1  O   -1.048827
     2  O   -1.037755
     3  O   -1.061357
     4  O   -1.400271
     5  P    2.147428
     6  Ca   0.951712
     7  Ca   0.968985
     8  Ca   0.961616
     9  H   -0.481530
 -----------------------------------------------------------------

              Electrostatic Properties (Atomic Units)

 -----------------------------------------------------------------
    Center     Electric         -------- Electric Field --------
               Potential          X             Y             Z
 -----------------------------------------------------------------
    1 Atom    -22.344685
    2 Atom    -22.341612
    3 Atom    -22.344358
    4 Atom    -22.432073
    5 Atom    -54.009925
    6 Atom    -80.186997
    7 Atom    -80.184022
    8 Atom    -80.185835
    9 Atom     -1.093056
 -----------------------------------------------------------------
 1\1\GINC-N036\SP\RB3LYP\6-31G(d,p)\Ca3H1O4P1\TIMN\04-May-2015\0\\# b3l
 yp/6-31G(d,p) pop=(ReadRadii,MK)\\Ca3PO4_34\\0,1\O,0,1.46909,0.069739,
 1.05304\O,0,-0.676979,-1.30787,1.0501\O,0,-0.79679,1.23947,1.04921\O,0
 ,0.001876,-0.000603,-1.63261\P,0,-0.002378,0.000611,1.58475\Ca,0,-2.00
 292,-0.095053,-0.650899\Ca,0,0.9209,1.7822,-0.648245\Ca,0,1.08517,-1.6
 8795,-0.646913\H,0,-0.004786,0.000989,2.9919\\Version=EM64T-G03RevE.01
 \State=1-A\HF=-2675.8066693\RMSD=8.893e-05\Thermal=0.\Dipole=0.0637363
 ,0.0582223,0.0559634\PG=C01 [X(Ca3H1O4P1)]\\@


 ASKING DUMB QUESTIONS IS EASIER THAN CORECTING DUMB MISTAKES.
 Job cpu time:  0 days  0 hours  0 minutes 56.2 seconds.
 File lengths (MBytes):  RWF=     27 Int=      0 D2E=      0 Chk=     10 Scr=      1
 Normal termination of Gaussian 03 at Mon May  4 20:12:12 2015.
