 Entering Gaussian System, Link 0=/home/timn/tmp/g03.e01/g03
 Input=Ca3PO4_80.xyz.gjf
 Output=Ca3PO4_80.xyz.out
 Initial command:
 /home/timn/tmp/g03.e01/l1.exe /home/timn/tmp/g03.e01/Gau-31548.inp -scrdir=/home/timn/tmp/g03.e01/
 Default is to use a total of   2 processors:
                                2 via shared-memory
                                1 via Linda
 Entering Link 1 = /home/timn/tmp/g03.e01/l1.exe PID=     31549.
  
 Copyright (c) 1988,1990,1992,1993,1995,1998,2003,2004,2007, Gaussian, Inc.
                  All Rights Reserved.
  
 This is the Gaussian(R) 03 program.  It is based on the
 the Gaussian(R) 98 system (copyright 1998, Gaussian, Inc.),
 the Gaussian(R) 94 system (copyright 1995, Gaussian, Inc.),
 the Gaussian 92(TM) system (copyright 1992, Gaussian, Inc.),
 the Gaussian 90(TM) system (copyright 1990, Gaussian, Inc.),
 the Gaussian 88(TM) system (copyright 1988, Gaussian, Inc.),
 the Gaussian 86(TM) system (copyright 1986, Carnegie Mellon
 University), and the Gaussian 82(TM) system (copyright 1983,
 Carnegie Mellon University). Gaussian is a federally registered
 trademark of Gaussian, Inc.
  
 This software contains proprietary and confidential information,
 including trade secrets, belonging to Gaussian, Inc.
  
 This software is provided under written license and may be
 used, copied, transmitted, or stored only in accord with that
 written license.
  
 The following legend is applicable only to US Government
 contracts under FAR:
  
                    RESTRICTED RIGHTS LEGEND
  
 Use, reproduction and disclosure by the US Government is
 subject to restrictions as set forth in subparagraphs (a)
 and (c) of the Commercial Computer Software - Restricted
 Rights clause in FAR 52.227-19.
  
 Gaussian, Inc.
 340 Quinnipiac St., Bldg. 40, Wallingford CT 06492
  
  
 ---------------------------------------------------------------
 Warning -- This program may not be used in any manner that
 competes with the business of Gaussian, Inc. or will provide
 assistance to any competitor of Gaussian, Inc.  The licensee
 of this program is prohibited from giving any competitor of
 Gaussian, Inc. access to this program.  By using this program,
 the user acknowledges that Gaussian, Inc. is engaged in the
 business of creating and licensing software in the field of
 computational chemistry and represents and warrants to the
 licensee that it is not a competitor of Gaussian, Inc. and that
 it will not use this program in any manner prohibited above.
 ---------------------------------------------------------------
  

 Cite this work as:
 Gaussian 03, Revision E.01,
 M. J. Frisch, G. W. Trucks, H. B. Schlegel, G. E. Scuseria, 
 M. A. Robb, J. R. Cheeseman, J. A. Montgomery, Jr., T. Vreven, 
 K. N. Kudin, J. C. Burant, J. M. Millam, S. S. Iyengar, J. Tomasi, 
 V. Barone, B. Mennucci, M. Cossi, G. Scalmani, N. Rega, 
 G. A. Petersson, H. Nakatsuji, M. Hada, M. Ehara, K. Toyota, 
 R. Fukuda, J. Hasegawa, M. Ishida, T. Nakajima, Y. Honda, O. Kitao, 
 H. Nakai, M. Klene, X. Li, J. E. Knox, H. P. Hratchian, J. B. Cross, 
 V. Bakken, C. Adamo, J. Jaramillo, R. Gomperts, R. E. Stratmann, 
 O. Yazyev, A. J. Austin, R. Cammi, C. Pomelli, J. W. Ochterski, 
 P. Y. Ayala, K. Morokuma, G. A. Voth, P. Salvador, J. J. Dannenberg, 
 V. G. Zakrzewski, S. Dapprich, A. D. Daniels, M. C. Strain, 
 O. Farkas, D. K. Malick, A. D. Rabuck, K. Raghavachari, 
 J. B. Foresman, J. V. Ortiz, Q. Cui, A. G. Baboul, S. Clifford, 
 J. Cioslowski, B. B. Stefanov, G. Liu, A. Liashenko, P. Piskorz, 
 I. Komaromi, R. L. Martin, D. J. Fox, T. Keith, M. A. Al-Laham, 
 C. Y. Peng, A. Nanayakkara, M. Challacombe, P. M. W. Gill, 
 B. Johnson, W. Chen, M. W. Wong, C. Gonzalez, and J. A. Pople, 
 Gaussian, Inc., Wallingford CT, 2004.
 
 ******************************************
 Gaussian 03:  EM64T-G03RevE.01 11-Sep-2007
                 4-May-2015 
 ******************************************
 %nproc=2
 Will use up to    2 processors via shared memory.
 Default route:  MP2=Direct MaxDisk=2000MB
 -------------------------------------
 # b3lyp/6-31G(d,p) pop=(ReadRadii,MK)
 -------------------------------------
 1/38=1/1;
 2/17=6,18=5,40=1/2;
 3/5=1,6=6,7=101,11=2,16=1,25=1,30=1,74=-5/1,2,3;
 4//1;
 5/5=2,32=1,38=5/2;
 6/7=2,8=2,9=2,10=2,15=8,20=101,28=1/1,2;
 99/5=1,9=1/99;
 ---------
 Ca3PO4_80
 ---------
 Symbolic Z-matrix:
 Charge =  0 Multiplicity = 1
 O                     0.80074   0.11551   1.36315 
 O                    -1.3948   -1.35676   0.92346 
 O                    -0.21617   0.02896  -0.85301 
 O                     1.0463   -2.00319   0.02116 
 P                     0.00815  -0.94413   0.47526 
 Ca                   -2.60696  -0.03344  -0.59043 
 Ca                    2.30274  -0.19607  -0.6536 
 Ca                    0.08931   2.12443   0.33678 
 H                     2.28742   1.98728  -0.6221 
 
                          Input orientation:                          
 ---------------------------------------------------------------------
 Center     Atomic     Atomic              Coordinates (Angstroms)
 Number     Number      Type              X           Y           Z
 ---------------------------------------------------------------------
    1          8             0        0.800737    0.115510    1.363150
    2          8             0       -1.394800   -1.356760    0.923459
    3          8             0       -0.216165    0.028959   -0.853006
    4          8             0        1.046300   -2.003190    0.021161
    5         15             0        0.008147   -0.944128    0.475263
    6         20             0       -2.606960   -0.033437   -0.590431
    7         20             0        2.302740   -0.196073   -0.653597
    8         20             0        0.089311    2.124430    0.336781
    9          1             0        2.287420    1.987280   -0.622104
 ---------------------------------------------------------------------
                    Distance matrix (angstroms):
                    1          2          3          4          5
     1  O    0.000000
     2  O    2.679793   0.000000
     3  O    2.439862   2.542681   0.000000
     4  O    2.519946   2.681601   2.547080   0.000000
     5  P    1.593542   1.529511   1.661780   1.550994   0.000000
     6  Ca   3.930784   2.347846   2.405980   4.195269   2.967128
     7  Ca   2.533844   4.184029   2.536787   2.302089   2.664408
     8  Ca   2.365443   3.829551   2.428972   4.248846   3.072753
     9  H    3.107247   5.208657   3.186891   4.228241   3.872009
                    6          7          8          9
     6  Ca   0.000000
     7  Ca   4.912799   0.000000
     8  Ca   3.575750   3.356315   0.000000
     9  H    5.295211   2.183634   2.402073   0.000000
 Stoichiometry    Ca3HO4P
 Framework group  C1[X(Ca3HO4P)]
 Deg. of freedom    21
 Full point group                 C1
 Largest Abelian subgroup         C1      NOp   1
 Largest concise Abelian subgroup C1      NOp   1
                         Standard orientation:                         
 ---------------------------------------------------------------------
 Center     Atomic     Atomic              Coordinates (Angstroms)
 Number     Number      Type              X           Y           Z
 ---------------------------------------------------------------------
    1          8             0        0.800737    0.115511    1.363150
    2          8             0       -1.394800   -1.356759    0.923459
    3          8             0       -0.216165    0.028960   -0.853006
    4          8             0        1.046300   -2.003189    0.021161
    5         15             0        0.008147   -0.944127    0.475263
    6         20             0       -2.606960   -0.033437   -0.590431
    7         20             0        2.302740   -0.196072   -0.653597
    8         20             0        0.089310    2.124431    0.336781
    9          1             0        2.287419    1.987281   -0.622104
 ---------------------------------------------------------------------
 Rotational constants (GHZ):      1.2473047      0.7814638      0.5903587
 Standard basis: 6-31G(d,p) (6D, 7F)
 There are   153 symmetry adapted basis functions of A   symmetry.
 Integral buffers will be    131072 words long.
 Raffenetti 2 integral format.
 Two-electron integral symmetry is turned on.
   153 basis functions,   399 primitive gaussians,   153 cartesian basis functions
    54 alpha electrons       54 beta electrons
       nuclear repulsion energy       937.1010169500 Hartrees.
 NAtoms=    9 NActive=    9 NUniq=    9 SFac= 7.50D-01 NAtFMM=   80 NAOKFM=F Big=F
 One-electron integrals computed using PRISM.
 NBasis=   153 RedAO= T  NBF=   153
 NBsUse=   153 1.00D-06 NBFU=   153
 Harris functional with IExCor=  402 diagonalized for initial guess.
 ExpMin= 2.60D-02 ExpMax= 3.53D+04 ExpMxC= 5.30D+03 IAcc=3 IRadAn=         5 AccDes= 0.00D+00
 HarFok:  IExCor= 402 AccDes= 0.00D+00 IRadAn=         5 IDoV=1
 ScaDFX=  1.000000  1.000000  1.000000  1.000000
 Initial guess orbital symmetries:
       Occupied  (A) (A) (A) (A) (A) (A) (A) (A) (A) (A) (A) (A)
                 (A) (A) (A) (A) (A) (A) (A) (A) (A) (A) (A) (A)
                 (A) (A) (A) (A) (A) (A) (A) (A) (A) (A) (A) (A)
                 (A) (A) (A) (A) (A) (A) (A) (A) (A) (A) (A) (A)
                 (A) (A) (A) (A) (A) (A)
       Virtual   (A) (A) (A) (A) (A) (A) (A) (A) (A) (A) (A) (A)
                 (A) (A) (A) (A) (A) (A) (A) (A) (A) (A) (A) (A)
                 (A) (A) (A) (A) (A) (A) (A) (A) (A) (A) (A) (A)
                 (A) (A) (A) (A) (A) (A) (A) (A) (A) (A) (A) (A)
                 (A) (A) (A) (A) (A) (A) (A) (A) (A) (A) (A) (A)
                 (A) (A) (A) (A) (A) (A) (A) (A) (A) (A) (A) (A)
                 (A) (A) (A) (A) (A) (A) (A) (A) (A) (A) (A) (A)
                 (A) (A) (A) (A) (A) (A) (A) (A) (A) (A) (A) (A)
                 (A) (A) (A)
 The electronic state of the initial guess is 1-A.
 Requested convergence on RMS density matrix=1.00D-04 within 128 cycles.
 Requested convergence on MAX density matrix=1.00D-02.
 Requested convergence on             energy=1.00D-02.
 No special actions if energy rises.
 SCF Done:  E(RB+HF-LYP) =  -2675.77690013     A.U. after    9 cycles
             Convg  =    0.8837D-04             -V/T =  2.0026
             S**2   =   0.0000

 **********************************************************************

            Population analysis using the SCF density.

 **********************************************************************

 Orbital symmetries:
       Occupied  (A) (A) (A) (A) (A) (A) (A) (A) (A) (A) (A) (A)
                 (A) (A) (A) (A) (A) (A) (A) (A) (A) (A) (A) (A)
                 (A) (A) (A) (A) (A) (A) (A) (A) (A) (A) (A) (A)
                 (A) (A) (A) (A) (A) (A) (A) (A) (A) (A) (A) (A)
                 (A) (A) (A) (A) (A) (A)
       Virtual   (A) (A) (A) (A) (A) (A) (A) (A) (A) (A) (A) (A)
                 (A) (A) (A) (A) (A) (A) (A) (A) (A) (A) (A) (A)
                 (A) (A) (A) (A) (A) (A) (A) (A) (A) (A) (A) (A)
                 (A) (A) (A) (A) (A) (A) (A) (A) (A) (A) (A) (A)
                 (A) (A) (A) (A) (A) (A) (A) (A) (A) (A) (A) (A)
                 (A) (A) (A) (A) (A) (A) (A) (A) (A) (A) (A) (A)
                 (A) (A) (A) (A) (A) (A) (A) (A) (A) (A) (A) (A)
                 (A) (A) (A) (A) (A) (A) (A) (A) (A) (A) (A) (A)
                 (A) (A) (A)
 The electronic state is 1-A.
 Alpha  occ. eigenvalues -- -145.40163-145.37136-145.36297 -77.18285 -19.10266
 Alpha  occ. eigenvalues --  -19.09164 -19.09126 -19.08378 -15.47202 -15.44210
 Alpha  occ. eigenvalues --  -15.43409 -12.60415 -12.60410 -12.60247 -12.57393
 Alpha  occ. eigenvalues --  -12.57374 -12.57313 -12.56609 -12.56558 -12.56482
 Alpha  occ. eigenvalues --   -6.62831  -4.79266  -4.79129  -4.79091  -1.84544
 Alpha  occ. eigenvalues --   -1.81525  -1.80719  -1.12729  -1.12122  -1.11462
 Alpha  occ. eigenvalues --   -1.09299  -1.08997  -1.08792  -1.08359  -1.08178
 Alpha  occ. eigenvalues --   -1.08051  -0.99654  -0.91602  -0.90370  -0.89777
 Alpha  occ. eigenvalues --   -0.49597  -0.40914  -0.40283  -0.39761  -0.34024
 Alpha  occ. eigenvalues --   -0.32519  -0.31536  -0.29539  -0.28374  -0.26402
 Alpha  occ. eigenvalues --   -0.26077  -0.24915  -0.24261  -0.12519
 Alpha virt. eigenvalues --   -0.08630  -0.06787  -0.02282  -0.01816  -0.01163
 Alpha virt. eigenvalues --    0.00307   0.00737   0.01665   0.02564   0.03024
 Alpha virt. eigenvalues --    0.04458   0.06000   0.08899   0.09700   0.10500
 Alpha virt. eigenvalues --    0.12004   0.13070   0.13845   0.14248   0.15200
 Alpha virt. eigenvalues --    0.16182   0.16739   0.17367   0.17540   0.17970
 Alpha virt. eigenvalues --    0.19665   0.20546   0.21326   0.22092   0.22745
 Alpha virt. eigenvalues --    0.24567   0.24810   0.25919   0.26970   0.29692
 Alpha virt. eigenvalues --    0.31298   0.32976   0.34051   0.37855   0.39081
 Alpha virt. eigenvalues --    0.40735   0.42689   0.43558   0.45115   0.48658
 Alpha virt. eigenvalues --    0.51076   0.54067   0.58617   0.61552   0.73312
 Alpha virt. eigenvalues --    0.74634   0.90008   0.93798   0.96013   1.00385
 Alpha virt. eigenvalues --    1.04567   1.06806   1.07895   1.12767   1.16844
 Alpha virt. eigenvalues --    1.17713   1.21197   1.23858   1.27534   1.29641
 Alpha virt. eigenvalues --    1.30866   1.34146   1.44048   1.47878   1.56293
 Alpha virt. eigenvalues --    1.79597   1.79990   1.81032   1.82445   1.84768
 Alpha virt. eigenvalues --    1.86594   1.86980   1.87888   1.90875   1.91816
 Alpha virt. eigenvalues --    1.94690   2.02093   2.07666   2.10665   2.11353
 Alpha virt. eigenvalues --    2.20592   2.22370   2.27898   2.29411   2.30734
 Alpha virt. eigenvalues --    2.55631   2.72464   2.81582   2.85700   3.55793
 Alpha virt. eigenvalues --    3.83532   3.87321   4.00007   4.24351
          Condensed to atoms (all electrons):
              1          2          3          4          5          6
     1  O    8.440760  -0.023217  -0.055071  -0.045269   0.238869  -0.007893
     2  O   -0.023217   8.241559  -0.041870  -0.021610   0.393788   0.142455
     3  O   -0.055071  -0.041870   8.641389  -0.041365   0.135433   0.068787
     4  O   -0.045269  -0.021610  -0.041365   8.325897   0.342128  -0.001416
     5  P    0.238869   0.393788   0.135433   0.342128  12.555786  -0.017931
     6  Ca  -0.007893   0.142455   0.068787  -0.001416  -0.017931  19.118960
     7  Ca   0.107809  -0.001085   0.089823   0.162858  -0.011402   0.015000
     8  Ca   0.128523  -0.011925   0.085163  -0.002404  -0.026881   0.182976
     9  H   -0.005544  -0.000006  -0.004335  -0.000130   0.001827  -0.000251
              7          8          9
     1  O    0.107809   0.128523  -0.005544
     2  O   -0.001085  -0.011925  -0.000006
     3  O    0.089823   0.085163  -0.004335
     4  O    0.162858  -0.002404  -0.000130
     5  P   -0.011402  -0.026881   0.001827
     6  Ca   0.015000   0.182976  -0.000251
     7  Ca  18.455736  -0.011300   0.201906
     8  Ca  -0.011300  18.973357   0.101987
     9  H    0.201906   0.101987   1.109692
 Mulliken atomic charges:
              1
     1  O   -0.778968
     2  O   -0.678090
     3  O   -0.877955
     4  O   -0.718691
     5  P    1.388383
     6  Ca   0.499311
     7  Ca   0.990653
     8  Ca   0.580504
     9  H   -0.405147
 Sum of Mulliken charges=   0.00000
 Atomic charges with hydrogens summed into heavy atoms:
              1
     1  O   -0.778968
     2  O   -0.678090
     3  O   -0.877955
     4  O   -0.718691
     5  P    1.388383
     6  Ca   0.499311
     7  Ca   0.585506
     8  Ca   0.580504
     9  H    0.000000
 Sum of Mulliken charges=   0.00000
 Electronic spatial extent (au):  <R**2>=  1916.8494
 Charge=     0.0000 electrons
 Dipole moment (field-independent basis, Debye):
    X=     6.5507    Y=     0.9835    Z=    -4.1681  Tot=     7.8264
 Quadrupole moment (field-independent basis, Debye-Ang):
   XX=   -70.1441   YY=  -102.8254   ZZ=   -92.1134
   XY=     2.1568   XZ=    -6.0192   YZ=    10.4159
 Traceless Quadrupole moment (field-independent basis, Debye-Ang):
   XX=    18.2169   YY=   -14.4644   ZZ=    -3.7524
   XY=     2.1568   XZ=    -6.0192   YZ=    10.4159
 Octapole moment (field-independent basis, Debye-Ang**2):
  XXX=   134.2156  YYY=   -32.1891  ZZZ=    -3.0057  XYY=    23.5797
  XXY=   -77.0715  XXZ=   -19.8632  XZZ=    33.4893  YZZ=   -20.0212
  YYZ=    11.2530  XYZ=     3.9112
 Hexadecapole moment (field-independent basis, Debye-Ang**3):
 XXXX= -1536.6929 YYYY= -1158.6765 ZZZZ=  -429.0190 XXXY=    22.6118
 XXXZ=  -111.9236 YYYX=    90.3269 YYYZ=    35.1951 ZZZX=   -64.9652
 ZZZY=    16.9957 XXYY=  -566.6640 XXZZ=  -347.8478 YYZZ=  -250.8724
 XXYZ=    52.9591 YYXZ=    10.3473 ZZXY=     9.9502
 N-N= 9.371010169500D+02 E-N=-8.211522036276D+03  KE= 2.668749550417D+03
 Merz-Kollman atomic radii used.
 Read replacement radii for each type of atom:
 Rad(20) =   1.188000000000D+00
 Atom Element Radius
    1     8    1.40
    2     8    1.40
    3     8    1.40
    4     8    1.40
    5    15    1.80
    6    20    1.19
    7    20    1.19
    8    20    1.19
    9     1    1.20

 **********************************************************************

            Electrostatic Properties Using The SCF Density

 **********************************************************************

       Atomic Center    1 is at   0.800737  0.115511  1.363150
       Atomic Center    2 is at  -1.394800 -1.356759  0.923459
       Atomic Center    3 is at  -0.216165  0.028960 -0.853006
       Atomic Center    4 is at   1.046300 -2.003189  0.021161
       Atomic Center    5 is at   0.008147 -0.944127  0.475263
       Atomic Center    6 is at  -2.606960 -0.033437 -0.590431
       Atomic Center    7 is at   2.302740 -0.196072 -0.653597
       Atomic Center    8 is at   0.089310  2.124431  0.336781
       Atomic Center    9 is at   2.287419  1.987281 -0.622104
     732 points will be used for fitting atomic charges
 Fitting point charges to eletrostatic potential
 Charges from ESP fit, RMS=   0.03369 RRMS=   0.48952:
 Charge=   0.00000 Dipole=     1.4747     5.9667    -5.2639 Tot=     8.0923
              1
     1  O   -0.918694
     2  O   -0.771397
     3  O   -0.896373
     4  O   -1.021544
     5  P    1.593761
     6  Ca   0.470090
     7  Ca   1.539174
     8  Ca   0.683045
     9  H   -0.678062
 -----------------------------------------------------------------

              Electrostatic Properties (Atomic Units)

 -----------------------------------------------------------------
    Center     Electric         -------- Electric Field --------
               Potential          X             Y             Z
 -----------------------------------------------------------------
    1 Atom    -22.371991
    2 Atom    -22.372636
    3 Atom    -22.362247
    4 Atom    -22.381302
    5 Atom    -54.023236
    6 Atom    -80.180055
    7 Atom    -80.140557
    8 Atom    -80.173209
    9 Atom     -1.189609
 -----------------------------------------------------------------
 1\1\GINC-N028\SP\RB3LYP\6-31G(d,p)\Ca3H1O4P1\TIMN\04-May-2015\0\\# b3l
 yp/6-31G(d,p) pop=(ReadRadii,MK)\\Ca3PO4_80\\0,1\O,0,0.800737,0.11551,
 1.36315\O,0,-1.3948,-1.35676,0.923459\O,0,-0.216165,0.028959,-0.853006
 \O,0,1.0463,-2.00319,0.021161\P,0,0.008147,-0.944128,0.475263\Ca,0,-2.
 60696,-0.033437,-0.590431\Ca,0,2.30274,-0.196073,-0.653597\Ca,0,0.0893
 11,2.12443,0.336781\H,0,2.28742,1.98728,-0.622104\\Version=EM64T-G03Re
 vE.01\State=1-A\HF=-2675.7769001\RMSD=8.837e-05\Thermal=0.\Dipole=2.57
 72479,0.3869501,-1.639846\PG=C01 [X(Ca3H1O4P1)]\\@


 TELEVISION IS CALLED A MEDIUM BECAUSE IT ISN'T
 RARE, AND IT ISN'T WELL DONE.
 Job cpu time:  0 days  0 hours  0 minutes 55.6 seconds.
 File lengths (MBytes):  RWF=     27 Int=      0 D2E=      0 Chk=     10 Scr=      1
 Normal termination of Gaussian 03 at Mon May  4 20:13:29 2015.
