 Entering Gaussian System, Link 0=/home/timn/tmp/g03.e01/g03
 Input=Ca3PO4_22.xyz.gjf
 Output=Ca3PO4_22.xyz.out
 Initial command:
 /home/timn/tmp/g03.e01/l1.exe /home/timn/tmp/g03.e01/Gau-27334.inp -scrdir=/home/timn/tmp/g03.e01/
 Default is to use a total of   2 processors:
                                2 via shared-memory
                                1 via Linda
 Entering Link 1 = /home/timn/tmp/g03.e01/l1.exe PID=     27335.
  
 Copyright (c) 1988,1990,1992,1993,1995,1998,2003,2004,2007, Gaussian, Inc.
                  All Rights Reserved.
  
 This is the Gaussian(R) 03 program.  It is based on the
 the Gaussian(R) 98 system (copyright 1998, Gaussian, Inc.),
 the Gaussian(R) 94 system (copyright 1995, Gaussian, Inc.),
 the Gaussian 92(TM) system (copyright 1992, Gaussian, Inc.),
 the Gaussian 90(TM) system (copyright 1990, Gaussian, Inc.),
 the Gaussian 88(TM) system (copyright 1988, Gaussian, Inc.),
 the Gaussian 86(TM) system (copyright 1986, Carnegie Mellon
 University), and the Gaussian 82(TM) system (copyright 1983,
 Carnegie Mellon University). Gaussian is a federally registered
 trademark of Gaussian, Inc.
  
 This software contains proprietary and confidential information,
 including trade secrets, belonging to Gaussian, Inc.
  
 This software is provided under written license and may be
 used, copied, transmitted, or stored only in accord with that
 written license.
  
 The following legend is applicable only to US Government
 contracts under FAR:
  
                    RESTRICTED RIGHTS LEGEND
  
 Use, reproduction and disclosure by the US Government is
 subject to restrictions as set forth in subparagraphs (a)
 and (c) of the Commercial Computer Software - Restricted
 Rights clause in FAR 52.227-19.
  
 Gaussian, Inc.
 340 Quinnipiac St., Bldg. 40, Wallingford CT 06492
  
  
 ---------------------------------------------------------------
 Warning -- This program may not be used in any manner that
 competes with the business of Gaussian, Inc. or will provide
 assistance to any competitor of Gaussian, Inc.  The licensee
 of this program is prohibited from giving any competitor of
 Gaussian, Inc. access to this program.  By using this program,
 the user acknowledges that Gaussian, Inc. is engaged in the
 business of creating and licensing software in the field of
 computational chemistry and represents and warrants to the
 licensee that it is not a competitor of Gaussian, Inc. and that
 it will not use this program in any manner prohibited above.
 ---------------------------------------------------------------
  

 Cite this work as:
 Gaussian 03, Revision E.01,
 M. J. Frisch, G. W. Trucks, H. B. Schlegel, G. E. Scuseria, 
 M. A. Robb, J. R. Cheeseman, J. A. Montgomery, Jr., T. Vreven, 
 K. N. Kudin, J. C. Burant, J. M. Millam, S. S. Iyengar, J. Tomasi, 
 V. Barone, B. Mennucci, M. Cossi, G. Scalmani, N. Rega, 
 G. A. Petersson, H. Nakatsuji, M. Hada, M. Ehara, K. Toyota, 
 R. Fukuda, J. Hasegawa, M. Ishida, T. Nakajima, Y. Honda, O. Kitao, 
 H. Nakai, M. Klene, X. Li, J. E. Knox, H. P. Hratchian, J. B. Cross, 
 V. Bakken, C. Adamo, J. Jaramillo, R. Gomperts, R. E. Stratmann, 
 O. Yazyev, A. J. Austin, R. Cammi, C. Pomelli, J. W. Ochterski, 
 P. Y. Ayala, K. Morokuma, G. A. Voth, P. Salvador, J. J. Dannenberg, 
 V. G. Zakrzewski, S. Dapprich, A. D. Daniels, M. C. Strain, 
 O. Farkas, D. K. Malick, A. D. Rabuck, K. Raghavachari, 
 J. B. Foresman, J. V. Ortiz, Q. Cui, A. G. Baboul, S. Clifford, 
 J. Cioslowski, B. B. Stefanov, G. Liu, A. Liashenko, P. Piskorz, 
 I. Komaromi, R. L. Martin, D. J. Fox, T. Keith, M. A. Al-Laham, 
 C. Y. Peng, A. Nanayakkara, M. Challacombe, P. M. W. Gill, 
 B. Johnson, W. Chen, M. W. Wong, C. Gonzalez, and J. A. Pople, 
 Gaussian, Inc., Wallingford CT, 2004.
 
 ******************************************
 Gaussian 03:  EM64T-G03RevE.01 11-Sep-2007
                 4-May-2015 
 ******************************************
 %nproc=2
 Will use up to    2 processors via shared memory.
 Default route:  MP2=Direct MaxDisk=2000MB
 -------------------------------------
 # b3lyp/6-31G(d,p) pop=(ReadRadii,MK)
 -------------------------------------
 1/38=1/1;
 2/17=6,18=5,40=1/2;
 3/5=1,6=6,7=101,11=2,16=1,25=1,30=1,74=-5/1,2,3;
 4//1;
 5/5=2,32=1,38=5/2;
 6/7=2,8=2,9=2,10=2,15=8,20=101,28=1/1,2;
 99/5=1,9=1/99;
 ---------
 Ca3PO4_22
 ---------
 Symbolic Z-matrix:
 Charge =  0 Multiplicity = 1
 O                    -1.08996   1.28758   0.71221 
 O                     0.6303   -0.01402  -1.34598 
 O                     2.1276   -0.00579  -0.98062 
 O                    -1.08047  -1.2728    0.74327 
 P                    -0.87032   0.01981   1.73757 
 Ca                    1.13527  -1.66915   0.21676 
 Ca                    1.12608   1.67707   0.18382 
 Ca                   -1.68549  -0.01802  -1.21827 
 H                    -3.16217  -0.0551   -2.74083 
 
                          Input orientation:                          
 ---------------------------------------------------------------------
 Center     Atomic     Atomic              Coordinates (Angstroms)
 Number     Number      Type              X           Y           Z
 ---------------------------------------------------------------------
    1          8             0       -1.089960    1.287580    0.712214
    2          8             0        0.630298   -0.014020   -1.345980
    3          8             0        2.127600   -0.005786   -0.980622
    4          8             0       -1.080470   -1.272800    0.743272
    5         15             0       -0.870321    0.019810    1.737570
    6         20             0        1.135270   -1.669150    0.216764
    7         20             0        1.126080    1.677070    0.183823
    8         20             0       -1.685490   -0.018015   -1.218270
    9          1             0       -3.162170   -0.055096   -2.740830
 ---------------------------------------------------------------------
                    Distance matrix (angstroms):
                    1          2          3          4          5
     1  O    0.000000
     2  O    2.981545   0.000000
     3  O    3.858909   1.541255   0.000000
     4  O    2.560586   2.979300   3.856015   0.000000
     5  P    1.645247   3.429473   4.046820   1.644272   0.000000
     6  Ca   3.733547   2.331656   2.277110   2.311668   3.031144
     7  Ca   2.311219   2.333641   2.278372   3.726068   3.024278
     8  Ca   2.405411   2.319310   3.820508   2.405864   3.066418
     9  H    4.245038   4.041053   5.575162   4.237363   5.031327
                    6          7          8          9
     6  Ca   0.000000
     7  Ca   3.346395   0.000000
     8  Ca   3.569630   3.569888   0.000000
     9  H    5.460817   5.472027   2.121355   0.000000
 Stoichiometry    Ca3HO4P
 Framework group  C1[X(Ca3HO4P)]
 Deg. of freedom    21
 Full point group                 C1
 Largest Abelian subgroup         C1      NOp   1
 Largest concise Abelian subgroup C1      NOp   1
                         Standard orientation:                         
 ---------------------------------------------------------------------
 Center     Atomic     Atomic              Coordinates (Angstroms)
 Number     Number      Type              X           Y           Z
 ---------------------------------------------------------------------
    1          8             0       -1.089965    1.287576    0.712213
    2          8             0        0.630298   -0.014017   -1.345981
    3          8             0        2.127600   -0.005776   -0.980623
    4          8             0       -1.080464   -1.272804    0.743271
    5         15             0       -0.870321    0.019807    1.737569
    6         20             0        1.135278   -1.669145    0.216763
    7         20             0        1.126073    1.677075    0.183822
    8         20             0       -1.685490   -0.018022   -1.218271
    9          1             0       -3.162169   -0.055109   -2.740831
 ---------------------------------------------------------------------
 Rotational constants (GHZ):      1.0101422      0.8558507      0.7864745
 Standard basis: 6-31G(d,p) (6D, 7F)
 There are   153 symmetry adapted basis functions of A   symmetry.
 Integral buffers will be    131072 words long.
 Raffenetti 2 integral format.
 Two-electron integral symmetry is turned on.
   153 basis functions,   399 primitive gaussians,   153 cartesian basis functions
    54 alpha electrons       54 beta electrons
       nuclear repulsion energy       934.2942823250 Hartrees.
 NAtoms=    9 NActive=    9 NUniq=    9 SFac= 7.50D-01 NAtFMM=   80 NAOKFM=F Big=F
 One-electron integrals computed using PRISM.
 NBasis=   153 RedAO= T  NBF=   153
 NBsUse=   153 1.00D-06 NBFU=   153
 Harris functional with IExCor=  402 diagonalized for initial guess.
 ExpMin= 2.60D-02 ExpMax= 3.53D+04 ExpMxC= 5.30D+03 IAcc=3 IRadAn=         5 AccDes= 0.00D+00
 HarFok:  IExCor= 402 AccDes= 0.00D+00 IRadAn=         5 IDoV=1
 ScaDFX=  1.000000  1.000000  1.000000  1.000000
 Initial guess orbital symmetries:
       Occupied  (A) (A) (A) (A) (A) (A) (A) (A) (A) (A) (A) (A)
                 (A) (A) (A) (A) (A) (A) (A) (A) (A) (A) (A) (A)
                 (A) (A) (A) (A) (A) (A) (A) (A) (A) (A) (A) (A)
                 (A) (A) (A) (A) (A) (A) (A) (A) (A) (A) (A) (A)
                 (A) (A) (A) (A) (A) (A)
       Virtual   (A) (A) (A) (A) (A) (A) (A) (A) (A) (A) (A) (A)
                 (A) (A) (A) (A) (A) (A) (A) (A) (A) (A) (A) (A)
                 (A) (A) (A) (A) (A) (A) (A) (A) (A) (A) (A) (A)
                 (A) (A) (A) (A) (A) (A) (A) (A) (A) (A) (A) (A)
                 (A) (A) (A) (A) (A) (A) (A) (A) (A) (A) (A) (A)
                 (A) (A) (A) (A) (A) (A) (A) (A) (A) (A) (A) (A)
                 (A) (A) (A) (A) (A) (A) (A) (A) (A) (A) (A) (A)
                 (A) (A) (A) (A) (A) (A) (A) (A) (A) (A) (A) (A)
                 (A) (A) (A)
 The electronic state of the initial guess is 1-A.
 Requested convergence on RMS density matrix=1.00D-04 within 128 cycles.
 Requested convergence on MAX density matrix=1.00D-02.
 Requested convergence on             energy=1.00D-02.
 No special actions if energy rises.
 SCF Done:  E(RB+HF-LYP) =  -2675.63352414     A.U. after   10 cycles
             Convg  =    0.3858D-04             -V/T =  2.0026
             S**2   =   0.0000

 **********************************************************************

            Population analysis using the SCF density.

 **********************************************************************

 Orbital symmetries:
       Occupied  (A) (A) (A) (A) (A) (A) (A) (A) (A) (A) (A) (A)
                 (A) (A) (A) (A) (A) (A) (A) (A) (A) (A) (A) (A)
                 (A) (A) (A) (A) (A) (A) (A) (A) (A) (A) (A) (A)
                 (A) (A) (A) (A) (A) (A) (A) (A) (A) (A) (A) (A)
                 (A) (A) (A) (A) (A) (A)
       Virtual   (A) (A) (A) (A) (A) (A) (A) (A) (A) (A) (A) (A)
                 (A) (A) (A) (A) (A) (A) (A) (A) (A) (A) (A) (A)
                 (A) (A) (A) (A) (A) (A) (A) (A) (A) (A) (A) (A)
                 (A) (A) (A) (A) (A) (A) (A) (A) (A) (A) (A) (A)
                 (A) (A) (A) (A) (A) (A) (A) (A) (A) (A) (A) (A)
                 (A) (A) (A) (A) (A) (A) (A) (A) (A) (A) (A) (A)
                 (A) (A) (A) (A) (A) (A) (A) (A) (A) (A) (A) (A)
                 (A) (A) (A) (A) (A) (A) (A) (A) (A) (A) (A) (A)
                 (A) (A) (A)
 The electronic state is 1-A.
 Alpha  occ. eigenvalues -- -145.37876-145.37852-145.33025 -77.11990 -19.13200
 Alpha  occ. eigenvalues --  -19.13154 -19.11086 -19.11079 -15.44933 -15.44909
 Alpha  occ. eigenvalues --  -15.40230 -12.58167 -12.58144 -12.58078 -12.58055
 Alpha  occ. eigenvalues --  -12.58012 -12.57989 -12.53448 -12.53427 -12.53234
 Alpha  occ. eigenvalues --   -6.57821  -4.74162  -4.73988  -4.73685  -1.82372
 Alpha  occ. eigenvalues --   -1.82303  -1.77884  -1.11163  -1.10163  -1.09973
 Alpha  occ. eigenvalues --   -1.09899  -1.09811  -1.09348  -1.05851  -1.05828
 Alpha  occ. eigenvalues --   -1.05091  -0.96618  -0.95143  -0.90487  -0.77004
 Alpha  occ. eigenvalues --   -0.52079  -0.39167  -0.38669  -0.37656  -0.36580
 Alpha  occ. eigenvalues --   -0.35632  -0.33604  -0.30479  -0.27962  -0.26368
 Alpha  occ. eigenvalues --   -0.23378  -0.21946  -0.19009  -0.13796
 Alpha virt. eigenvalues --   -0.08939  -0.08910  -0.03883  -0.01822  -0.00493
 Alpha virt. eigenvalues --   -0.00049   0.00820   0.01631   0.01733   0.02280
 Alpha virt. eigenvalues --    0.02982   0.04469   0.07168   0.07204   0.08060
 Alpha virt. eigenvalues --    0.09141   0.11415   0.12475   0.13538   0.13625
 Alpha virt. eigenvalues --    0.14176   0.15150   0.16499   0.16845   0.18064
 Alpha virt. eigenvalues --    0.18720   0.19436   0.20731   0.21503   0.23616
 Alpha virt. eigenvalues --    0.26506   0.28305   0.30673   0.30895   0.31910
 Alpha virt. eigenvalues --    0.34268   0.35824   0.36201   0.39315   0.39560
 Alpha virt. eigenvalues --    0.40378   0.41447   0.43738   0.45591   0.46106
 Alpha virt. eigenvalues --    0.47715   0.59496   0.60330   0.61152   0.73859
 Alpha virt. eigenvalues --    0.75693   0.79741   0.88394   0.94549   0.97907
 Alpha virt. eigenvalues --    0.98988   1.03504   1.05183   1.10534   1.11053
 Alpha virt. eigenvalues --    1.12674   1.18587   1.22309   1.22498   1.24430
 Alpha virt. eigenvalues --    1.27889   1.37843   1.45398   1.46142   1.49818
 Alpha virt. eigenvalues --    1.59989   1.61272   1.70619   1.82587   1.82861
 Alpha virt. eigenvalues --    1.84969   1.88268   1.90178   1.92385   1.93368
 Alpha virt. eigenvalues --    1.94385   1.96316   1.97123   1.98534   1.99206
 Alpha virt. eigenvalues --    2.09440   2.17305   2.17573   2.31535   2.32707
 Alpha virt. eigenvalues --    2.39538   2.52806   2.66820   3.08646   3.56085
 Alpha virt. eigenvalues --    3.74718   3.79729   3.83364   3.91848
          Condensed to atoms (all electrons):
              1          2          3          4          5          6
     1  O    8.555242  -0.006200   0.000388  -0.031981   0.087009  -0.009749
     2  O   -0.006200   8.434633  -0.007214  -0.006243  -0.000857   0.072663
     3  O    0.000388  -0.007214   8.360839   0.000392  -0.008181   0.108059
     4  O   -0.031981  -0.006243   0.000392   8.554951   0.087436   0.109559
     5  P    0.087009  -0.000857  -0.008181   0.087436  14.109116   0.097712
     6  Ca  -0.009749   0.072663   0.108059   0.109559   0.097712  18.760143
     7  Ca   0.109214   0.072171   0.107846  -0.010305   0.100181  -0.009839
     8  Ca   0.103001   0.085415  -0.026231   0.102836   0.012722  -0.046457
     9  H   -0.000168  -0.000146   0.000001  -0.000172   0.000224   0.009519
              7          8          9
     1  O    0.109214   0.103001  -0.000168
     2  O    0.072171   0.085415  -0.000146
     3  O    0.107846  -0.026231   0.000001
     4  O   -0.010305   0.102836  -0.000172
     5  P    0.100181   0.012722   0.000224
     6  Ca  -0.009839  -0.046457   0.009519
     7  Ca  18.764573  -0.046662   0.009958
     8  Ca  -0.046662  18.732578   0.322033
     9  H    0.009958   0.322033   0.952058
 Mulliken atomic charges:
              1
     1  O   -0.806756
     2  O   -0.644223
     3  O   -0.535899
     4  O   -0.806474
     5  P    0.514637
     6  Ca   0.908392
     7  Ca   0.902864
     8  Ca   0.760764
     9  H   -0.293306
 Sum of Mulliken charges=   0.00000
 Atomic charges with hydrogens summed into heavy atoms:
              1
     1  O   -0.806756
     2  O   -0.644223
     3  O   -0.535899
     4  O   -0.806474
     5  P    0.514637
     6  Ca   0.908392
     7  Ca   0.902864
     8  Ca   0.467459
     9  H    0.000000
 Sum of Mulliken charges=   0.00000
 Electronic spatial extent (au):  <R**2>=  1782.0299
 Charge=     0.0000 electrons
 Dipole moment (field-independent basis, Debye):
    X=     6.7070    Y=     0.0650    Z=     2.6382  Tot=     7.2075
 Quadrupole moment (field-independent basis, Debye-Ang):
   XX=  -108.0244   YY=   -61.5975   ZZ=  -111.3282
   XY=    -0.3598   XZ=    -6.8191   YZ=    -0.6942
 Traceless Quadrupole moment (field-independent basis, Debye-Ang):
   XX=   -14.3743   YY=    32.0525   ZZ=   -17.6782
   XY=    -0.3598   XZ=    -6.8191   YZ=    -0.6942
 Octapole moment (field-independent basis, Debye-Ang**2):
  XXX=    58.4734  YYY=    -0.2185  ZZZ=    37.7361  XYY=    44.0163
  XXY=     1.0597  XXZ=    63.5233  XZZ=    49.5653  YZZ=     1.2332
  YYZ=   -14.5059  XYZ=     0.7092
 Hexadecapole moment (field-independent basis, Debye-Ang**3):
 XXXX= -1457.4707 YYYY=  -661.8984 ZZZZ= -1012.1706 XXXY=    -5.9739
 XXXZ=  -262.8046 YYYX=    -1.4957 YYYZ=    -2.5510 ZZZX=  -221.2292
 ZZZY=    -4.9218 XXYY=  -304.0307 XXZZ=  -547.4030 YYZZ=  -265.6123
 XXYZ=    -4.8422 YYXZ=   -19.0269 ZZXY=    -3.8870
 N-N= 9.342942823250D+02 E-N=-8.207079950010D+03  KE= 2.668777803120D+03
 Merz-Kollman atomic radii used.
 Read replacement radii for each type of atom:
 Rad(20) =   1.188000000000D+00
 Atom Element Radius
    1     8    1.40
    2     8    1.40
    3     8    1.40
    4     8    1.40
    5    15    1.80
    6    20    1.19
    7    20    1.19
    8    20    1.19
    9     1    1.20

 **********************************************************************

            Electrostatic Properties Using The SCF Density

 **********************************************************************

       Atomic Center    1 is at  -1.089965  1.287576  0.712213
       Atomic Center    2 is at   0.630298 -0.014017 -1.345981
       Atomic Center    3 is at   2.127600 -0.005776 -0.980623
       Atomic Center    4 is at  -1.080464 -1.272804  0.743271
       Atomic Center    5 is at  -0.870321  0.019807  1.737569
       Atomic Center    6 is at   1.135278 -1.669145  0.216763
       Atomic Center    7 is at   1.126073  1.677075  0.183822
       Atomic Center    8 is at  -1.685490 -0.018022 -1.218271
       Atomic Center    9 is at  -3.162169 -0.055109 -2.740831
     818 points will be used for fitting atomic charges
 Fitting point charges to eletrostatic potential
 Charges from ESP fit, RMS=   0.01703 RRMS=   0.27361:
 Charge=   0.00000 Dipole=     8.7858     0.0641     3.3435 Tot=     9.4007
              1
     1  O   -0.423222
     2  O   -0.499172
     3  O   -0.815075
     4  O   -0.431870
     5  P   -0.562533
     6  Ca   1.059556
     7  Ca   1.049165
     8  Ca   1.385963
     9  H   -0.762813
 -----------------------------------------------------------------

              Electrostatic Properties (Atomic Units)

 -----------------------------------------------------------------
    Center     Electric         -------- Electric Field --------
               Potential          X             Y             Z
 -----------------------------------------------------------------
    1 Atom    -22.351768
    2 Atom    -22.333493
    3 Atom    -22.340406
    4 Atom    -22.351693
    5 Atom    -54.095293
    6 Atom    -80.163826
    7 Atom    -80.164131
    8 Atom    -80.212269
    9 Atom     -1.238544
 -----------------------------------------------------------------
 1\1\GINC-N034\SP\RB3LYP\6-31G(d,p)\Ca3H1O4P1\TIMN\04-May-2015\0\\# b3l
 yp/6-31G(d,p) pop=(ReadRadii,MK)\\Ca3PO4_22\\0,1\O,0,-1.08996,1.28758,
 0.712214\O,0,0.630298,-0.01402,-1.34598\O,0,2.1276,-0.005786,-0.980622
 \O,0,-1.08047,-1.2728,0.743272\P,0,-0.870321,0.01981,1.73757\Ca,0,1.13
 527,-1.66915,0.216764\Ca,0,1.12608,1.67707,0.183823\Ca,0,-1.68549,-0.0
 18015,-1.21827\H,0,-3.16217,-0.055096,-2.74083\\Version=EM64T-G03RevE.
 01\State=1-A\HF=-2675.6335241\RMSD=3.858e-05\Thermal=0.\Dipole=2.63871
 91,0.0255658,1.0379612\PG=C01 [X(Ca3H1O4P1)]\\@


 IT IS A SIMPLE TASK TO MAKE THINGS COMPLEX,
 BUT A COMPLEX TASK TO MAKE THEM SIMPLE.
 Job cpu time:  0 days  0 hours  0 minutes 58.7 seconds.
 File lengths (MBytes):  RWF=     27 Int=      0 D2E=      0 Chk=     10 Scr=      1
 Normal termination of Gaussian 03 at Mon May  4 20:12:04 2015.
